Title
81336
    1CHL1    C3    1   6.319   2.751  10.237 -0.3008 -0.1551 -0.0008
    1CHL1    H3    2   6.426   2.776  10.252 -0.0396 -1.6150  0.6742
    1CHL1    O3    3   6.247   2.738  10.360  0.1377  0.0662 -0.5933
    1CHL1   H3'    4   6.293   2.661  10.395 -0.2583 -1.5677 -3.3325
    1CHL1    C4    5   6.258   2.869  10.159 -0.2169 -0.2594 -0.4971
    1CHL1   H4A    6   6.148   2.858  10.174 -0.0152 -0.2861  1.2208
    1CHL1   H4B    7   6.281   2.955  10.224 -0.1797  0.1213 -1.0103
    1CHL1    C5    8   6.293   2.876  10.015 -0.1788  0.8304 -0.0579
    1CHL1    C6    9   6.346   2.983   9.962  0.0305 -0.6039 -0.4170
    1CHL1    H6   10   6.355   3.068  10.031 -1.2417  1.1450 -2.3169
    1CHL1    C7   11   6.387   2.993   9.820 -0.0267 -0.1405  0.1390
    1CHL1   H7A   12   6.350   3.086   9.772 -3.0011 -1.6226 -0.6322
    1CHL1   H7B   13   6.498   3.000   9.813 -0.1352  2.2573 -0.2345
    1CHL1    C8   14   6.331   2.877   9.726  0.3387 -0.2006  0.7274
    1CHL1    H8   15   6.227   2.913   9.713 -0.0782 -0.9901  1.8088
    1CHL1   C14   16   6.405   2.875   9.590 -0.9579  0.1852 -1.1732
    1CHL1   H14   17   6.514   2.876   9.611 -1.0061 -1.0965 -0.7849
    1CHL1   C15   18   6.388   3.002   9.501 -0.1587  0.7474 -0.1060
    1CHL1  H15A   19   6.279   3.022   9.495 -0.4428 -0.8972 -1.3658
    1CHL1  H15B   20   6.459   3.085   9.521  1.5876 -0.4106 -1.1991
    1CHL1   C16   21   6.444   2.950   9.365 -0.4879  0.2791  0.2251
    1CHL1  H16A   22   6.393   2.997   9.278  1.7237  0.9034 -0.7997
    1CHL1  H16B   23   6.546   2.990   9.347 -1.4794  3.3365  0.8897
    1CHL1   C17   24   6.451   2.796   9.373 -0.2002 -0.1275  0.3865
    1CHL1   H17   25   6.557   2.769   9.388 -0.3390  0.1475  2.0567
    1CHL1   C13   26   6.372   2.755   9.503 -0.8301  0.0677 -0.0768
    1CHL1   C18   27   6.217   2.763   9.469 -0.3525 -0.0313  0.6225
    1CHL1  H18A   28   6.152   2.751   9.558 -1.7986 -0.1988 -0.4183
    1CHL1  H18B   29   6.189   2.861   9.424 -1.5733 -0.2789  0.8256
    1CHL1  H18C   30   6.177   2.689   9.396  1.1622 -1.8593  1.5614
    1CHL1   C12   31   6.398   2.622   9.574  0.3572 -0.8473 -0.1551
    1CHL1  H12A   32   6.373   2.533   9.513 -1.2508 -1.1635  0.8820
    1CHL1  H12B   33   6.502   2.606   9.610  0.9300  1.7507 -0.4421
    1CHL1   C11   34   6.319   2.611   9.708  0.4916 -0.6013 -0.2547
    1CHL1  H11A   35   6.212   2.597   9.683  0.4697  0.6578 -0.9427
    1CHL1  H11B   36   6.359   2.518   9.753 -0.2609 -0.1770  1.3665
    1CHL1    C9   37   6.344   2.742   9.795  0.3831  0.2543  0.5450
    1CHL1    H9   38   6.453   2.747   9.816  0.7550  1.9796 -1.4443
    1CHL1   C10   39   6.282   2.734   9.939  0.3791 -0.5255 -0.0346
    1CHL1   C19   40   6.133   2.703   9.924  0.1460  0.1220  0.1421
    1CHL1  H19A   41   6.082   2.775   9.855  0.7659  0.8667  0.4457
    1CHL1  H19B   42   6.126   2.600   9.882 -0.0636 -1.2984  3.4064
    1CHL1  H19C   43   6.078   2.710  10.020  0.6919 -0.2870  0.4860
    1CHL1    C1   44   6.346   2.617  10.014  0.4482  0.1291  0.7123
    1CHL1   H1A   45   6.322   2.523   9.960  3.5716 -0.5835  0.4294
    1CHL1   H1B   46   6.455   2.624   9.996  0.5341  1.2078  1.5588
    1CHL1    C2   47   6.304   2.617  10.163 -1.0306 -0.4452  0.4800
    1CHL1   H2A   48   6.363   2.538  10.214  2.0143  0.6095 -1.1962
    1CHL1   H2B   49   6.201   2.575  10.163 -0.2711 -2.4559  1.3958
    1CHL1   C20   50   6.415   2.732   9.234 -0.3103  0.0355 -0.1771
    1CHL1   H20   51   6.314   2.769   9.205 -1.4196 -0.2089  2.9530
    1CHL1   C21   52   6.417   2.575   9.238 -0.4571 -0.1376  0.0078
    1CHL1  H21A   53   6.399   2.522   9.142 -2.0573  2.1494 -1.0461
    1CHL1  H21B   54   6.327   2.549   9.297 -0.3132  1.6251  1.1025
    1CHL1  H21C   55   6.509   2.538   9.288  0.0749  1.1843  0.0668
    1CHL1   C22   56   6.512   2.780   9.127  0.4994 -0.5695  0.0829
    1CHL1  H22A   57   6.537   2.883   9.157 -0.5209 -0.2359 -0.1577
    1CHL1  H22B   58   6.607   2.725   9.141  0.6852  0.0048  1.1898
    1CHL1   C23   59   6.455   2.778   8.980  0.1608 -0.4316 -0.0490
    1CHL1  H23A   60   6.540   2.797   8.912 -1.1741  1.5967 -1.2758
    1CHL1  H23B   61   6.409   2.678   8.962  1.4021 -0.9144 -0.6125
    1CHL1   C24   62   6.364   2.896   8.939  0.3001  0.4883 -0.0187
    1CHL1  H24A   63   6.274   2.888   9.003 -0.4038  1.0753 -0.9024
    1CHL1  H24B   64   6.428   2.984   8.960 -1.0825  1.1337  1.7848
    1CHL1   C25   65   6.319   2.883   8.794 -0.6630 -0.8404 -0.2331
    1CHL1   H25   66   6.406   2.883   8.726 -1.3848 -1.5972 -1.1818
    1CHL1   C26   67   6.246   2.750   8.760 -0.6378 -0.3913 -0.2448
    1CHL1  H26A   68   6.311   2.660   8.765  0.3134  0.2528 -0.7736
    1CHL1  H26B   69   6.153   2.740   8.820  0.2869 -3.1726  0.9390
    1CHL1  H26C   70   6.206   2.755   8.657  0.1569 -0.5041 -0.5652
    1CHL1   C27   71   6.226   3.006   8.772  0.0546 -0.0093  0.4485
    1CHL1  H27A   72   6.168   2.997   8.677  2.7416 -0.9839 -1.2055
    1CHL1  H27B   73   6.150   3.002   8.853 -1.8199 -1.4656 -1.2909
    1CHL1  H27C   74   6.286   3.099   8.768  1.9997 -1.2433 -1.0551
    2CHL1    C3   75   0.480   1.153  10.033  0.3270 -0.2757  0.3441
    2CHL1    H3   76   0.575   1.208  10.011  0.5037 -1.0467 -0.9351
    2CHL1    O3   77   0.466   1.116  10.171  0.3023  0.4375 -0.6187
    2CHL1   H3'   78   0.419   1.032  10.173 -1.5316  1.4265 -0.5805
    2CHL1    C4   79   0.375   1.260   9.995 -0.4711  0.6028  0.1205
    2CHL1   H4A   80   0.274   1.217  10.010 -0.2671 -0.0540 -0.2882
    2CHL1   H4B   81   0.383   1.348  10.061  3.3005  0.1991  0.4520
    2CHL1    C5   82   0.381   1.294   9.846 -0.0875 -0.5235  0.0483
    2CHL1    C6   83   0.374   1.421   9.819  0.1105  0.2204 -0.6200
    2CHL1    H6   84   0.355   1.495   9.898  0.7695 -0.8607  0.5694
    2CHL1    C7   85   0.381   1.478   9.676  0.6048 -0.0781  0.0741
    2CHL1   H7A   86   0.300   1.551   9.653 -0.5196 -0.7737  1.5914
    2CHL1   H7B   87   0.479   1.528   9.663  0.0959  0.8199 -0.4077
    2CHL1    C8   88   0.377   1.362   9.568  0.0991  0.1488  0.2038
    2CHL1    H8   89   0.271   1.336   9.549  0.0886  0.7817 -0.6977
    2CHL1   C14   90   0.444   1.406   9.430  1.9348  0.4446 -0.1045
    2CHL1   H14   91   0.551   1.415   9.455  1.6708 -1.5582  2.1157
    2CHL1   C15   92   0.389   1.537   9.371 -0.0306 -0.4078 -0.2111
    2CHL1  H15A   93   0.278   1.547   9.379  0.1065  0.2128  1.2587
    2CHL1  H15B   94   0.433   1.629   9.416  2.0316 -0.8741 -1.1620
    2CHL1   C16   95   0.432   1.534   9.225  0.0061  0.0354  0.2140
    2CHL1  H16A   96   0.349   1.555   9.155 -0.7447 -1.5979  0.5782
    2CHL1  H16B   97   0.515   1.606   9.206 -0.7275  1.2920  1.5620
    2CHL1   C17   98   0.486   1.389   9.202 -0.6474  0.8567  0.3297
    2CHL1   H17   99   0.593   1.408   9.225 -0.5270  0.4504  0.1114
    2CHL1   C13  100   0.432   1.302   9.317 -0.1320 -0.0864  0.4828
    2CHL1   C18  101   0.288   1.264   9.291  0.0106 -0.6381  0.2854
    2CHL1  H18A  102   0.243   1.355   9.245  0.3423 -1.0187 -0.8264
    2CHL1  H18B  103   0.280   1.181   9.217  0.5565 -0.5871  0.1659
    2CHL1  H18C  104   0.222   1.238   9.376 -0.4062 -0.8081 -0.0826
    2CHL1   C12  105   0.514   1.185   9.358 -0.5680  0.1428  0.6139
    2CHL1  H12A  106   0.507   1.105   9.281  0.4188  0.6013  0.0433
    2CHL1  H12B  107   0.619   1.220   9.366 -1.0883  1.7617  0.6637
    2CHL1   C11  108   0.482   1.132   9.500  0.0978  0.1769  0.1719
    2CHL1  H11A  109   0.387   1.075   9.494 -0.7658  1.4514  1.2861
    2CHL1  H11B  110   0.561   1.058   9.525 -0.8779 -2.2195 -3.0775
    2CHL1    C9  111   0.458   1.240   9.615 -0.4481 -0.4031  0.2638
    2CHL1    H9  112   0.558   1.286   9.631 -0.0118  0.1322 -3.1119
    2CHL1   C10  113   0.401   1.183   9.746  0.3613  0.3825  0.0987
    2CHL1   C19  114   0.262   1.110   9.717  0.0741 -0.2184 -0.1790
    2CHL1  H19A  115   0.187   1.093   9.797 -0.6265 -1.1487 -1.0072
    2CHL1  H19B  116   0.203   1.180   9.654  0.6647  1.9838  1.5590
    2CHL1  H19C  117   0.278   1.013   9.666  1.7030  1.1315 -2.4541
    2CHL1    C1  118   0.504   1.082   9.796  0.2337 -0.4721  0.1949
    2CHL1   H1A  119   0.524   0.993   9.732 -0.7358  0.0218 -0.8240
    2CHL1   H1B  120   0.602   1.134   9.802 -0.3280  0.5223  1.1218
    2CHL1    C2  121   0.468   1.035   9.939 -0.1345 -0.1535 -0.5716
    2CHL1   H2A  122   0.544   0.963   9.978  0.3483  0.7059  0.0978
    2CHL1   H2B  123   0.374   0.977   9.954 -0.4922 -0.1779 -2.5710
    2CHL1   C20  124   0.476   1.328   9.052 -0.1088 -0.4832 -0.2488
    2CHL1   H20  125   0.370   1.336   9.021  0.0635 -1.4770 -1.1490
    2CHL1   C21  126   0.504   1.179   9.045 -0.2342 -0.8514 -0.0607
    2CHL1  H21A  127   0.421   1.121   9.091 -0.3626 -0.2703  0.4509
    2CHL1  H21B  128   0.602   1.167   9.096 -0.5017  0.9160  0.9408
    2CHL1  H21C  129   0.519   1.157   8.938 -1.9288  1.2721 -0.7967
    2CHL1   C22  130   0.569   1.415   8.962  0.0100  0.5217 -0.1986
    2CHL1  H22A  131   0.537   1.519   8.982 -2.1283 -0.0029 -0.6717
    2CHL1  H22B  132   0.676   1.412   8.991 -0.1482 -0.8711  0.3210
    2CHL1   C23  133   0.573   1.386   8.812  0.1739  0.2269  0.3444
    2CHL1  H23A  134   0.615   1.473   8.757 -0.1155 -0.4607 -0.9890
    2CHL1  H23B  135   0.647   1.304   8.797  0.2111 -0.0613  1.9089
    2CHL1   C24  136   0.435   1.375   8.753  0.1707  0.3524  0.3836
    2CHL1  H24A  137   0.390   1.274   8.767 -2.6218  1.3011 -0.9787
    2CHL1  H24B  138   0.367   1.449   8.800 -0.1132 -0.6120  1.5373
    2CHL1   C25  139   0.403   1.391   8.603 -0.0763  0.3197 -0.0300
    2CHL1   H25  140   0.293   1.391   8.594 -0.2362 -0.3596  1.6435
    2CHL1   C26  141   0.446   1.530   8.538 -0.2226 -0.3314 -0.5573
    2CHL1  H26A  142   0.396   1.617   8.586 -1.2555  0.0497 -2.2429
    2CHL1  H26B  143   0.556   1.542   8.541 -0.3555  1.1494 -0.8647
    2CHL1  H26C  144   0.423   1.539   8.430  2.8419 -0.1734 -1.2863
    2CHL1   C27  145   0.467   1.278   8.520  0.5610 -0.6808 -0.7024
    2CHL1  H27A  146   0.462   1.294   8.410 -2.3330  2.6564 -0.2598
    2CHL1  H27B  147   0.577   1.278   8.537  0.1997 -2.8588  2.5528
    2CHL1  H27C  148   0.435   1.178   8.554 -3.2961  0.8000  0.5742
    3CHL1    C3  149   2.334   0.953  10.164  0.2103  0.7951 -0.0025
    3CHL1    H3  150   2.336   1.063  10.177 -0.0935  0.6132  1.7419
    3CHL1    O3  151   2.315   0.885  10.285 -0.2029 -0.0505 -0.8367
    3CHL1   H3'  152   2.303   0.792  10.264  0.4754 -1.0795  2.7104
    3CHL1    C4  153   2.220   0.921  10.062 -0.1115  0.1306 -0.0101
    3CHL1   H4A  154   2.193   0.814  10.066 -0.9635  0.3332 -0.1252
    3CHL1   H4B  155   2.131   0.976  10.101  0.1407  1.1994 -0.8950
    3CHL1    C5  156   2.229   0.951   9.917  0.3564 -0.5626 -0.4402
    3CHL1    C6  157   2.134   1.022   9.855  0.4280  0.2776 -0.4017
    3CHL1    H6  158   2.046   1.064   9.906  1.4123  4.4258 -1.7289
    3CHL1    C7  159   2.139   1.053   9.712 -0.2052  0.4093  0.3244
    3CHL1   H7A  160   2.048   1.027   9.654 -0.4452  2.8241 -0.5222
    3CHL1   H7B  161   2.152   1.164   9.709  0.3098  0.4135  1.8710
    3CHL1    C8  162   2.263   0.983   9.639  0.3090 -0.3209 -0.4417
    3CHL1    H8  163   2.224   0.880   9.626  1.1771 -1.1115  2.5321
    3CHL1   C14  164   2.290   1.047   9.510  0.0258 -0.8709  0.5914
    3CHL1   H14  165   2.317   1.152   9.536 -1.2286 -0.8331  1.8642
    3CHL1   C15  166   2.178   1.065   9.408 -0.2151 -0.1911 -0.1897
    3CHL1  H15A  167   2.138   0.964   9.385 -0.2406 -0.4327  0.8440
    3CHL1  H15B  168   2.094   1.125   9.449 -1.7811  0.0349 -3.4406
    3CHL1   C16  169   2.241   1.108   9.282 -0.1933  0.3585  0.1481
    3CHL1  H16A  170   2.204   1.040   9.202 -1.5516  1.4535 -0.1781
    3CHL1  H16B  171   2.217   1.211   9.248  0.2535  0.8382  1.2381
    3CHL1   C17  172   2.396   1.073   9.305  0.8877  0.2019 -0.3228
    3CHL1   H17  173   2.434   1.171   9.338 -2.0555  1.7960 -1.2287
    3CHL1   C13  174   2.409   0.986   9.434  0.1924 -0.5650 -0.1066
    3CHL1   C18  175   2.384   0.840   9.400 -0.4275 -0.0957  0.2667
    3CHL1  H18A  176   2.297   0.820   9.334  0.1741  1.6035 -1.1022
    3CHL1  H18B  177   2.470   0.791   9.349  0.2452 -2.4430  3.3454
    3CHL1  H18C  178   2.362   0.785   9.494 -0.7957  0.3179  0.4244
    3CHL1   C12  179   2.533   1.007   9.511 -0.3078  0.1006  0.0851
    3CHL1  H12A  180   2.615   0.952   9.461  0.2072  0.7687  0.1847
    3CHL1  H12B  181   2.561   1.114   9.525 -0.0843 -0.0449  0.7735
    3CHL1   C11  182   2.517   0.950   9.654 -0.4447  0.1818 -0.4547
    3CHL1  H11A  183   2.509   0.839   9.643 -4.2601  0.1568  1.1956
    3CHL1  H11B  184   2.615   0.969   9.703 -0.0032  0.9212 -1.5837
    3CHL1    C9  185   2.388   0.986   9.727 -0.5089 -0.2199 -0.5113
    3CHL1    H9  186   2.411   1.091   9.755  2.3412 -0.4219 -1.8181
    3CHL1   C10  187   2.366   0.910   9.862  0.7333 -0.6458 -0.6172
    3CHL1   C19  188   2.361   0.759   9.836 -0.3702  0.3305 -0.0996
    3CHL1  H19A  189   2.340   0.704   9.930 -0.3629 -2.0929 -1.4191
    3CHL1  H19B  190   2.286   0.734   9.757  0.0461 -2.1135  0.1939
    3CHL1  H19C  191   2.463   0.729   9.804  0.0738 -0.4670  1.8948
    3CHL1    C1  192   2.483   0.944   9.963  0.1642 -0.0965  0.6745
    3CHL1   H1A  193   2.581   0.909   9.926  0.1722  0.8591 -0.2736
    3CHL1   H1B  194   2.497   1.054   9.951 -0.9565 -0.1044 -1.0576
    3CHL1    C2  195   2.466   0.903  10.105  0.5387  0.2809 -0.5522
    3CHL1   H2A  196   2.543   0.950  10.168 -2.3355  2.1972  1.7576
    3CHL1   H2B  197   2.486   0.793  10.102 -0.5283  0.0895 -1.4262
    3CHL1   C20  198   2.486   1.027   9.187 -0.8735 -0.2293  0.5356
    3CHL1   H20  199   2.579   0.980   9.225  0.1535  1.1533 -0.1728
    3CHL1   C21  200   2.522   1.165   9.124 -0.0302 -0.2471  0.2792
    3CHL1  H21A  201   2.440   1.200   9.058 -1.0821 -0.0385  1.6567
    3CHL1  H21B  202   2.611   1.145   9.060  0.6204  1.7286  0.4935
    3CHL1  H21C  203   2.549   1.242   9.199  1.0886  2.2067 -2.4154
    3CHL1   C22  204   2.417   0.937   9.077  0.2156  0.0171  0.2869
    3CHL1  H22A  205   2.370   0.857   9.139 -1.4592  2.6998  2.7224
    3CHL1  H22B  206   2.334   0.997   9.035  0.6020  0.2458 -0.1610
    3CHL1   C23  207   2.521   0.898   8.961 -0.0460 -0.1861 -0.9376
    3CHL1  H23A  208   2.538   0.996   8.912 -0.7068 -0.0995 -1.0085
    3CHL1  H23B  209   2.615   0.864   9.008 -0.3635 -0.5225 -0.5351
    3CHL1   C24  210   2.458   0.792   8.867 -0.4818  0.5758  0.3089
    3CHL1  H24A  211   2.458   0.704   8.934 -1.3781  0.3124 -0.0256
    3CHL1  H24B  212   2.357   0.817   8.827  0.1070  0.0046 -1.6376
    3CHL1   C25  213   2.544   0.759   8.738 -0.2319  0.7105 -1.4602
    3CHL1   H25  214   2.647   0.757   8.780 -0.8329  0.4313  0.0911
    3CHL1   C26  215   2.503   0.623   8.689  0.1024 -0.9389 -0.8365
    3CHL1  H26A  216   2.537   0.545   8.760  1.1291  0.6145  0.4416
    3CHL1  H26B  217   2.394   0.604   8.683 -0.2509 -1.0946  3.3025
    3CHL1  H26C  218   2.558   0.590   8.598  1.3947 -2.6514  0.4767
    3CHL1   C27  219   2.528   0.868   8.632  0.2236  0.6030  0.4416
    3CHL1  H27A  220   2.427   0.860   8.587  0.4421 -2.7416  0.3325
    3CHL1  H27B  221   2.557   0.967   8.674  1.3263  0.8801 -0.9159
    3CHL1  H27C  222   2.599   0.848   8.549 -0.7014 -1.3640  0.0866
    4CHL1    C3  223   6.767   3.134  10.634  0.4145 -0.1538 -0.2265
    4CHL1    H3  224   6.874   3.113  10.611  1.1637  1.4118  1.4806
    4CHL1    O3  225   6.750   3.102  10.771  0.4752  0.0020 -0.5774
    4CHL1   H3'  226   6.662   3.139  10.784  0.7940  0.9099 -0.8800
    4CHL1    C4  227   6.739   3.282  10.617  0.1224 -0.3650 -0.7689
    4CHL1   H4A  228   6.643   3.321  10.658  1.9703  2.8275  0.8994
    4CHL1   H4B  229   6.812   3.343  10.673 -0.6246 -1.0937  1.0834
    4CHL1    C5  230   6.738   3.322  10.470  0.2832  0.0086  0.1190
    4CHL1    C6  231   6.820   3.421  10.430 -0.6130  0.1793 -0.1643
    4CHL1    H6  232   6.898   3.456  10.500 -0.9780  1.7138 -0.4882
    4CHL1    C7  233   6.811   3.492  10.298  0.2242 -0.4525  0.5503
    4CHL1   H7A  234   6.798   3.602  10.310  0.2986 -0.3928  0.1340
    4CHL1   H7B  235   6.904   3.478  10.239 -0.5531 -1.9997 -0.3756
    4CHL1    C8  236   6.691   3.423  10.219  0.1225  0.1899 -0.2843
    4CHL1    H8  237   6.603   3.480  10.256  0.2917  0.6950 -0.6462
    4CHL1   C14  238   6.719   3.451  10.075 -0.2051  0.2453  0.5941
    4CHL1   H14  239   6.810   3.391  10.055  1.3867  2.1655  1.7488
    4CHL1   C15  240   6.760   3.594  10.026  0.4840 -0.1225  0.1396
    4CHL1  H15A  241   6.684   3.665  10.065  0.9416 -0.5787  1.9644
    4CHL1  H15B  242   6.864   3.622  10.053  0.1035  3.2420 -1.4138
    4CHL1   C16  243   6.735   3.597   9.874 -0.0134  0.7928  0.0062
    4CHL1  H16A  244   6.668   3.683   9.851 -2.5615 -1.1001 -0.1968
    4CHL1  H16B  245   6.832   3.604   9.821  0.5641 -0.0945  0.8954
    4CHL1   C17  246   6.669   3.462   9.840 -0.2158 -0.8665 -0.0922
    4CHL1   H17  247   6.749   3.389   9.818 -1.1236 -1.4638 -1.5765
    4CHL1   C13  248   6.614   3.408   9.977 -0.5842  0.5766  0.0799
    4CHL1   C18  249   6.488   3.485   9.999 -0.1242  0.3409 -0.0789
    4CHL1  H18A  250   6.451   3.449  10.097  1.4394 -0.4908  0.2472
    4CHL1  H18B  251   6.500   3.595  10.001  0.0410  0.4970 -3.7279
    4CHL1  H18C  252   6.418   3.452   9.919  1.1117 -0.4559 -0.8697
    4CHL1   C12  253   6.604   3.257   9.990 -0.3877  0.7052 -0.4094
    4CHL1  H12A  254   6.524   3.215   9.925 -0.9410  1.4001 -0.1933
    4CHL1  H12B  255   6.697   3.201   9.966 -1.2994 -1.1019  0.0702
    4CHL1   C11  256   6.565   3.222  10.138  0.3086 -0.0841  0.1900
    4CHL1  H11A  257   6.458   3.249  10.154 -0.3003 -0.4701 -2.6961
    4CHL1  H11B  258   6.569   3.112  10.153 -1.0630 -0.3179 -0.9296
    4CHL1    C9  259   6.669   3.271  10.241  0.0688 -0.2889  0.4276
    4CHL1    H9  260   6.766   3.236  10.202 -0.0405  1.8001 -1.9824
    4CHL1   C10  261   6.637   3.233  10.384  0.5925 -0.1195  0.1634
    4CHL1   C19  262   6.496   3.267  10.424  0.0972 -0.3821  0.4006
    4CHL1  H19A  263   6.425   3.188  10.391  2.2123 -1.6755 -1.2725
    4CHL1  H19B  264   6.493   3.270  10.535  3.0143 -1.8410  0.6056
    4CHL1  H19C  265   6.463   3.367  10.387  0.6558 -0.6862 -0.9665
    4CHL1    C1  266   6.669   3.082  10.414  0.1616  0.1932 -0.1900
    4CHL1   H1A  267   6.589   3.024  10.364  0.5169 -1.9511  1.5826
    4CHL1   H1B  268   6.771   3.059  10.378  0.5930 -0.1651  1.2098
    4CHL1    C2  269   6.672   3.041  10.558  0.7946  0.0809 -0.1581
    4CHL1   H2A  270   6.702   2.934  10.558 -1.6928 -0.6984  0.8180
    4CHL1   H2B  271   6.568   3.038  10.598 -0.0364 -0.6703 -2.2343
    4CHL1   C20  272   6.582   3.464   9.708  0.0487 -0.6567  0.5573
    4CHL1   H20  273   6.492   3.528   9.717  0.1869 -0.4011  0.1608
    4CHL1   C21  274   6.514   3.327   9.668  0.2059 -0.4782 -0.3807
    4CHL1  H21A  275   6.465   3.346   9.570  0.1966  2.1549  0.0535
    4CHL1  H21B  276   6.437   3.292   9.740 -0.0652 -2.4117 -1.5313
    4CHL1  H21C  277   6.591   3.248   9.658  0.0571 -0.7073  0.2270
    4CHL1   C22  278   6.673   3.523   9.592  0.6940 -0.1141  0.4608
    4CHL1  H22A  279   6.731   3.607   9.635  0.1519 -0.4360  1.8616
    4CHL1  H22B  280   6.747   3.454   9.545 -0.6543  0.3252 -2.5359
    4CHL1   C23  281   6.579   3.561   9.475 -0.0004 -0.1617  0.4133
    4CHL1  H23A  282   6.538   3.472   9.423  4.0539 -0.9042 -1.9734
    4CHL1  H23B  283   6.487   3.611   9.512  0.1636 -1.1935  2.3566
    4CHL1   C24  284   6.641   3.643   9.362 -0.2693  0.1775  0.4241
    4CHL1  H24A  285   6.681   3.737   9.405 -0.9327  0.5904  0.1548
    4CHL1  H24B  286   6.716   3.580   9.309 -1.6316 -1.2319  0.0855
    4CHL1   C25  287   6.543   3.663   9.247 -0.3241 -0.2483 -0.4817
    4CHL1   H25  288   6.512   3.571   9.193 -2.8011 -0.2099  0.7085
    4CHL1   C26  289   6.418   3.732   9.290 -0.0687 -0.5461 -0.3704
    4CHL1  H26A  290   6.345   3.671   9.348 -0.8524  0.6394 -0.0702
    4CHL1  H26B  291   6.451   3.825   9.341  0.4473  1.7547 -4.4510
    4CHL1  H26C  292   6.369   3.767   9.197  1.5811 -1.0604 -1.4712
    4CHL1   C27  293   6.613   3.751   9.149 -0.1735  0.0487  0.6157
    4CHL1  H27A  294   6.554   3.764   9.056 -0.3975  1.1698  0.9037
    4CHL1  H27B  295   6.655   3.843   9.194 -1.4156  1.1795 -0.4468
    4CHL1  H27C  296   6.696   3.685   9.115  0.3555  0.3102  1.3795
    5CHL1    C3  297   1.846   1.072  10.182 -0.0419 -0.4988 -0.7344
    5CHL1    H3  298   1.943   1.051  10.132  0.1167  0.6799 -0.9467
    5CHL1    O3  299   1.854   1.055  10.323 -0.7085 -0.3256  0.2021
    5CHL1   H3'  300   1.765   1.068  10.356 -1.0822  0.7625 -1.1440
    5CHL1    C4  301   1.801   1.215  10.148 -0.0805 -0.5198 -0.1045
    5CHL1   H4A  302   1.698   1.245  10.179 -0.4809  0.8501 -2.4498
    5CHL1   H4B  303   1.855   1.297  10.199 -0.8085 -0.3619  0.4257
    5CHL1    C5  304   1.803   1.235   9.998 -0.4525 -0.3798 -0.7233
    5CHL1    C6  305   1.893   1.322   9.943 -0.1223  0.0268 -0.0689
    5CHL1    H6  306   1.966   1.377  10.005 -1.2485 -0.2918  1.6151
    5CHL1    C7  307   1.898   1.367   9.798  0.3210 -0.0746 -0.6585
    5CHL1   H7A  308   1.885   1.477   9.798  0.3316  0.0206  2.5133
    5CHL1   H7B  309   2.002   1.345   9.763  0.7696  2.3725 -1.0315
    5CHL1    C8  310   1.790   1.297   9.714  0.6758  0.1918 -0.4437
    5CHL1    H8  311   1.694   1.351   9.720  0.6073  0.0444 -0.2275
    5CHL1   C14  312   1.829   1.302   9.563 -0.1477  0.0442 -0.4867
    5CHL1   H14  313   1.922   1.240   9.561 -0.3866 -0.3008 -1.5023
    5CHL1   C15  314   1.870   1.442   9.507 -0.4940  0.3460  0.0211
    5CHL1  H15A  315   1.791   1.509   9.546  1.5670  2.4991  0.6863
    5CHL1  H15B  316   1.972   1.475   9.535 -0.3649 -1.0262  1.3307
    5CHL1   C16  317   1.851   1.409   9.357 -0.5574  0.5200 -0.5967
    5CHL1  H16A  318   1.772   1.475   9.315 -0.8360 -1.1122 -2.8273
    5CHL1  H16B  319   1.951   1.426   9.312 -0.0495 -0.6618  0.0472
    5CHL1   C17  320   1.793   1.265   9.338  0.3043 -0.3629  0.3584
    5CHL1   H17  321   1.879   1.196   9.322 -0.2920 -0.7587 -1.2895
    5CHL1   C13  322   1.724   1.238   9.470  0.6341  0.1201  0.0492
    5CHL1   C18  323   1.589   1.323   9.481  0.6354  0.1437 -0.4422
    5CHL1  H18A  324   1.511   1.269   9.422 -0.7923  1.5316  0.1154
    5CHL1  H18B  325   1.543   1.326   9.582  1.6975  1.5701  0.0331
    5CHL1  H18C  326   1.603   1.427   9.444  4.3617 -0.4478 -1.0833
    5CHL1   C12  327   1.678   1.092   9.513  0.4590 -0.9674 -0.0662
    5CHL1  H12A  328   1.582   1.070   9.461 -0.1405 -1.6530  1.2738
    5CHL1  H12B  329   1.749   1.018   9.472  1.0247 -0.9202  0.7982
    5CHL1   C11  330   1.648   1.084   9.662  0.5533  0.0944  0.0117
    5CHL1  H11A  331   1.551   1.138   9.672  0.3617  0.0239 -1.2625
    5CHL1  H11B  332   1.640   0.977   9.691 -1.2809  0.4664  1.0479
    5CHL1    C9  333   1.752   1.155   9.759 -0.6009 -0.3017  0.6837
    5CHL1    H9  334   1.850   1.109   9.736 -0.7143  0.2315 -0.9531
    5CHL1   C10  335   1.714   1.145   9.913 -0.7482  0.0848 -0.3210
    5CHL1   C19  336   1.561   1.183   9.930 -0.9852 -0.1242  0.5517
    5CHL1  H19A  337   1.554   1.281   9.879 -3.1384 -0.1786  0.6614
    5CHL1  H19B  338   1.500   1.107   9.878 -1.4730  0.1629  0.6989
    5CHL1  H19C  339   1.525   1.192  10.035 -0.2200 -1.0376  0.9126
    5CHL1    C1  340   1.747   0.998   9.958  0.7560  0.3043 -0.5573
    5CHL1   H1A  341   1.669   0.929   9.920  2.0451 -0.7248 -1.4054
    5CHL1   H1B  342   1.847   0.963   9.926  0.1257 -0.3658 -1.8891
    5CHL1    C2  343   1.747   0.986  10.109  0.4258 -0.1258  0.2175
    5CHL1   H2A  344   1.761   0.877  10.127 -3.4876 -1.0822 -1.6244
    5CHL1   H2B  345   1.646   1.019  10.143  0.7219  2.2118 -1.0038
    5CHL1   C20  346   1.716   1.262   9.206 -0.0248 -1.0065 -0.7883
    5CHL1   H20  347   1.632   1.333   9.213  0.1364 -0.7900 -1.0238
    5CHL1   C21  348   1.651   1.124   9.185 -0.0219  0.4064 -0.3950
    5CHL1  H21A  349   1.715   1.033   9.187 -0.0971  0.2752 -2.3310
    5CHL1  H21B  350   1.596   1.125   9.088 -0.3334  2.3478 -0.2441
    5CHL1  H21C  351   1.572   1.097   9.257  1.4433  1.3815  1.6761
    5CHL1   C22  352   1.809   1.303   9.091  0.0798 -0.1480 -0.0779
    5CHL1  H22A  353   1.746   1.302   8.999  1.6694 -0.0438 -1.2271
    5CHL1  H22B  354   1.839   1.410   9.094  0.6556 -0.3306  1.0374
    5CHL1   C23  355   1.930   1.215   9.059  0.4137 -0.2086 -0.2257
    5CHL1  H23A  356   1.994   1.207   9.150  0.2927  0.9905 -0.0155
    5CHL1  H23B  357   1.895   1.110   9.048  0.1082 -0.5821  3.0966
    5CHL1   C24  358   2.016   1.269   8.946  0.2794  0.3004 -0.0797
    5CHL1  H24A  359   1.964   1.267   8.848 -0.1370 -0.5670  0.1493
    5CHL1  H24B  360   2.043   1.373   8.971  0.4615  0.5570 -1.2727
    5CHL1   C25  361   2.147   1.186   8.923 -0.2982  0.6052  0.0765
    5CHL1   H25  362   2.196   1.159   9.019 -1.6584 -2.8197 -0.0483
    5CHL1   C26  363   2.108   1.057   8.847  0.1340  0.0118  0.7327
    5CHL1  H26A  364   2.056   1.081   8.751  0.3723 -0.9890  0.3380
    5CHL1  H26B  365   2.204   1.006   8.823  1.8051  2.3543  2.0656
    5CHL1  H26C  366   2.032   0.997   8.902 -2.0288  1.6273 -0.3506
    5CHL1   C27  367   2.231   1.270   8.835 -0.7202  0.5800 -0.0859
    5CHL1  H27A  368   2.165   1.305   8.753 -0.2647  0.7418 -0.3951
    5CHL1  H27B  369   2.278   1.351   8.895 -0.5968 -0.6798  1.5696
    5CHL1  H27C  370   2.308   1.208   8.785  0.3365  0.2156  1.8962
    6CHL1    C3  371   5.590   5.971  10.575  0.6337 -0.0603 -0.4438
    6CHL1    H3  372   5.540   6.060  10.533  0.6712  1.5757  2.6667
    6CHL1    O3  373   5.596   5.983  10.711 -0.6926 -0.4404 -0.5837
    6CHL1   H3'  374   5.654   6.058  10.726 -0.5352 -0.9777  2.1515
    6CHL1    C4  375   5.512   5.844  10.547  0.0969 -0.3402 -0.1407
    6CHL1   H4A  376   5.565   5.765  10.603  0.6203 -1.6153 -2.3330
    6CHL1   H4B  377   5.411   5.856  10.592  1.3290  1.4019  2.3929
    6CHL1    C5  378   5.497   5.811  10.403 -0.3163 -0.4437 -0.0542
    6CHL1    C6  379   5.382   5.811  10.336 -0.1472 -0.1524  0.1907
    6CHL1    H6  380   5.288   5.836  10.389 -0.4141 -1.3990  0.3211
    6CHL1    C7  381   5.369   5.765  10.197 -0.5995 -0.1841 -0.1046
    6CHL1   H7A  382   5.272   5.712  10.183 -0.6331  0.2269 -1.5992
    6CHL1   H7B  383   5.345   5.853  10.134 -0.1397  0.5827  0.7780
    6CHL1    C8  384   5.493   5.708  10.139 -0.3662  0.3999  0.4061
    6CHL1    H8  385   5.493   5.601  10.170 -1.0759  0.6247  1.2248
    6CHL1   C14  386   5.477   5.719   9.983 -0.1918  0.2219 -0.3799
    6CHL1   H14  387   5.461   5.827   9.965 -0.3998  0.1868 -0.4010
    6CHL1   C15  388   5.348   5.653   9.920  0.3949 -0.4268  0.2627
    6CHL1  H15A  389   5.346   5.549   9.958  2.3224 -1.3424 -1.9465
    6CHL1  H15B  390   5.251   5.705   9.933  2.0002  3.0786 -0.6728
    6CHL1   C16  391   5.375   5.653   9.771 -0.5984 -0.2828 -0.7579
    6CHL1  H16A  392   5.363   5.545   9.747  0.9369 -0.5760 -0.3489
    6CHL1  H16B  393   5.309   5.728   9.724  1.1181  2.4915  1.0058
    6CHL1   C17  394   5.531   5.690   9.756 -0.5651  0.2346 -0.0754
    6CHL1   H17  395   5.530   5.798   9.731  0.0073  0.3128  0.2123
    6CHL1   C13  396   5.593   5.680   9.899  0.3202  0.4266 -0.7296
    6CHL1   C18  397   5.635   5.533   9.916  0.3680  0.4028  0.5136
    6CHL1  H18A  398   5.709   5.497   9.842 -0.4761 -2.1303  0.8058
    6CHL1  H18B  399   5.667   5.511  10.020 -0.7258 -1.7606  0.4390
    6CHL1  H18C  400   5.543   5.471   9.910  0.4809  0.2850 -0.0429
    6CHL1   C12  401   5.717   5.772   9.938 -0.0282 -0.3000 -0.1870
    6CHL1  H12A  402   5.806   5.733   9.884 -2.1663 -3.4583 -1.6877
    6CHL1  H12B  403   5.686   5.875   9.909 -1.5827 -0.7632 -0.2248
    6CHL1   C11  404   5.748   5.754  10.093 -0.4545  0.1250 -0.2385
    6CHL1  H11A  405   5.799   5.656  10.104  1.8138  1.1418 -1.1211
    6CHL1  H11B  406   5.826   5.829  10.117 -0.7286  1.0074 -1.9389
    6CHL1    C9  407   5.618   5.783  10.179 -0.5459 -0.1526 -0.5017
    6CHL1    H9  408   5.597   5.889  10.150 -2.0543 -0.3794 -0.3347
    6CHL1   C10  409   5.639   5.794  10.335 -0.0552 -0.6724  0.8442
    6CHL1   C19  410   5.710   5.661  10.376  0.2902 -0.4100  0.3195
    6CHL1  H19A  411   5.799   5.641  10.313  0.2008  1.4001 -0.4644
    6CHL1  H19B  412   5.732   5.682  10.483 -3.3354  1.3820  0.8513
    6CHL1  H19C  413   5.641   5.575  10.367 -0.0663 -0.0817 -0.0801
    6CHL1    C1  414   5.724   5.915  10.369 -0.8953  0.1656 -0.0735
    6CHL1   H1A  415   5.825   5.910  10.324 -1.1468  1.1607 -0.7696
    6CHL1   H1B  416   5.667   5.992  10.313  0.4285  0.9398 -0.4113
    6CHL1    C2  417   5.730   5.954  10.522 -0.7689 -0.9473  1.2543
    6CHL1   H2A  418   5.792   6.043  10.549  1.0559 -2.0303  0.8234
    6CHL1   H2B  419   5.786   5.878  10.581 -1.3047 -0.5014  2.3686
    6CHL1   C20  420   5.584   5.619   9.636 -0.7810 -0.3408 -0.0154
    6CHL1   H20  421   5.598   5.509   9.642  2.4489 -0.1111 -1.3843
    6CHL1   C21  422   5.733   5.681   9.614 -0.0395  0.5157  0.6325
    6CHL1  H21A  423   5.796   5.637   9.695  1.1575  1.8067  0.4389
    6CHL1  H21B  424   5.724   5.791   9.624  4.3315  1.0397  0.4084
    6CHL1  H21C  425   5.773   5.658   9.513  0.0698  0.8084  0.6079
    6CHL1   C22  426   5.498   5.659   9.509  0.2645  0.2825 -0.2983
    6CHL1  H22A  427   5.388   5.645   9.522  0.6412 -2.9817  0.1287
    6CHL1  H22B  428   5.518   5.769   9.505 -0.8412  0.5775  1.2457
    6CHL1   C23  429   5.534   5.588   9.383  0.2861  0.0342  1.1760
    6CHL1  H23A  430   5.629   5.623   9.337 -0.3504 -2.0567 -2.0647
    6CHL1  H23B  431   5.554   5.480   9.403  0.7542  0.1104  1.1281
    6CHL1   C24  432   5.426   5.589   9.273 -0.3524  0.3175 -0.0749
    6CHL1  H24A  433   5.326   5.572   9.319 -0.9278  0.1552 -1.3594
    6CHL1  H24B  434   5.416   5.692   9.233  0.9479  0.7983  0.7548
    6CHL1   C25  435   5.464   5.505   9.157 -0.9447 -0.7033 -0.4146
    6CHL1   H25  436   5.570   5.528   9.132 -0.9116 -0.2343  0.1407
    6CHL1   C26  437   5.455   5.352   9.181  0.0512  0.7251  0.2134
    6CHL1  H26A  438   5.355   5.314   9.210  1.2594 -2.6946  0.3634
    6CHL1  H26B  439   5.481   5.300   9.087  1.1464  1.2486  0.2151
    6CHL1  H26C  440   5.533   5.316   9.251  1.3979  1.1769 -1.0168
    6CHL1   C27  441   5.369   5.534   9.036 -0.7026 -0.3822  0.7904
    6CHL1  H27A  442   5.273   5.484   9.060 -1.3912 -0.3217 -1.6066
    6CHL1  H27B  443   5.361   5.642   9.011  0.4986 -0.1855  1.1713
    6CHL1  H27C  444   5.406   5.476   8.949  0.4312  1.1030  0.2386
    7CHL1    C3  445   3.460   1.701  10.470  0.1107  0.1355 -0.3885
    7CHL1    H3  446   3.532   1.617  10.467  1.0844  0.8710  1.3858
    7CHL1    O3  447   3.452   1.747  10.604 -0.7002  0.1573 -0.1652
    7CHL1   H3'  448   3.372   1.799  10.613 -0.9032 -0.2533  0.5482
    7CHL1    C4  449   3.498   1.819  10.375  0.1024 -0.7164 -0.3747
    7CHL1   H4A  450   3.415   1.889  10.399 -0.6237 -1.3552 -0.9655
    7CHL1   H4B  451   3.589   1.868  10.415 -1.6778  1.1583  1.6746
    7CHL1    C5  452   3.489   1.787  10.227  0.2855  0.4897  0.4475
    7CHL1    C6  453   3.591   1.818  10.144 -0.1641 -0.3317 -0.4259
    7CHL1    H6  454   3.679   1.872  10.181  0.2716 -0.0849 -1.7855
    7CHL1    C7  455   3.597   1.801   9.992 -0.0168  0.2712  0.1065
    7CHL1   H7A  456   3.626   1.890   9.932  1.8240  0.1454  0.7588
    7CHL1   H7B  457   3.675   1.724   9.977  0.8140  1.0264  0.4585
    7CHL1    C8  458   3.464   1.740   9.933 -0.1744  0.0849  0.3998
    7CHL1    H8  459   3.390   1.823   9.932  0.4694  0.7358  2.1249
    7CHL1   C14  460   3.487   1.668   9.797 -0.0401 -1.1685 -1.0891
    7CHL1   H14  461   3.561   1.586   9.812  0.3664 -0.6815 -0.3643
    7CHL1   C15  462   3.558   1.752   9.682  0.7149  0.2128 -0.4699
    7CHL1  H15A  463   3.509   1.850   9.670 -1.0189 -0.5056  0.3645
    7CHL1  H15B  464   3.667   1.760   9.703  0.5689  0.3086  0.2691
    7CHL1   C16  465   3.524   1.664   9.555 -0.2977  0.2986 -0.3921
    7CHL1  H16A  466   3.477   1.724   9.474 -0.2147  0.6348 -0.1916
    7CHL1  H16B  467   3.616   1.615   9.516 -0.0235  0.4390  0.0672
    7CHL1   C17  468   3.416   1.557   9.602  0.3279 -0.7933  0.6859
    7CHL1   H17  469   3.483   1.472   9.627  2.9204  0.7475 -0.5666
    7CHL1   C13  470   3.366   1.606   9.737  0.6074  0.5223 -0.3550
    7CHL1   C18  471   3.256   1.719   9.720 -0.3130 -0.0420  1.1812
    7CHL1  H18A  472   3.170   1.678   9.662  0.3643 -0.7966  0.6806
    7CHL1  H18B  473   3.215   1.769   9.810 -1.2469  0.5049  0.4852
    7CHL1  H18C  474   3.296   1.805   9.662 -0.2816 -0.9962 -0.2698
    7CHL1   C12  475   3.312   1.500   9.834 -0.3163 -1.0467 -0.2086
    7CHL1  H12A  476   3.217   1.460   9.791 -2.4037  2.4117  0.7845
    7CHL1  H12B  477   3.395   1.426   9.838 -1.9564 -3.1855 -2.7065
    7CHL1   C11  478   3.286   1.554   9.972  0.1431  0.0235 -0.5833
    7CHL1  H11A  479   3.189   1.609   9.971 -0.5403 -1.1180  0.0880
    7CHL1  H11B  480   3.265   1.471  10.043 -0.6715  0.0320 -0.7932
    7CHL1    C9  481   3.408   1.643  10.032  0.2081  0.1015 -0.0464
    7CHL1    H9  482   3.475   1.556  10.053 -1.0903 -1.2607 -1.2824
    7CHL1   C10  483   3.367   1.706  10.175 -0.3981  0.2188 -0.2420
    7CHL1   C19  484   3.245   1.799  10.158 -0.0982  0.6172 -0.1426
    7CHL1  H19A  485   3.239   1.863  10.249 -2.6275  0.3452 -0.0427
    7CHL1  H19B  486   3.247   1.867  10.070  1.5656 -1.4999 -1.8221
    7CHL1  H19C  487   3.150   1.742  10.148 -0.4643  1.3059 -0.7288
    7CHL1    C1  488   3.335   1.596  10.279  0.3326  0.3129 -0.5412
    7CHL1   H1A  489   3.241   1.541  10.258 -0.2179  1.5419 -1.4099
    7CHL1   H1B  490   3.409   1.513  10.286  1.4963  1.2607 -1.0870
    7CHL1    C2  491   3.322   1.645  10.425 -0.3954  0.9848 -0.6711
    7CHL1   H2A  492   3.303   1.556  10.489 -4.1953  0.4357 -2.2908
    7CHL1   H2B  493   3.236   1.714  10.443  0.4307  1.8297  0.2109
    7CHL1   C20  494   3.317   1.532   9.486  0.7515 -0.2821 -0.1367
    7CHL1   H20  495   3.268   1.630   9.467 -1.2752 -1.3606 -0.7971
    7CHL1   C21  496   3.200   1.435   9.527 -0.1852 -0.1892  0.1161
    7CHL1  H21A  497   3.138   1.406   9.439 -0.3807  1.1269 -0.2073
    7CHL1  H21B  498   3.135   1.490   9.598 -0.3085  0.3930 -0.4391
    7CHL1  H21C  499   3.242   1.344   9.574  1.4907  1.3660  1.8124
    7CHL1   C22  500   3.378   1.479   9.351  0.1551  0.1025 -0.9323
    7CHL1  H22A  501   3.455   1.556   9.328 -2.1780  2.2050 -2.2063
    7CHL1  H22B  502   3.416   1.374   9.360 -0.6886 -0.1594 -0.2600
    7CHL1   C23  503   3.282   1.486   9.230 -1.3725 -0.9244  0.1403
    7CHL1  H23A  504   3.220   1.394   9.229 -0.9743 -1.1997 -1.2365
    7CHL1  H23B  505   3.227   1.582   9.227  0.3706  0.1348  0.4442
    7CHL1   C24  506   3.343   1.475   9.088  0.0341 -0.1825  0.0570
    7CHL1  H24A  507   3.418   1.557   9.089 -0.6336  0.4356  0.6765
    7CHL1  H24B  508   3.405   1.384   9.071  0.1163 -0.3613  1.2272
    7CHL1   C25  509   3.253   1.498   8.966  0.2849  0.3780 -1.0584
    7CHL1   H25  510   3.222   1.605   8.962 -1.3508 -0.0864 -1.7554
    7CHL1   C26  511   3.335   1.476   8.840 -0.1697  0.3111 -0.1097
    7CHL1  H26A  512   3.427   1.537   8.854  0.0546  0.1255 -0.7564
    7CHL1  H26B  513   3.365   1.371   8.822 -0.0962 -0.0370  1.7954
    7CHL1  H26C  514   3.293   1.507   8.742  2.4193 -0.8777 -1.6762
    7CHL1   C27  515   3.144   1.390   8.967  0.6523 -0.6722  0.1277
    7CHL1  H27A  516   3.079   1.394   8.877  0.7226 -1.0687  0.0578
    7CHL1  H27B  517   3.191   1.291   8.984  0.9148 -0.1403  2.9966
    7CHL1  H27C  518   3.070   1.404   9.049  1.0031  1.8320  0.0818
    8CHL1    C3  519   1.857   3.390  10.604 -0.5094 -0.6051  1.0527
    8CHL1    H3  520   1.916   3.464  10.547 -1.4149 -0.2112  0.5976
    8CHL1    O3  521   1.813   3.433  10.733 -0.2503 -0.1012  0.2148
    8CHL1   H3'  522   1.747   3.500  10.714 -1.9626 -1.5523  0.7539
    8CHL1    C4  523   1.721   3.377  10.524 -0.1006  0.0452  0.1353
    8CHL1   H4A  524   1.653   3.313  10.584  1.6839 -1.4896  0.6299
    8CHL1   H4B  525   1.669   3.474  10.508  0.4612  0.3119 -0.1008
    8CHL1    C5  526   1.738   3.313  10.384 -0.0802  0.7038  0.0104
    8CHL1    C6  527   1.700   3.381  10.273  0.2024 -0.3502 -0.4454
    8CHL1    H6  528   1.654   3.480  10.290  1.8893  0.3986 -0.0397
    8CHL1    C7  529   1.713   3.321  10.136  0.4607 -0.5189 -0.3572
    8CHL1   H7A  530   1.619   3.332  10.079  0.8626  3.2610 -0.5234
    8CHL1   H7B  531   1.796   3.366  10.077 -1.2441  2.2944 -0.7850
    8CHL1    C8  532   1.727   3.169  10.143 -0.8112 -0.0373  0.5089
    8CHL1    H8  533   1.635   3.120  10.179  0.6735 -2.0282  1.8275
    8CHL1   C14  534   1.778   3.124  10.002 -0.1762 -0.1206 -0.0190
    8CHL1   H14  535   1.878   3.170   9.984  1.3449 -2.7429  1.1616
    8CHL1   C15  536   1.686   3.159   9.876 -1.0317  0.6104 -0.4956
    8CHL1  H15A  537   1.583   3.138   9.909 -0.0033 -0.3400  2.3854
    8CHL1  H15B  538   1.689   3.265   9.843  0.7687  1.7529  2.8102
    8CHL1   C16  539   1.723   3.051   9.774  0.2245  0.3042 -1.2016
    8CHL1  H16A  540   1.634   2.991   9.744 -1.0684  0.8454  1.2720
    8CHL1  H16B  541   1.771   3.088   9.681  1.1464 -1.5191 -1.5000
    8CHL1   C17  542   1.825   2.955   9.847  0.2731  0.0730  0.5383
    8CHL1   H17  543   1.920   2.999   9.811 -0.9771  2.6347  0.1913
    8CHL1   C13  544   1.802   2.973   9.998  0.0998  0.0842  0.4537
    8CHL1   C18  545   1.677   2.886  10.043  0.0328  0.9986  0.0687
    8CHL1  H18A  546   1.630   2.930  10.134 -2.0811 -0.5872 -0.1747
    8CHL1  H18B  547   1.591   2.871   9.975 -0.4038  3.9591 -0.1881
    8CHL1  H18C  548   1.724   2.792  10.078  0.4911  2.1922  2.9635
    8CHL1   C12  549   1.925   2.956  10.082 -0.2958  0.3690  0.0604
    8CHL1  H12A  550   1.973   2.856  10.075  0.9285  0.8675  1.0426
    8CHL1  H12B  551   2.011   3.021  10.056 -0.6572  0.2085 -1.6734
    8CHL1   C11  552   1.892   2.987  10.229  0.4189 -0.0555  0.5459
    8CHL1  H11A  553   1.811   2.915  10.253 -1.0784  1.0008 -1.0438
    8CHL1  H11B  554   1.986   2.973  10.287  1.5676 -0.6883 -1.4006
    8CHL1    C9  555   1.842   3.129  10.247 -0.5374  0.0201  0.1255
    8CHL1    H9  556   1.922   3.195  10.208  0.3158 -1.2764 -0.3750
    8CHL1   C10  557   1.810   3.179  10.386 -0.6048 -0.8493 -0.9770
    8CHL1   C19  558   1.713   3.077  10.445 -0.0108  0.1657  0.1207
    8CHL1  H19A  559   1.673   3.118  10.540  0.5635 -0.6127  0.7143
    8CHL1  H19B  560   1.629   3.076  10.373  0.2961  2.5836 -0.3291
    8CHL1  H19C  561   1.772   2.983  10.456 -0.4424 -0.2436 -0.9700
    8CHL1    C1  562   1.951   3.190  10.472  0.1757  0.1167  0.6104
    8CHL1   H1A  563   2.011   3.097  10.474  0.8479  0.5396  0.5531
    8CHL1   H1B  564   2.010   3.264  10.413 -0.8264  2.0577  1.9313
    8CHL1    C2  565   1.925   3.251  10.612 -0.2656 -0.0128  0.8288
    8CHL1   H2A  566   2.025   3.256  10.659  0.2227 -0.6133 -0.1188
    8CHL1   H2B  567   1.867   3.182  10.678  0.5338 -0.9671  0.5627
    8CHL1   C20  568   1.813   2.812   9.793  0.3177 -0.1610 -0.2561
    8CHL1   H20  569   1.718   2.759   9.818  0.3495  0.5997  1.6522
    8CHL1   C21  570   1.923   2.716   9.852  0.5929  0.5604  0.1045
    8CHL1  H21A  571   2.024   2.761   9.845  1.0946 -0.5521 -0.1586
    8CHL1  H21B  572   1.920   2.623   9.791  0.0691  1.2603 -0.9637
    8CHL1  H21C  573   1.904   2.690   9.958 -1.0803  0.2962 -0.2279
    8CHL1   C22  574   1.808   2.809   9.636 -0.5331 -0.1357  0.2211
    8CHL1  H22A  575   1.779   2.704   9.613  1.5198 -0.7354  0.2174
    8CHL1  H22B  576   1.723   2.871   9.601 -0.5577  1.5803  2.9430
    8CHL1   C23  577   1.934   2.876   9.566 -0.4894  0.0650  0.2292
    8CHL1  H23A  578   1.937   2.985   9.590  0.3681 -0.2494  1.6489
    8CHL1  H23B  579   2.027   2.839   9.614 -0.7707  0.8127  1.3884
    8CHL1   C24  580   1.927   2.849   9.419 -0.7935  0.2574  0.1868
    8CHL1  H24A  581   1.919   2.741   9.398  1.1179  0.2431 -0.6708
    8CHL1  H24B  582   1.841   2.902   9.372 -1.1412  1.0883  1.7003
    8CHL1   C25  583   2.045   2.904   9.344 -0.3811  0.3589 -0.2232
    8CHL1   H25  584   2.057   3.013   9.359  1.7795  0.3110 -1.1818
    8CHL1   C26  585   2.169   2.826   9.385  0.4675  0.0533  0.4798
    8CHL1  H26A  586   2.148   2.717   9.393 -1.2306  0.4176  1.5489
    8CHL1  H26B  587   2.244   2.846   9.305  0.5560 -1.4209  0.1754
    8CHL1  H26C  588   2.212   2.854   9.484  1.2898 -0.8052  0.3778
    8CHL1   C27  589   2.027   2.883   9.195  0.4959 -0.3175 -0.3547
    8CHL1  H27A  590   1.990   2.780   9.179  0.1480 -0.0773 -1.1765
    8CHL1  H27B  591   1.939   2.941   9.159  0.3606  0.0353  0.5212
    8CHL1  H27C  592   2.112   2.907   9.128  0.6034  0.1570 -0.0526
    9CHL1    C3  593   5.403   6.333  10.273 -0.6054  0.1662  0.5237
    9CHL1    H3  594   5.305   6.384  10.261 -0.0983  1.1868  0.5611
    9CHL1    O3  595   5.444   6.325  10.409  0.1222 -0.3874 -0.0715
    9CHL1   H3'  596   5.537   6.304  10.410 -0.3558 -2.7738  0.4686
    9CHL1    C4  597   5.391   6.196  10.223  0.5420 -0.1255  0.0667
    9CHL1   H4A  598   5.463   6.124  10.267 -1.1882 -2.1170 -0.2072
    9CHL1   H4B  599   5.289   6.169  10.257  0.6793 -0.8782 -0.0910
    9CHL1    C5  600   5.387   6.190  10.071 -0.0830 -0.0484 -0.1688
    9CHL1    C6  601   5.290   6.126  10.016 -0.1085 -0.4548 -0.2105
    9CHL1    H6  602   5.215   6.075  10.079 -2.1299  2.0708 -0.4209
    9CHL1    C7  603   5.292   6.095   9.868 -0.2202  0.1113  0.7754
    9CHL1   H7A  604   5.270   5.988   9.849  1.5055  0.1397 -1.7810
    9CHL1   H7B  605   5.212   6.155   9.820  0.5572  1.4224  1.0714
    9CHL1    C8  606   5.421   6.125   9.785 -0.5676  0.1949 -0.5618
    9CHL1    H8  607   5.488   6.039   9.805  0.7165  0.9985 -1.2342
    9CHL1   C14  608   5.387   6.142   9.644  0.1534  0.1772  0.1516
    9CHL1   H14  609   5.325   6.232   9.626 -2.5939 -1.7781 -0.9415
    9CHL1   C15  610   5.311   6.025   9.578 -0.2349  0.2233 -0.0709
    9CHL1  H15A  611   5.347   5.923   9.601 -0.9552 -0.0974 -0.3610
    9CHL1  H15B  612   5.201   6.017   9.593 -0.2059  0.8013  0.5142
    9CHL1   C16  613   5.321   6.066   9.427  0.1092 -0.3368 -0.7364
    9CHL1  H16A  614   5.321   5.972   9.368  1.1332  0.0996 -1.4682
    9CHL1  H16B  615   5.228   6.115   9.391  0.3960  0.0265 -0.9984
    9CHL1   C17  616   5.436   6.164   9.411 -1.2634 -0.0690  0.1211
    9CHL1   H17  617   5.387   6.261   9.387 -2.0860 -0.3895  0.4866
    9CHL1   C13  618   5.507   6.171   9.549  0.4648  0.3462 -0.6067
    9CHL1   C18  619   5.609   6.053   9.566  0.5965  0.0526  0.0209
    9CHL1  H18A  620   5.697   6.062   9.498  0.6427 -0.4613  0.0039
    9CHL1  H18B  621   5.647   6.043   9.670 -1.1537  0.5556  0.7411
    9CHL1  H18C  622   5.558   5.963   9.526  1.6412 -0.5702  0.0508
    9CHL1   C12  623   5.572   6.298   9.601  0.4164  0.4629  0.1877
    9CHL1  H12A  624   5.671   6.310   9.551 -0.2789  0.8479 -1.1264
    9CHL1  H12B  625   5.507   6.386   9.580  1.0735  0.9941  0.3424
    9CHL1   C11  626   5.603   6.297   9.752 -0.1416 -0.7524  0.2376
    9CHL1  H11A  627   5.690   6.233   9.777  0.1589 -0.0574  1.0493
    9CHL1  H11B  628   5.632   6.399   9.785 -1.6508 -0.4753  0.7934
    9CHL1    C9  629   5.486   6.252   9.837 -0.1609  0.4556  0.5343
    9CHL1    H9  630   5.414   6.336   9.832  2.1898  2.5708  0.3133
    9CHL1   C10  631   5.506   6.249   9.989  0.2016 -0.0420  0.3014
    9CHL1   C19  632   5.635   6.159  10.014  0.0416 -0.5170  0.6536
    9CHL1  H19A  633   5.652   6.137  10.122 -0.2877  1.5741  1.1801
    9CHL1  H19B  634   5.617   6.060   9.966 -0.5049 -0.3849  0.5798
    9CHL1  H19C  635   5.726   6.216   9.984 -0.1832  0.7714  2.2819
    9CHL1    C1  636   5.514   6.391  10.046 -0.0001 -0.4257 -0.0748
    9CHL1   H1A  637   5.613   6.424  10.007 -0.0231  0.3385  0.4883
    9CHL1   H1B  638   5.424   6.447  10.015 -1.2822 -3.3472 -2.0663
    9CHL1    C2  639   5.521   6.418  10.200  0.3743  0.1460 -0.6341
    9CHL1   H2A  640   5.529   6.523  10.235  1.1153 -0.6183  1.6304
    9CHL1   H2B  641   5.617   6.372  10.230  0.2351  1.1134  1.4774
    9CHL1   C20  642   5.522   6.143   9.283 -0.9003 -0.2237  0.0046
    9CHL1   H20  643   5.578   6.048   9.297  0.6263  0.9232  2.4092
    9CHL1   C21  644   5.627   6.255   9.272  0.1398  0.4226  0.3391
    9CHL1  H21A  645   5.681   6.260   9.174 -0.1265 -0.1675  0.1616
    9CHL1  H21B  646   5.700   6.247   9.355  1.6225  1.1636 -0.8452
    9CHL1  H21C  647   5.572   6.351   9.256  1.2230  1.1161  0.6479
    9CHL1   C22  648   5.451   6.124   9.152  0.5843 -0.0317  1.2674
    9CHL1  H22A  649   5.530   6.112   9.075  0.2919  0.5708  0.8581
    9CHL1  H22B  650   5.387   6.034   9.145 -1.6511  1.5793 -0.4249
    9CHL1   C23  651   5.361   6.242   9.107  0.1660  0.4250 -0.3542
    9CHL1  H23A  652   5.289   6.246   9.192  0.0965 -0.1605 -0.3777
    9CHL1  H23B  653   5.408   6.342   9.107  0.8066  0.1977  2.0658
    9CHL1   C24  654   5.285   6.218   8.976 -0.1383 -1.2594  0.2201
    9CHL1  H24A  655   5.351   6.147   8.922  0.9667 -2.9312  3.4909
    9CHL1  H24B  656   5.194   6.158   8.998 -0.1286 -1.8447 -1.2106
    9CHL1   C25  657   5.247   6.350   8.901  0.1001 -0.2113 -0.6732
    9CHL1   H25  658   5.182   6.404   8.973  1.0230 -1.7512  1.4391
    9CHL1   C26  659   5.375   6.434   8.864  0.2147 -0.0930  0.3629
    9CHL1  H26A  660   5.418   6.488   8.950  0.8098  0.0095  0.0057
    9CHL1  H26B  661   5.464   6.384   8.820  0.0478 -0.0085 -0.0791
    9CHL1  H26C  662   5.352   6.520   8.798  2.2755  1.3048  1.3784
    9CHL1   C27  663   5.172   6.311   8.772  0.0125  0.6379  0.5427
    9CHL1  H27A  664   5.096   6.233   8.795  0.5376  0.5226  2.0129
    9CHL1  H27B  665   5.113   6.400   8.741  0.1689  0.1565 -1.2521
    9CHL1  H27C  666   5.246   6.284   8.693  1.1174 -0.6238  1.9430
   10CHL1    C3  667   5.273   3.016  10.228 -0.6104 -0.1347 -0.8933
   10CHL1    H3  668   5.185   2.949  10.215 -0.8371  0.4529 -2.6851
   10CHL1    O3  669   5.306   3.051  10.359  1.1929 -0.7296  0.5024
   10CHL1   H3'  670   5.304   3.147  10.351  0.5336 -0.7666  0.0712
   10CHL1    C4  671   5.407   2.958  10.168 -0.5479 -0.3393 -0.3139
   10CHL1   H4A  672   5.496   3.024  10.180  0.8715 -2.2041 -0.2420
   10CHL1   H4B  673   5.445   2.867  10.220  2.6012  1.4395  0.8189
   10CHL1    C5  674   5.392   2.925  10.018 -0.0369  0.2029  0.0821
   10CHL1    C6  675   5.414   2.804   9.965 -0.1251  0.5723 -0.0598
   10CHL1    H6  676   5.432   2.722  10.036 -1.3987  1.2580  1.0887
   10CHL1    C7  677   5.403   2.767   9.824 -0.5537 -0.2155  0.2032
   10CHL1   H7A  678   5.493   2.709   9.793  0.8071  0.7152  2.1788
   10CHL1   H7B  679   5.318   2.694   9.823  1.0499 -2.2092  1.1231
   10CHL1    C8  680   5.391   2.890   9.736 -0.7464  0.2279 -0.2014
   10CHL1    H8  681   5.494   2.931   9.727 -0.4971 -0.4423 -0.4733
   10CHL1   C14  682   5.352   2.845   9.595  0.0946  0.2007 -0.6646
   10CHL1   H14  683   5.248   2.809   9.610 -0.0796 -0.3156 -2.8586
   10CHL1   C15  684   5.432   2.739   9.519 -0.5084 -0.0657 -0.1592
   10CHL1  H15A  685   5.534   2.782   9.514 -0.7377  0.4770 -0.2324
   10CHL1  H15B  686   5.438   2.640   9.568  0.6970  0.1097  0.0869
   10CHL1   C16  687   5.366   2.743   9.385  0.0666  0.5915 -0.2696
   10CHL1  H16A  688   5.459   2.725   9.327  1.3658  0.5711  1.7074
   10CHL1  H16B  689   5.287   2.670   9.361 -2.2640  3.6507 -2.7414
   10CHL1   C17  690   5.296   2.881   9.373  0.3814  0.0320 -0.9506
   10CHL1   H17  691   5.188   2.858   9.387  0.4446 -0.8991 -1.8527
   10CHL1   C13  692   5.333   2.962   9.501  0.0872  0.3684  0.0125
   10CHL1   C18  693   5.464   3.043   9.479 -0.1164  0.9003 -0.0755
   10CHL1  H18A  694   5.546   2.988   9.427  0.5976  2.7855 -1.0293
   10CHL1  H18B  695   5.442   3.132   9.417 -0.7877  1.4135  0.8811
   10CHL1  H18C  696   5.509   3.090   9.568  0.9335 -0.6768  0.2747
   10CHL1   C12  697   5.223   3.052   9.553 -0.2832  0.6844 -0.5697
   10CHL1  H12A  698   5.190   3.132   9.484 -2.6544  1.6145  1.4596
   10CHL1  H12B  699   5.134   2.986   9.563  0.4929 -0.3594 -0.4185
   10CHL1   C11  700   5.253   3.105   9.694  0.0198 -0.1085  0.4226
   10CHL1  H11A  701   5.335   3.181   9.695  1.1905 -1.3393  0.7842
   10CHL1  H11B  702   5.166   3.159   9.737 -0.9463 -1.5104  0.3051
   10CHL1    C9  703   5.289   2.995   9.794 -0.4326  0.1782 -0.2570
   10CHL1    H9  704   5.193   2.938   9.799  0.4224 -1.4091 -1.1346
   10CHL1   C10  705   5.347   3.044   9.933  0.1132  0.3280 -0.3101
   10CHL1   C19  706   5.474   3.126   9.921 -0.1822  0.5162  0.0792
   10CHL1  H19A  707   5.497   3.173  10.018  0.7881  0.6165 -0.1824
   10CHL1  H19B  708   5.554   3.060   9.880 -0.4383  0.3840 -0.2159
   10CHL1  H19C  709   5.473   3.215   9.854 -1.4540 -0.8430 -1.8322
   10CHL1    C1  710   5.226   3.121   9.996 -0.1830  0.1520 -0.2137
   10CHL1   H1A  711   5.234   3.219   9.944  2.2359 -0.8224 -1.8453
   10CHL1   H1B  712   5.137   3.061   9.969 -0.4629  1.1727 -1.6783
   10CHL1    C2  713   5.239   3.146  10.152 -0.0447  0.1220  0.3194
   10CHL1   H2A  714   5.146   3.193  10.189 -1.4077 -1.0208 -1.4442
   10CHL1   H2B  715   5.324   3.211  10.181  0.0909  1.6613 -3.0500
   10CHL1   C20  716   5.304   2.944   9.234  0.7857  0.5891  0.2655
   10CHL1   H20  717   5.407   2.984   9.218  0.6890  0.4621 -0.7198
   10CHL1   C21  718   5.210   3.063   9.239 -0.5914 -0.1268 -0.3245
   10CHL1  H21A  719   5.110   3.048   9.287 -1.6673 -0.8860 -2.6357
   10CHL1  H21B  720   5.183   3.083   9.133  1.6209  0.5344 -0.8079
   10CHL1  H21C  721   5.257   3.153   9.283  1.8469 -0.4186 -2.1152
   10CHL1   C22  722   5.262   2.837   9.125 -1.0756 -0.5775  0.0390
   10CHL1  H22A  723   5.319   2.742   9.138  0.2694  0.0211 -1.1366
   10CHL1  H22B  724   5.156   2.807   9.137 -1.4262  0.4491 -0.3922
   10CHL1   C23  725   5.305   2.879   8.981 -0.5090  0.2056 -0.1501
   10CHL1  H23A  726   5.231   2.953   8.944 -1.3237 -0.6101 -0.1822
   10CHL1  H23B  727   5.406   2.925   8.992 -1.3134  2.1299 -0.4179
   10CHL1   C24  728   5.289   2.758   8.882  0.1126  0.1184  0.2394
   10CHL1  H24A  729   5.355   2.675   8.917  0.5531  0.0662 -0.6917
   10CHL1  H24B  730   5.182   2.729   8.886 -0.4794  2.1674  0.3921
   10CHL1   C25  731   5.315   2.787   8.732 -0.5731  0.1269 -0.3533
   10CHL1   H25  732   5.261   2.867   8.677 -0.4479 -0.1492 -0.8864
   10CHL1   C26  733   5.463   2.824   8.725 -0.7469  1.0938  0.1162
   10CHL1  H26A  734   5.521   2.744   8.776 -2.4944 -0.4393 -0.2107
   10CHL1  H26B  735   5.490   2.842   8.619  2.0500 -0.6191  0.4328
   10CHL1  H26C  736   5.490   2.917   8.781 -2.1318  2.1768 -0.9358
   10CHL1   C27  737   5.285   2.657   8.648  0.2250  0.0922  0.1564
   10CHL1  H27A  738   5.321   2.671   8.544 -1.2231 -0.3937 -0.4356
   10CHL1  H27B  739   5.343   2.575   8.696  2.5262  1.4645 -0.0989
   10CHL1  H27C  740   5.176   2.650   8.632  0.3014 -0.1083 -0.2953
   11CHL1    C3  741   1.339   0.853  10.080 -0.4092  0.3069 -0.3953
   11CHL1    H3  742   1.429   0.918  10.077  0.7499 -1.1067  1.4999
   11CHL1    O3  743   1.289   0.851  10.215  0.0523  0.6744  0.2113
   11CHL1   H3'  744   1.233   0.773  10.221 -1.1982  1.3999 -1.2471
   11CHL1    C4  745   1.229   0.878   9.977 -0.1410 -0.0199 -0.7521
   11CHL1   H4A  746   1.145   0.808   9.997  0.4762  0.2631  4.2333
   11CHL1   H4B  747   1.197   0.983   9.996  1.7489  0.8190 -1.9847
   11CHL1    C5  748   1.267   0.858   9.833  0.6336  0.1943  0.2242
   11CHL1    C6  749   1.250   0.949   9.738  0.3852 -0.4425 -0.5093
   11CHL1    H6  750   1.204   1.046   9.760  1.5400  0.1830 -0.7719
   11CHL1    C7  751   1.295   0.927   9.594 -0.4212  0.0722 -0.3060
   11CHL1   H7A  752   1.211   0.950   9.524 -0.9221  0.4740  0.4202
   11CHL1   H7B  753   1.383   0.991   9.572  0.3543 -0.6963  0.4920
   11CHL1    C8  754   1.331   0.784   9.557  0.3616 -0.1841 -0.5423
   11CHL1    H8  755   1.239   0.723   9.546  0.6966 -1.6903  3.2007
   11CHL1   C14  756   1.401   0.781   9.420  0.4768  0.2099 -0.5095
   11CHL1   H14  757   1.488   0.847   9.437  0.0297  0.0401  3.3557
   11CHL1   C15  758   1.323   0.838   9.297  0.1515  0.8422  0.1234
   11CHL1  H15A  759   1.222   0.793   9.293 -0.1869  1.6379 -0.4676
   11CHL1  H15B  760   1.315   0.947   9.319  1.9231  1.2819 -1.1842
   11CHL1   C16  761   1.410   0.788   9.181 -0.6237 -0.1570  0.8220
   11CHL1  H16A  762   1.354   0.727   9.107  2.1869 -1.6234 -0.2451
   11CHL1  H16B  763   1.452   0.866   9.115  2.2003 -2.4172 -0.2478
   11CHL1   C17  764   1.518   0.692   9.237  0.1428  0.2353 -0.0080
   11CHL1   H17  765   1.595   0.763   9.273 -3.3395  3.8402  1.0622
   11CHL1   C13  766   1.456   0.648   9.376  0.3375  0.4420  0.4165
   11CHL1   C18  767   1.344   0.546   9.360 -0.2021 -0.1817  0.7133
   11CHL1  H18A  768   1.269   0.567   9.281  0.0849 -1.1971  0.1596
   11CHL1  H18B  769   1.398   0.454   9.328  0.6435  0.8243 -0.8583
   11CHL1  H18C  770   1.297   0.524   9.458 -0.7723 -1.7352  0.1292
   11CHL1   C12  771   1.556   0.603   9.484 -0.2349 -0.3283 -0.3218
   11CHL1  H12A  772   1.602   0.508   9.449  2.6912  1.1062 -0.6253
   11CHL1  H12B  773   1.646   0.666   9.491  1.0721 -1.9473 -1.5998
   11CHL1   C11  774   1.487   0.590   9.624 -0.2781  0.2948 -0.4386
   11CHL1  H11A  775   1.406   0.514   9.613 -0.6259  0.7576 -1.2277
   11CHL1  H11B  776   1.560   0.548   9.696  0.3459  0.1182 -1.1547
   11CHL1    C9  777   1.420   0.726   9.671  0.1721  0.0824 -0.1934
   11CHL1    H9  778   1.509   0.792   9.679  1.5085 -1.4806 -1.2803
   11CHL1   C10  779   1.345   0.727   9.806 -0.5214  0.0332 -0.4975
   11CHL1   C19  780   1.243   0.611   9.812  0.6690  0.5492  0.1112
   11CHL1  H19A  781   1.166   0.621   9.732  0.7724  0.7103  0.0302
   11CHL1  H19B  782   1.291   0.512   9.801 -0.0988 -0.0051  1.5275
   11CHL1  H19C  783   1.183   0.602   9.905 -0.0657 -3.0835 -0.5613
   11CHL1    C1  784   1.455   0.692   9.917  0.2326  0.4365  0.3573
   11CHL1   H1A  785   1.497   0.591   9.902  0.7489  0.5011  1.2767
   11CHL1   H1B  786   1.538   0.766   9.917  0.2496  0.4781  2.6162
   11CHL1    C2  787   1.396   0.713  10.055  0.2891  0.2851 -0.5939
   11CHL1   H2A  788   1.484   0.684  10.118  0.4658 -0.3697 -1.1277
   11CHL1   H2B  789   1.327   0.626  10.064  0.3377  0.3610  0.7369
   11CHL1   C20  790   1.563   0.584   9.126 -0.1929  0.3483 -0.2644
   11CHL1   H20  791   1.471   0.529   9.098  0.1061  0.1950 -0.9667
   11CHL1   C21  792   1.658   0.484   9.194 -0.3653  0.3477 -0.0800
   11CHL1  H21A  793   1.695   0.414   9.116  1.8895  0.7116  0.5799
   11CHL1  H21B  794   1.620   0.420   9.277 -0.7236  0.3883 -0.2108
   11CHL1  H21C  795   1.753   0.527   9.231 -0.7464 -0.5594  2.1534
   11CHL1   C22  796   1.619   0.661   9.007 -0.0769 -0.3433 -0.1010
   11CHL1  H22A  797   1.543   0.729   8.965  0.0867  0.1926  0.4471
   11CHL1  H22B  798   1.712   0.715   9.038 -0.1619 -0.6607  0.7483
   11CHL1   C23  799   1.656   0.562   8.892  0.3010 -0.2354  0.6809
   11CHL1  H23A  800   1.729   0.492   8.939  0.6992 -0.5985 -0.4461
   11CHL1  H23B  801   1.562   0.506   8.876 -0.1044  1.0115 -1.6855
   11CHL1   C24  802   1.704   0.631   8.758 -0.0539 -0.1734 -0.2993
   11CHL1  H24A  803   1.631   0.711   8.731  0.1696  0.5240  1.0924
   11CHL1  H24B  804   1.802   0.679   8.776 -0.2219  0.8918 -1.9962
   11CHL1   C25  805   1.707   0.539   8.635  0.9663 -0.1956  0.3121
   11CHL1   H25  806   1.768   0.448   8.657 -1.9023 -2.2463  0.4101
   11CHL1   C26  807   1.571   0.474   8.605  0.4365  0.5912  0.3213
   11CHL1  H26A  808   1.538   0.399   8.680  2.1457  0.2457  0.7684
   11CHL1  H26B  809   1.488   0.549   8.602 -1.8850 -1.7051  2.1120
   11CHL1  H26C  810   1.575   0.427   8.505  1.7712  2.5233 -0.6112
   11CHL1   C27  811   1.768   0.618   8.519  1.0117 -0.0563  0.0157
   11CHL1  H27A  812   1.709   0.708   8.492  0.1064 -0.5168  0.4291
   11CHL1  H27B  813   1.867   0.662   8.543  1.1748  0.6570 -1.8145
   11CHL1  H27C  814   1.773   0.569   8.419 -2.9622 -1.6695  0.4096
   12CHL1    C3  815   1.461   2.822  10.440  0.3675  0.1609  0.6866
   12CHL1    H3  816   1.560   2.836  10.390  1.0339  0.5219  2.0580
   12CHL1    O3  817   1.489   2.787  10.573 -0.5831  0.3982  0.0519
   12CHL1   H3'  818   1.479   2.868  10.624  1.0518 -0.4958  1.9021
   12CHL1    C4  819   1.374   2.948  10.422  0.2328 -1.2077  0.4921
   12CHL1   H4A  820   1.281   2.950  10.483 -0.9128  1.7862 -1.1561
   12CHL1   H4B  821   1.424   3.036  10.467 -0.7953 -0.1874 -0.3225
   12CHL1    C5  822   1.326   2.974  10.277  0.1402 -0.3779 -0.4117
   12CHL1    C6  823   1.341   3.099  10.223 -0.8434  0.2534  0.3552
   12CHL1    H6  824   1.388   3.173  10.290 -0.4509  0.7428 -0.4380
   12CHL1    C7  825   1.291   3.134  10.086 -0.6207  0.4993 -0.6870
   12CHL1   H7A  826   1.226   3.223  10.098 -0.5243  0.3423  1.3607
   12CHL1   H7B  827   1.373   3.179  10.027 -0.7682  0.9758 -0.5332
   12CHL1    C8  828   1.217   3.014  10.017  0.0489 -0.0658  0.2974
   12CHL1    H8  829   1.110   3.029  10.043 -0.1682 -0.1891 -0.4771
   12CHL1   C14  830   1.229   3.037   9.867  0.0865 -0.1561 -0.4823
   12CHL1   H14  831   1.335   3.011   9.847 -0.0290 -1.1463  0.1166
   12CHL1   C15  832   1.210   3.183   9.810  0.2389  0.4865 -0.2410
   12CHL1  H15A  833   1.128   3.240   9.858  0.0692  0.0966 -0.0651
   12CHL1  H15B  834   1.304   3.241   9.824 -0.3897  0.7690  4.3045
   12CHL1   C16  835   1.183   3.154   9.660 -0.2285 -0.0648  0.1688
   12CHL1  H16A  836   1.086   3.193   9.623 -0.2365 -1.5938 -1.6153
   12CHL1  H16B  837   1.260   3.193   9.590 -1.0388 -0.6352 -1.0811
   12CHL1   C17  838   1.187   2.997   9.638  0.4148  0.6712 -0.3929
   12CHL1   H17  839   1.290   2.958   9.617 -0.5968 -1.5297 -1.6560
   12CHL1   C13  840   1.157   2.933   9.778  0.8182  0.3979  0.2677
   12CHL1   C18  841   1.010   2.954   9.810  0.7304  0.2268  0.6454
   12CHL1  H18A  842   0.989   2.969   9.918  0.1829  3.1692  0.2313
   12CHL1  H18B  843   0.974   3.041   9.751  1.8133 -0.4773 -1.1087
   12CHL1  H18C  844   0.945   2.867   9.788  2.0323 -0.3171 -1.2980
   12CHL1   C12  845   1.199   2.797   9.824 -0.2902  0.4283  0.5638
   12CHL1  H12A  846   1.131   2.727   9.769  0.2532  0.8997 -0.7479
   12CHL1  H12B  847   1.304   2.776   9.794 -0.4029  0.9578 -0.2294
   12CHL1   C11  848   1.197   2.770   9.976 -0.0847  0.0476  0.0225
   12CHL1  H11A  849   1.090   2.771  10.007  0.1344 -0.9475  0.8311
   12CHL1  H11B  850   1.234   2.667   9.991 -0.5079 -0.5968 -2.8805
   12CHL1    C9  851   1.266   2.877  10.058 -0.3722  0.7708  0.4269
   12CHL1    H9  852   1.375   2.881  10.036 -0.2461  1.3308  1.1325
   12CHL1   C10  853   1.267   2.855  10.209 -0.1560  0.3364 -0.0119
   12CHL1   C19  854   1.121   2.857  10.264  0.1852  0.4586  0.4826
   12CHL1  H19A  855   1.116   2.855  10.375  0.3159 -0.0871  0.4838
   12CHL1  H19B  856   1.073   2.948  10.224 -1.2684  0.0020  1.1091
   12CHL1  H19C  857   1.054   2.782  10.214  2.6276 -1.8516  0.4491
   12CHL1    C1  858   1.343   2.724  10.232 -0.5386  0.2240 -0.1075
   12CHL1   H1A  859   1.269   2.645  10.206 -0.0253 -0.7272  1.1561
   12CHL1   H1B  860   1.433   2.708  10.170  0.4995  0.7390  1.2135
   12CHL1    C2  861   1.385   2.702  10.377 -0.6147  0.1375 -0.3878
   12CHL1   H2A  862   1.436   2.605  10.393 -0.4945 -0.3807 -3.2917
   12CHL1   H2B  863   1.289   2.701  10.433 -0.5568  0.7034 -0.2749
   12CHL1   C20  864   1.098   2.972   9.516 -0.0015  0.6568  0.0460
   12CHL1   H20  865   0.998   3.020   9.523 -0.1287  0.3242  0.5728
   12CHL1   C21  866   1.074   2.821   9.511  0.3826 -0.1178 -0.5741
   12CHL1  H21A  867   1.151   2.749   9.476 -2.5144 -2.8451 -1.7845
   12CHL1  H21B  868   0.990   2.802   9.441  1.0947  0.5456 -1.6405
   12CHL1  H21C  869   1.034   2.780   9.606 -0.2043  1.9991  0.1467
   12CHL1   C22  870   1.160   3.013   9.377 -0.1495 -0.5235 -0.2490
   12CHL1  H22A  871   1.207   3.113   9.384 -0.5241 -0.3675  0.0567
   12CHL1  H22B  872   1.237   2.937   9.351  0.3685  0.5769 -2.0799
   12CHL1   C23  873   1.065   3.001   9.257  0.2850  0.3555 -0.0966
   12CHL1  H23A  874   1.003   2.910   9.264  2.9555 -1.6013 -0.3707
   12CHL1  H23B  875   1.002   3.092   9.261 -1.0370 -0.5529  0.2208
   12CHL1   C24  876   1.137   3.008   9.124  0.6731  0.0026  1.1855
   12CHL1  H24A  877   1.208   3.093   9.130 -0.1390  0.7061  0.9275
   12CHL1  H24B  878   1.203   2.919   9.114  0.2904 -0.1300 -0.4027
   12CHL1   C25  879   1.059   3.021   8.996  0.2517 -0.5035  0.0858
   12CHL1   H25  880   0.978   2.946   9.010  0.1418 -0.1244  1.7521
   12CHL1   C26  881   0.989   3.160   8.988 -0.5660  0.1559 -0.1409
   12CHL1  H26A  882   0.955   3.175   8.883 -1.5798  3.2088  0.5290
   12CHL1  H26B  883   0.919   3.181   9.072  1.1541 -0.7121  1.5641
   12CHL1  H26C  884   1.066   3.239   8.990 -0.0196 -0.3860  0.6238
   12CHL1   C27  885   1.140   2.989   8.871  0.8514 -0.3839 -0.1046
   12CHL1  H27A  886   1.094   3.026   8.777  1.2029 -1.2869 -0.6398
   12CHL1  H27B  887   1.226   3.060   8.877 -0.2613  0.9925  0.0707
   12CHL1  H27C  888   1.182   2.887   8.877  0.2479 -0.5914  0.9604
   13CHL1    C3  889   2.359   3.490  10.272 -0.2195 -0.2657 -0.5132
   13CHL1    H3  890   2.361   3.589  10.222 -1.2535 -0.9228 -1.9146
   13CHL1    O3  891   2.393   3.501  10.412 -0.0206  0.6261 -0.4956
   13CHL1   H3'  892   2.489   3.507  10.412 -0.0291  0.8835 -1.1384
   13CHL1    C4  893   2.228   3.419  10.260 -0.1485 -0.5869 -0.2550
   13CHL1   H4A  894   2.244   3.318  10.302 -0.2868 -0.1412  0.9021
   13CHL1   H4B  895   2.151   3.470  10.321 -1.6686 -1.9513 -0.9788
   13CHL1    C5  896   2.192   3.406  10.112  0.1280 -0.2661  0.3803
   13CHL1    C6  897   2.082   3.465  10.065 -0.7460  0.1994 -0.3415
   13CHL1    H6  898   2.010   3.515  10.131 -0.8440 -0.6360  0.2056
   13CHL1    C7  899   2.041   3.459   9.918 -1.4040  0.6682 -0.2233
   13CHL1   H7A  900   1.934   3.430   9.907 -1.1282 -0.7686  0.6591
   13CHL1   H7B  901   2.049   3.563   9.882 -0.5876  0.4497 -0.7020
   13CHL1    C8  902   2.133   3.370   9.832  0.2371  0.0864  0.1393
   13CHL1    H8  903   2.111   3.263   9.848  0.3541  0.1679  0.8661
   13CHL1   C14  904   2.102   3.407   9.684 -0.1737  0.0244  0.6600
   13CHL1   H14  905   2.129   3.514   9.668 -1.1085  0.2595  0.6111
   13CHL1   C15  906   1.952   3.405   9.630 -0.3009  0.0594 -0.1112
   13CHL1  H15A  907   1.919   3.304   9.664 -0.1652  0.5719  1.6123
   13CHL1  H15B  908   1.880   3.483   9.663 -0.5977 -0.6023  0.8509
   13CHL1   C16  909   1.965   3.396   9.473  0.4728  0.6213  0.2017
   13CHL1  H16A  910   1.910   3.303   9.444 -1.7293  3.1930 -5.2680
   13CHL1  H16B  911   1.916   3.483   9.425  1.5187  0.5962 -0.9407
   13CHL1   C17  912   2.121   3.393   9.442 -0.1701  0.0672 -0.8605
   13CHL1   H17  913   2.152   3.499   9.429 -1.6727  0.6406 -0.0179
   13CHL1   C13  914   2.183   3.339   9.578 -0.1741  0.6124 -0.1415
   13CHL1   C18  915   2.165   3.184   9.594  0.0833  0.3141 -0.2923
   13CHL1  H18A  916   2.211   3.121   9.515 -0.0710 -1.2946  0.8352
   13CHL1  H18B  917   2.205   3.150   9.692 -1.2691 -1.5568 -0.3418
   13CHL1  H18C  918   2.056   3.163   9.591  0.2559 -0.7830  0.5046
   13CHL1   C12  919   2.328   3.381   9.617  0.5623 -0.0880 -0.3503
   13CHL1  H12A  920   2.399   3.333   9.546 -1.5547 -2.1014 -1.2490
   13CHL1  H12B  921   2.341   3.489   9.597 -1.5326 -0.2266 -3.0582
   13CHL1   C11  922   2.368   3.342   9.768  0.1948  0.1576  1.0226
   13CHL1  H11A  923   2.384   3.232   9.763 -1.4476 -0.0667 -0.3001
   13CHL1  H11B  924   2.470   3.385   9.771  0.1102  0.3231  2.8873
   13CHL1    C9  925   2.272   3.395   9.869  0.4500  0.0027 -0.3715
   13CHL1    H9  926   2.280   3.504   9.850 -1.1415 -0.1052 -1.9268
   13CHL1   C10  927   2.303   3.355  10.014 -0.1529  0.2359 -0.3740
   13CHL1   C19  928   2.303   3.196  10.030  0.3876  0.4420  0.7839
   13CHL1  H19A  929   2.201   3.156  10.013  0.8426 -0.2514 -0.4915
   13CHL1  H19B  930   2.377   3.145   9.964 -0.2089  0.0906  0.3767
   13CHL1  H19C  931   2.342   3.186  10.134  0.6658  4.1023  1.1365
   13CHL1    C1  932   2.445   3.411  10.053  0.0091  0.1208  0.2349
   13CHL1   H1A  933   2.523   3.346  10.008 -0.0376  0.4596 -0.3390
   13CHL1   H1B  934   2.456   3.516  10.021 -1.8197  0.9662  2.1427
   13CHL1    C2  935   2.473   3.408  10.207 -0.1881 -1.2560  0.5951
   13CHL1   H2A  936   2.570   3.452  10.238 -0.6620  0.2152  0.1140
   13CHL1   H2B  937   2.472   3.306  10.250  3.2814 -1.8889 -0.5278
   13CHL1   C20  938   2.150   3.323   9.312  0.0390 -0.4030 -0.2253
   13CHL1   H20  939   2.161   3.213   9.322 -0.9321 -0.6930 -1.9093
   13CHL1   C21  940   2.286   3.387   9.258  0.4001  0.4632  0.8042
   13CHL1  H21A  941   2.312   3.363   9.153 -1.2859 -0.4296  0.5593
   13CHL1  H21B  942   2.365   3.368   9.334  2.2364 -0.6097 -1.2353
   13CHL1  H21C  943   2.279   3.497   9.254  4.6357  0.8977  0.2425
   13CHL1   C22  944   2.044   3.341   9.202 -0.1723  0.5911  0.4616
   13CHL1  H22A  945   1.961   3.280   9.242  1.6535 -0.9728  2.0115
   13CHL1  H22B  946   2.003   3.444   9.192  3.3450  1.9636 -2.0345
   13CHL1   C23  947   2.088   3.302   9.054 -0.3022 -0.3002 -0.4117
   13CHL1  H23A  948   2.153   3.379   9.007 -0.6954  0.5020  0.3225
   13CHL1  H23B  949   2.145   3.206   9.051 -1.2606 -1.2831  4.2725
   13CHL1   C24  950   1.966   3.284   8.970  0.4221  0.2707 -0.6032
   13CHL1  H24A  951   1.905   3.212   9.030 -0.0479 -1.0109 -2.5164
   13CHL1  H24B  952   1.910   3.379   8.954  3.1962  2.0340 -0.5262
   13CHL1   C25  953   1.979   3.239   8.827 -0.3798  0.5619 -0.4550
   13CHL1   H25  954   2.033   3.142   8.824 -1.2123 -0.0220  1.5879
   13CHL1   C26  955   1.838   3.214   8.769  0.2319 -0.4831  0.2518
   13CHL1  H26A  956   1.833   3.169   8.667 -0.7060 -1.8237  0.8579
   13CHL1  H26B  957   1.778   3.143   8.830 -1.7115  0.1466 -0.8421
   13CHL1  H26C  958   1.781   3.308   8.752 -2.8789 -1.7824  2.5607
   13CHL1   C27  959   2.048   3.342   8.742  0.5023 -0.7629  0.3588
   13CHL1  H27A  960   1.988   3.434   8.722  1.0521 -0.4426  0.1575
   13CHL1  H27B  961   2.151   3.370   8.773  0.0928  2.0503 -0.5405
   13CHL1  H27C  962   2.057   3.298   8.641  1.4002 -1.4035  0.7110
   14CHL1    C3  963   1.067   1.599  10.386 -0.1352  0.3280 -0.2376
   14CHL1    H3  964   1.090   1.699  10.343  1.5629 -0.0501 -0.2835
   14CHL1    O3  965   1.059   1.620  10.529  0.5559 -0.1493  0.1665
   14CHL1   H3'  966   0.986   1.682  10.535 -0.4227 -1.1917 -0.6707
   14CHL1    C4  967   0.933   1.541  10.340  0.1065 -0.9763 -0.0354
   14CHL1   H4A  968   0.904   1.451  10.399  0.5671 -0.8839  0.3327
   14CHL1   H4B  969   0.862   1.625  10.355 -1.0769 -2.1318  1.1849
   14CHL1    C5  970   0.932   1.511  10.192 -0.0916  0.1861 -0.3183
   14CHL1    C6  971   0.851   1.576  10.107  0.3165 -0.2363 -0.0496
   14CHL1    H6  972   0.772   1.644  10.143  0.0677 -1.3376  1.5730
   14CHL1    C7  973   0.849   1.556   9.960 -0.8620  0.0606  0.1622
   14CHL1   H7A  974   0.746   1.539   9.921 -0.1478 -1.0473 -1.3531
   14CHL1   H7B  975   0.897   1.642   9.910 -2.1493  1.1475  0.7271
   14CHL1    C8  976   0.936   1.431   9.924  0.8612  0.2071 -0.3120
   14CHL1    H8  977   0.879   1.339   9.949 -0.3514  0.8360 -0.6698
   14CHL1   C14  978   0.947   1.443   9.771 -0.1888  0.1689 -0.2867
   14CHL1   H14  979   0.995   1.541   9.752 -1.7580  0.8131 -1.0367
   14CHL1   C15  980   0.822   1.427   9.684  0.3099 -1.0645  0.0518
   14CHL1  H15A  981   0.761   1.341   9.717 -0.7678 -0.4739 -0.3656
   14CHL1  H15B  982   0.757   1.516   9.696  0.0713 -1.4666  2.3212
   14CHL1   C16  983   0.870   1.384   9.543  0.5916  0.2579  0.0053
   14CHL1  H16A  984   0.820   1.286   9.525 -0.4837  0.4952  1.5228
   14CHL1  H16B  985   0.839   1.456   9.463  0.5960  1.3255  0.9352
   14CHL1   C17  986   1.023   1.366   9.551 -0.0189 -0.1131  0.3065
   14CHL1   H17  987   1.075   1.463   9.532  1.1264 -0.5569  1.0825
   14CHL1   C13  988   1.039   1.340   9.702  0.2672  0.1433 -0.2770
   14CHL1   C18  989   0.989   1.196   9.745  0.2416  0.0760  0.0398
   14CHL1  H18A  990   1.046   1.121   9.687 -2.5048 -0.5478 -2.0767
   14CHL1  H18B  991   0.977   1.175   9.853  0.0107 -2.0192 -0.3616
   14CHL1  H18C  992   0.887   1.183   9.703  0.0358  0.3853  0.4331
   14CHL1   C12  993   1.174   1.369   9.775  0.2485 -0.3049  0.9712
   14CHL1  H12A  994   1.249   1.303   9.726  1.1622  1.1394  0.3737
   14CHL1  H12B  995   1.214   1.465   9.738  0.1485 -0.5098  0.3290
   14CHL1   C11  996   1.177   1.347   9.924 -0.0737 -0.1954 -0.3935
   14CHL1  H11A  997   1.158   1.240   9.943 -1.1776 -0.1185 -0.9849
   14CHL1  H11B  998   1.278   1.370   9.963 -0.6752  1.3652  0.3400
   14CHL1    C9  999   1.073   1.436   9.992  0.6498  0.0322  0.4551
   14CHL1    H9 1000   1.105   1.541   9.978 -0.5991  0.1880 -1.6972
   14CHL1   C10 1001   1.060   1.424  10.140  0.2803 -0.4878 -0.4883
   14CHL1   C19 1002   1.040   1.277  10.190  0.2290  0.0944 -0.0923
   14CHL1  H19A 1003   1.027   1.272  10.300  1.7329  1.7826  0.2260
   14CHL1  H19B 1004   0.964   1.226  10.127  1.7618  1.0661 -2.9424
   14CHL1  H19C 1005   1.137   1.228  10.166  1.1180  1.5700  0.3403
   14CHL1    C1 1006   1.191   1.480  10.209  0.6397  0.5482  0.1855
   14CHL1   H1A 1007   1.279   1.417  10.186  1.4584  1.1061  1.6328
   14CHL1   H1B 1008   1.204   1.582  10.166 -0.6118  0.7218  0.1996
   14CHL1    C2 1009   1.182   1.511  10.355 -0.7748 -0.3014 -0.0917
   14CHL1   H2A 1010   1.268   1.569  10.394 -0.9713  0.5672 -0.9035
   14CHL1   H2B 1011   1.174   1.420  10.418  0.0614 -0.2846  0.0594
   14CHL1   C20 1012   1.066   1.273   9.440  0.5126  0.0528 -0.0741
   14CHL1   H20 1013   1.008   1.178   9.449  0.4211 -0.1172 -2.0752
   14CHL1   C21 1014   1.217   1.236   9.453 -0.4555 -0.3393 -0.1830
   14CHL1  H21A 1015   1.241   1.196   9.554 -1.3014  1.2327  0.6844
   14CHL1  H21B 1016   1.284   1.325   9.449  1.5946 -1.7899  0.1893
   14CHL1  H21C 1017   1.241   1.166   9.371  0.0789  2.1508 -2.2803
   14CHL1   C22 1018   1.037   1.327   9.293 -0.5605 -0.0833 -0.8756
   14CHL1  H22A 1019   0.926   1.327   9.295 -0.6192  1.4439  2.0710
   14CHL1  H22B 1020   1.068   1.433   9.286 -1.5763  0.2056 -1.1904
   14CHL1   C23 1021   1.103   1.250   9.177  0.3670  0.1327 -0.8745
   14CHL1  H23A 1022   1.213   1.260   9.178  0.3115  0.9759  0.6953
   14CHL1  H23B 1023   1.076   1.143   9.188 -2.4259  0.9324  1.3675
   14CHL1   C24 1024   1.039   1.301   9.046 -0.1573  0.0539 -0.0457
   14CHL1  H24A 1025   0.928   1.306   9.058 -0.5415 -2.8670 -1.5662
   14CHL1  H24B 1026   1.077   1.403   9.023 -2.7108  1.1841  0.4100
   14CHL1   C25 1027   1.062   1.212   8.926  0.1454 -0.0728 -0.1708
   14CHL1   H25 1028   1.167   1.176   8.923  0.8293  1.6439  1.2370
   14CHL1   C26 1029   0.954   1.101   8.930  0.3327  0.0702  0.8556
   14CHL1  H26A 1030   0.849   1.137   8.933  0.3957  0.3796 -0.2484
   14CHL1  H26B 1031   0.974   1.045   8.836  1.1745  1.8697 -0.0801
   14CHL1  H26C 1032   0.963   1.024   9.010 -1.4059  0.1053  1.1216
   14CHL1   C27 1033   1.053   1.294   8.802 -0.2841  0.2428  0.2364
   14CHL1  H27A 1034   0.972   1.371   8.809  0.4901  1.0104  1.0029
   14CHL1  H27B 1035   1.142   1.355   8.779 -0.5478  0.6519  0.2885
   14CHL1  H27C 1036   1.032   1.225   8.718  1.4709 -0.3830  0.2787
   15CHL1    C3 1037   2.467   5.858  10.125  0.2823  0.6970 -0.1606
   15CHL1    H3 1038   2.438   5.751  10.112  0.9902  0.1884  1.9381
   15CHL1    O3 1039   2.493   5.879  10.259  0.4710 -0.4911 -0.1076
   15CHL1   H3' 1040   2.529   5.968  10.265  0.6946 -0.6322  1.0335
   15CHL1    C4 1041   2.598   5.873  10.043  0.8393 -0.0614  0.2746
   15CHL1   H4A 1042   2.658   5.962  10.072  1.4219 -0.4069  0.1512
   15CHL1   H4B 1043   2.657   5.780  10.057  1.8774  0.8176  2.3743
   15CHL1    C5 1044   2.565   5.872   9.894  0.0029 -0.2004 -0.1302
   15CHL1    C6 1045   2.633   5.788   9.809 -0.3990  0.2222 -0.7794
   15CHL1    H6 1046   2.714   5.724   9.848 -0.6979 -0.5024 -1.3229
   15CHL1    C7 1047   2.603   5.763   9.661 -0.8026  0.3955  0.9216
   15CHL1   H7A 1048   2.695   5.735   9.606 -1.1256  0.0193  0.5671
   15CHL1   H7B 1049   2.537   5.674   9.652 -1.2786  0.8042  0.2051
   15CHL1    C8 1050   2.532   5.886   9.606 -1.1288 -0.2744 -0.0198
   15CHL1    H8 1051   2.604   5.969   9.595 -2.9724  1.4521  0.4088
   15CHL1   C14 1052   2.471   5.853   9.467  0.3189 -0.1029  0.1932
   15CHL1   H14 1053   2.392   5.781   9.497 -0.8227  1.0356  0.0295
   15CHL1   C15 1054   2.552   5.792   9.353 -0.5793 -0.4208  0.1403
   15CHL1  H15A 1055   2.649   5.846   9.349 -1.3712  1.1068  1.1400
   15CHL1  H15B 1056   2.579   5.686   9.374  1.5159  0.1326  0.4916
   15CHL1   C16 1057   2.474   5.811   9.228  0.3603  1.1982  0.0760
   15CHL1  H16A 1058   2.530   5.877   9.158 -1.6279 -0.8522 -3.8320
   15CHL1  H16B 1059   2.435   5.725   9.170 -1.1740  2.7296 -1.2908
   15CHL1   C17 1060   2.349   5.895   9.270 -0.5279  0.2351  0.8226
   15CHL1   H17 1061   2.263   5.828   9.293 -0.2571 -0.0317  1.0646
   15CHL1   C13 1062   2.387   5.960   9.403 -0.2571 -0.1647 -0.2007
   15CHL1   C18 1063   2.461   6.090   9.380 -0.4445 -0.1345  0.1662
   15CHL1  H18A 1064   2.514   6.116   9.474 -1.6728 -1.4713  1.2745
   15CHL1  H18B 1065   2.541   6.071   9.306  0.6293  0.6370  1.0943
   15CHL1  H18C 1066   2.392   6.173   9.354 -0.2350  0.1186  0.4196
   15CHL1   C12 1067   2.267   5.977   9.501  0.1529 -0.2008  0.5426
   15CHL1  H12A 1068   2.200   6.050   9.450  2.7770 -0.2245 -3.3453
   15CHL1  H12B 1069   2.209   5.883   9.502 -2.4887  1.3326  1.1402
   15CHL1   C11 1070   2.310   6.029   9.631 -0.6420  0.3276  0.2143
   15CHL1  H11A 1071   2.353   6.131   9.620 -1.6643  0.7788  0.2729
   15CHL1  H11B 1072   2.224   6.032   9.701  0.8961 -1.0505  2.2877
   15CHL1    C9 1073   2.417   5.928   9.695 -0.1867 -0.4894  0.1506
   15CHL1    H9 1074   2.360   5.833   9.700 -0.3498 -0.3645  0.6946
   15CHL1   C10 1075   2.451   5.966   9.843 -0.0213  0.1763  0.1773
   15CHL1   C19 1076   2.497   6.115   9.856  0.4084 -0.3364  0.2358
   15CHL1  H19A 1077   2.554   6.143   9.765  0.3706 -0.5715  0.1387
   15CHL1  H19B 1078   2.399   6.166   9.866  0.2194 -0.7904  0.7195
   15CHL1  H19C 1079   2.561   6.139   9.944  2.9037 -0.3042 -1.4660
   15CHL1    C1 1080   2.324   5.938   9.933 -0.0986  0.1925 -0.2053
   15CHL1   H1A 1081   2.240   6.007   9.909 -0.7394 -1.4875 -3.3143
   15CHL1   H1B 1082   2.288   5.836   9.909  0.0034 -0.1053  0.8413
   15CHL1    C2 1083   2.351   5.946  10.084  0.1740 -0.6502 -0.5276
   15CHL1   H2A 1084   2.260   5.930  10.146  0.4627  0.2484  0.1422
   15CHL1   H2B 1085   2.376   6.050  10.111  0.4170 -1.2494  1.7946
   15CHL1   C20 1086   2.301   5.981   9.150 -0.2211 -0.8469  0.3524
   15CHL1   H20 1087   2.373   6.064   9.135  0.0601 -1.0711  0.4390
   15CHL1   C21 1088   2.165   6.051   9.181 -0.3563 -0.0012  0.0933
   15CHL1  H21A 1089   2.175   6.126   9.263 -0.2395 -1.5028  1.4965
   15CHL1  H21B 1090   2.097   5.968   9.206  2.9332 -2.4173  1.8526
   15CHL1  H21C 1091   2.135   6.108   9.091 -0.2360 -0.1392 -0.0330
   15CHL1   C22 1092   2.295   5.895   9.021 -0.4776  0.0779  0.5172
   15CHL1  H22A 1093   2.384   5.835   8.992  0.1857  1.6191 -0.8184
   15CHL1  H22B 1094   2.216   5.818   9.033 -0.9217  0.4412 -0.0792
   15CHL1   C23 1095   2.259   5.970   8.892 -0.4731 -0.3996 -0.1174
   15CHL1  H23A 1096   2.167   6.028   8.912 -0.1263 -0.7377  3.1256
   15CHL1  H23B 1097   2.335   6.050   8.884 -2.2825  1.4045  0.0628
   15CHL1   C24 1098   2.243   5.872   8.772  0.5275  0.0058  0.1066
   15CHL1  H24A 1099   2.339   5.819   8.754 -0.2675 -1.2655 -0.5879
   15CHL1  H24B 1100   2.169   5.792   8.796 -0.4397  0.5339 -0.9962
   15CHL1   C25 1101   2.187   5.939   8.643  0.0262  0.1822  0.0751
   15CHL1   H25 1102   2.189   5.852   8.573 -1.0636  1.9925 -2.3549
   15CHL1   C26 1103   2.046   6.004   8.664  0.0149  0.2328 -0.7597
   15CHL1  H26A 1104   2.005   6.050   8.572  1.0026 -0.2442 -1.4658
   15CHL1  H26B 1105   1.965   5.933   8.691 -1.2025  2.2381  1.2515
   15CHL1  H26C 1106   2.055   6.074   8.750 -0.6616 -1.8781  1.1537
   15CHL1   C27 1107   2.277   6.055   8.596 -0.3476  0.3074 -0.3368
   15CHL1  H27A 1108   2.292   6.127   8.679  0.9315  0.8619 -1.0190
   15CHL1  H27B 1109   2.377   6.015   8.569  0.4004  1.3924  0.7129
   15CHL1  H27C 1110   2.240   6.126   8.518 -0.8804 -1.6910 -1.9811
   16CHL1    C3 1111   2.721   0.148  10.321  0.3622  0.8532  0.1708
   16CHL1    H3 1112   2.683   0.250  10.299 -0.1789  0.6591  0.1882
   16CHL1    O3 1113   2.691   0.124  10.456  0.5274 -0.3967  0.6031
   16CHL1   H3' 1114   2.596   0.110  10.462  0.1950  0.8070 -1.1350
   16CHL1    C4 1115   2.629   0.052  10.250  0.1837  0.1605  0.5977
   16CHL1   H4A 1116   2.623  -0.051  10.292 -0.8570 -0.2749 -0.5656
   16CHL1   H4B 1117   2.530   0.097  10.272 -1.4997 -2.6950 -0.6088
   16CHL1    C5 1118   2.655   0.065  10.108  0.0304  0.8263  0.2628
   16CHL1    C6 1119   2.563   0.101  10.018  0.3285  0.1671  0.3690
   16CHL1    H6 1120   2.466   0.140  10.052 -0.7059 -0.6667 -1.5128
   16CHL1    C7 1121   2.578   0.107   9.874 -0.7256  0.3761  0.1727
   16CHL1   H7A 1122   2.497   0.048   9.828 -0.7125  1.0760 -0.7851
   16CHL1   H7B 1123   2.576   0.211   9.833  1.0500 -0.3634 -2.0603
   16CHL1    C8 1124   2.714   0.029   9.832 -0.0839 -0.6329  0.6151
   16CHL1    H8 1125   2.688  -0.079   9.838 -1.6782 -0.2744  0.7159
   16CHL1   C14 1126   2.746   0.063   9.679 -0.1937 -0.0926 -0.5590
   16CHL1   H14 1127   2.783   0.168   9.680  0.1980 -0.2283  0.3164
   16CHL1   C15 1128   2.635   0.048   9.574 -0.1201  0.0644 -0.5172
   16CHL1  H15A 1129   2.560  -0.033   9.589 -0.8762  1.1672  2.3534
   16CHL1  H15B 1130   2.574   0.140   9.572  0.5672  0.6249  1.3168
   16CHL1   C16 1131   2.710   0.035   9.435  0.1664 -0.4988 -0.3932
   16CHL1  H16A 1132   2.687  -0.059   9.381 -0.7473 -0.5062 -0.0217
   16CHL1  H16B 1133   2.682   0.127   9.380  1.8886  1.5303  1.9116
   16CHL1   C17 1134   2.862   0.029   9.476  0.0112  0.0044  0.2312
   16CHL1   H17 1135   2.908   0.130   9.474 -0.7148  0.3448  0.5270
   16CHL1   C13 1136   2.861  -0.017   9.622 -0.2424  0.5673  0.2190
   16CHL1   C18 1137   2.826  -0.162   9.610 -0.1564  0.4686  0.7515
   16CHL1  H18A 1138   2.913  -0.230   9.594 -0.3236 -0.1471  2.2899
   16CHL1  H18B 1139   2.776  -0.198   9.703 -1.2970  0.7132  0.2489
   16CHL1  H18C 1140   2.747  -0.194   9.538 -1.4254 -1.7668  2.9625
   16CHL1   C12 1141   2.988   0.009   9.708  0.4617 -0.1213  0.1297
   16CHL1  H12A 1142   3.078  -0.053   9.685 -0.8396 -1.2580 -2.1926
   16CHL1  H12B 1143   3.013   0.115   9.689 -1.5390  0.2748 -0.4809
   16CHL1   C11 1144   2.963  -0.011   9.858 -1.1147  0.3510 -1.1742
   16CHL1  H11A 1145   2.941  -0.120   9.864  0.8403 -0.0508 -0.6497
   16CHL1  H11B 1146   3.055   0.012   9.915 -0.8605 -0.1478 -1.3823
   16CHL1    C9 1147   2.833   0.063   9.916 -0.4542 -0.0860  0.3410
   16CHL1    H9 1148   2.861   0.170   9.905  2.4415 -0.7571  0.5597
   16CHL1   C10 1149   2.802   0.034  10.065 -0.1006  0.0357  0.1749
   16CHL1   C19 1150   2.828  -0.119  10.090  0.4293  0.0216 -0.6516
   16CHL1  H19A 1151   2.784  -0.171  10.003  0.9324  2.1307 -2.2553
   16CHL1  H19B 1152   2.936  -0.144  10.101  0.6148  1.1974  0.5270
   16CHL1  H19C 1153   2.780  -0.159  10.182  2.2888 -0.4348  0.1608
   16CHL1    C1 1154   2.902   0.117  10.151 -0.4382  0.8845 -0.0253
   16CHL1   H1A 1155   3.004   0.074  10.140 -2.2452 -4.2281  0.5058
   16CHL1   H1B 1156   2.906   0.223  10.116  0.7848  1.7561  2.5135
   16CHL1    C2 1157   2.867   0.126  10.300 -0.1924  0.8115  0.1805
   16CHL1   H2A 1158   2.924   0.211  10.343  0.7044  0.0028  0.6159
   16CHL1   H2B 1159   2.905   0.036  10.352 -0.5258  0.2852 -0.4768
   16CHL1   C20 1160   2.936  -0.049   9.367  0.2123  0.1972  0.3349
   16CHL1   H20 1161   2.885  -0.147   9.364 -1.1748  0.8671  0.8488
   16CHL1   C21 1162   3.080  -0.066   9.402 -1.0448  0.9318  1.0019
   16CHL1  H21A 1163   3.124   0.036   9.412 -0.4584  0.8221 -0.2309
   16CHL1  H21B 1164   3.135  -0.127   9.327 -1.2746 -0.1512  1.7019
   16CHL1  H21C 1165   3.098  -0.123   9.496  1.6116  4.3372  2.8129
   16CHL1   C22 1166   2.932   0.022   9.228 -0.1396  0.6089 -0.6865
   16CHL1  H22A 1167   2.836   0.076   9.211 -0.9639 -0.3745  0.5952
   16CHL1  H22B 1168   3.006   0.104   9.229  1.5125 -0.8095  1.1190
   16CHL1   C23 1169   2.964  -0.059   9.108  0.9882 -0.3367  0.3191
   16CHL1  H23A 1170   3.061  -0.114   9.107  0.8409 -0.6568  1.5001
   16CHL1  H23B 1171   2.880  -0.125   9.080  0.1966  1.4395 -1.7135
   16CHL1   C24 1172   2.975   0.032   8.980 -0.4027  0.1947  0.2515
   16CHL1  H24A 1173   2.871   0.062   8.952 -0.3309 -0.6535 -0.9823
   16CHL1  H24B 1174   3.027   0.130   8.990  1.1819 -0.6618  0.6386
   16CHL1   C25 1175   3.033  -0.035   8.860  0.6844  0.2322 -0.2408
   16CHL1   H25 1176   3.137  -0.056   8.892  0.3545 -0.3284  0.4899
   16CHL1   C26 1177   2.956  -0.167   8.824 -0.0160  1.0127 -0.3820
   16CHL1  H26A 1178   2.991  -0.203   8.725  0.4622  0.1304  0.0954
   16CHL1  H26B 1179   2.990  -0.247   8.893  0.7339 -0.0460 -1.9220
   16CHL1  H26C 1180   2.846  -0.151   8.823 -0.2997 -0.7383 -0.7860
   16CHL1   C27 1181   3.044   0.063   8.745  0.3828 -0.0890  0.1537
   16CHL1  H27A 1182   3.124   0.136   8.771  0.2868  0.4806 -1.0570
   16CHL1  H27B 1183   3.081   0.001   8.661  0.2791  0.2222 -0.1218
   16CHL1  H27C 1184   2.953   0.107   8.699  0.5701  1.8019  1.4578
   17CHL1    C3 1185   4.886   4.413  10.429 -0.5093  0.2213 -1.1010
   17CHL1    H3 1186   4.986   4.367  10.414 -0.9980 -2.5344  2.6080
   17CHL1    O3 1187   4.864   4.392  10.563 -0.2095  0.2547  0.5304
   17CHL1   H3' 1188   4.891   4.472  10.609 -1.4277  0.0536  1.6444
   17CHL1    C4 1189   4.876   4.560  10.398  0.0599 -0.6943 -0.0795
   17CHL1   H4A 1190   4.773   4.584  10.435  0.0793  2.8391 -1.9154
   17CHL1   H4B 1191   4.956   4.611  10.455 -0.0779  0.5972 -0.9825
   17CHL1    C5 1192   4.886   4.596  10.252  0.1290  0.4686  0.6206
   17CHL1    C6 1193   4.963   4.701  10.206 -0.1971 -0.1374 -0.5533
   17CHL1    H6 1194   5.027   4.767  10.268 -0.1422 -0.7129  0.0181
   17CHL1    C7 1195   4.971   4.752  10.066  0.4627 -0.3095  0.2445
   17CHL1   H7A 1196   4.984   4.861  10.054 -2.3718 -0.0561 -1.5389
   17CHL1   H7B 1197   5.061   4.704  10.022  1.3514  1.1843  0.3612
   17CHL1    C8 1198   4.853   4.690   9.984 -0.1841 -0.0530 -0.8812
   17CHL1    H8 1199   4.768   4.754  10.014 -1.4263 -0.9348 -2.3512
   17CHL1   C14 1200   4.893   4.703   9.839  0.2056 -0.4335 -0.1845
   17CHL1   H14 1201   4.998   4.668   9.828  0.8031  0.6269  1.5920
   17CHL1   C15 1202   4.905   4.844   9.780  0.9818 -0.4145 -0.4332
   17CHL1  H15A 1203   4.827   4.913   9.821  0.6829 -1.3245  0.5908
   17CHL1  H15B 1204   5.003   4.889   9.806 -0.0527  2.2252 -0.7100
   17CHL1   C16 1205   4.902   4.829   9.632 -0.2029  0.4763  0.4729
   17CHL1  H16A 1206   4.847   4.917   9.591 -0.0604  0.6272  0.6009
   17CHL1  H16B 1207   5.004   4.822   9.588 -0.7066 -1.3020 -0.5046
   17CHL1   C17 1208   4.844   4.696   9.602  1.0247  0.9123  0.5982
   17CHL1   H17 1209   4.932   4.637   9.571  0.8033 -0.4442  2.3839
   17CHL1   C13 1210   4.795   4.641   9.740  0.1281  0.4655  0.6922
   17CHL1   C18 1211   4.647   4.693   9.756  0.0447 -0.1236  0.5792
   17CHL1  H18A 1212   4.640   4.800   9.725 -2.3157 -0.7050 -1.1249
   17CHL1  H18B 1213   4.572   4.640   9.695  0.1182  1.3300 -0.8482
   17CHL1  H18C 1214   4.606   4.683   9.859  1.1116  1.7224  1.2572
   17CHL1   C12 1215   4.802   4.486   9.769  0.0725  0.5152  0.3225
   17CHL1  H12A 1216   4.733   4.435   9.698  0.1081  2.0790 -0.9012
   17CHL1  H12B 1217   4.905   4.448   9.754 -0.8490 -2.1410  0.2547
   17CHL1   C11 1218   4.754   4.454   9.913  0.4440 -0.3457  0.2092
   17CHL1  H11A 1219   4.646   4.480   9.922  0.5874 -0.1380  1.5121
   17CHL1  H11B 1220   4.765   4.348   9.944  4.0789 -0.1064  0.1691
   17CHL1    C9 1221   4.838   4.536  10.015  0.0454 -0.6507 -0.7806
   17CHL1    H9 1222   4.937   4.487  10.002  0.5908  0.2183 -0.0133
   17CHL1   C10 1223   4.796   4.509  10.162 -0.5897 -0.0560 -0.6493
   17CHL1   C19 1224   4.651   4.564  10.169  0.3542  0.4901 -0.0116
   17CHL1  H19A 1225   4.643   4.671  10.138  0.2660 -0.3470 -3.2390
   17CHL1  H19B 1226   4.589   4.500  10.103  2.1055 -1.1001 -0.2272
   17CHL1  H19C 1227   4.600   4.560  10.268 -0.8025  1.4859 -0.5400
   17CHL1    C1 1228   4.801   4.357  10.204  0.4196  0.5693  0.1966
   17CHL1   H1A 1229   4.730   4.296  10.143 -1.1827  2.6225 -0.1347
   17CHL1   H1B 1230   4.908   4.330  10.200  0.5215  0.8569  1.0010
   17CHL1    C2 1231   4.775   4.331  10.356  0.3376 -0.6727  0.2697
   17CHL1   H2A 1232   4.787   4.225  10.385 -0.2498 -0.8060  0.0495
   17CHL1   H2B 1233   4.677   4.369  10.392  1.0925  0.6740  0.9693
   17CHL1   C20 1234   4.750   4.690   9.477 -0.1776  0.1369  0.0078
   17CHL1   H20 1235   4.654   4.741   9.498  0.9478  2.4627 -0.1708
   17CHL1   C21 1236   4.727   4.546   9.433 -0.1842  1.0587 -0.2933
   17CHL1  H21A 1237   4.671   4.533   9.338 -1.9463 -0.7922  0.9159
   17CHL1  H21B 1238   4.676   4.483   9.508  1.2622 -0.7988 -0.7824
   17CHL1  H21C 1239   4.824   4.500   9.404 -0.8611 -0.4614 -0.2771
   17CHL1   C22 1240   4.813   4.771   9.362  0.1575  0.3098  0.2237
   17CHL1  H22A 1241   4.801   4.876   9.394 -1.7145  0.2814 -0.2958
   17CHL1  H22B 1242   4.917   4.734   9.346 -0.7486 -1.8892 -1.1545
   17CHL1   C23 1243   4.752   4.769   9.221  0.3404 -0.3479 -0.3872
   17CHL1  H23A 1244   4.767   4.668   9.178  0.2718 -0.5924  0.1573
   17CHL1  H23B 1245   4.645   4.798   9.232  0.5722  0.1507  0.6790
   17CHL1   C24 1246   4.829   4.861   9.118 -0.1727  0.2609 -0.1313
   17CHL1  H24A 1247   4.850   4.965   9.150 -2.3823  1.3015 -1.7512
   17CHL1  H24B 1248   4.931   4.823   9.096 -0.5912 -0.3863 -1.0389
   17CHL1   C25 1249   4.755   4.882   8.986  0.5084 -0.0468  1.2427
   17CHL1   H25 1250   4.830   4.925   8.918 -0.8216  0.0220 -0.2372
   17CHL1   C26 1251   4.685   4.764   8.920 -0.1529  0.7130 -0.6358
   17CHL1  H26A 1252   4.623   4.790   8.832 -1.1547  1.4357  0.2365
   17CHL1  H26B 1253   4.764   4.690   8.896  0.8755  0.9445  1.6959
   17CHL1  H26C 1254   4.619   4.708   8.990 -0.5267  0.5821 -1.0899
   17CHL1   C27 1255   4.641   4.987   9.006  0.4901 -0.5412  0.0629
   17CHL1  H27A 1256   4.683   5.078   9.054 -0.3944  0.2178 -0.5682
   17CHL1  H27B 1257   4.595   5.017   8.909  0.0031  0.0301  0.4658
   17CHL1  H27C 1258   4.560   4.943   9.068 -0.7212 -0.5036 -1.4225
   18CHL1    C3 1259   4.797   2.523  10.160 -0.0491 -0.0705  0.3119
   18CHL1    H3 1260   4.690   2.495  10.152 -0.0505 -0.2145  0.7674
   18CHL1    O3 1261   4.812   2.542  10.298 -0.1425 -0.0197 -0.7784
   18CHL1   H3' 1262   4.879   2.610  10.304 -0.9964  0.7293  4.0589
   18CHL1    C4 1263   4.891   2.415  10.101  0.2026  1.2587 -0.1473
   18CHL1   H4A 1264   4.990   2.443  10.143  0.4789  1.0318 -0.6354
   18CHL1   H4B 1265   4.857   2.324  10.154  0.5661  1.6354  0.7491
   18CHL1    C5 1266   4.895   2.395   9.946  0.3426 -0.0382  0.5021
   18CHL1    C6 1267   4.871   2.279   9.885 -0.0150 -0.8461 -0.1840
   18CHL1    H6 1268   4.857   2.195   9.955  0.5002 -0.3333  0.5588
   18CHL1    C7 1269   4.870   2.259   9.736  0.0633 -0.2065 -0.4807
   18CHL1   H7A 1270   4.925   2.164   9.717 -1.5741 -0.7565 -2.9871
   18CHL1   H7B 1271   4.767   2.230   9.706  0.1683 -1.3219  0.1551
   18CHL1    C8 1272   4.930   2.381   9.655 -0.4875  0.4818  0.6637
   18CHL1    H8 1273   5.041   2.388   9.665 -0.5502  0.1954  1.6196
   18CHL1   C14 1274   4.889   2.378   9.513 -0.1656  0.5456 -0.1286
   18CHL1   H14 1275   4.779   2.363   9.521 -0.0832  0.1375  0.2589
   18CHL1   C15 1276   4.931   2.255   9.442  0.2842 -0.1103  0.3091
   18CHL1  H15A 1277   5.040   2.240   9.455  0.4172  0.6827  0.2135
   18CHL1  H15B 1278   4.887   2.158   9.473  0.3064  0.2143  1.3943
   18CHL1   C16 1279   4.883   2.294   9.298  0.0847  0.8494  1.1856
   18CHL1  H16A 1280   4.955   2.261   9.220 -1.0459  1.2868 -0.0885
   18CHL1  H16B 1281   4.785   2.247   9.272  1.4101 -1.1193 -0.5434
   18CHL1   C17 1282   4.861   2.451   9.292 -0.9275 -0.3513 -0.1486
   18CHL1   H17 1283   4.752   2.467   9.285 -0.9446  0.8218  1.9162
   18CHL1   C13 1284   4.911   2.505   9.421  0.1777  0.1960 -0.4671
   18CHL1   C18 1285   5.065   2.526   9.417 -0.1644 -0.3853  0.9816
   18CHL1  H18A 1286   5.085   2.616   9.355  1.0569 -1.3376 -0.0816
   18CHL1  H18B 1287   5.106   2.539   9.519 -1.2339 -1.3144  1.5437
   18CHL1  H18C 1288   5.113   2.443   9.360 -1.7518 -0.8604  0.2737
   18CHL1   C12 1289   4.832   2.617   9.488 -0.1975 -0.2808 -0.7348
   18CHL1  H12A 1290   4.856   2.713   9.438  2.7989 -2.1951 -3.3893
   18CHL1  H12B 1291   4.724   2.593   9.487 -0.8865  2.3213  1.3464
   18CHL1   C11 1292   4.882   2.637   9.635  0.5090 -0.4651  0.0125
   18CHL1  H11A 1293   4.984   2.679   9.627  0.1902  0.7800  1.6841
   18CHL1  H11B 1294   4.823   2.717   9.686  0.2155 -0.5761 -0.1480
   18CHL1    C9 1295   4.864   2.504   9.721 -0.7604  0.1334  0.9497
   18CHL1    H9 1296   4.756   2.481   9.729 -0.9943  0.8823  0.0637
   18CHL1   C10 1297   4.903   2.528   9.874 -0.4479 -0.3438 -0.3444
   18CHL1   C19 1298   5.033   2.596   9.878 -0.3622 -0.3248  0.1187
   18CHL1  H19A 1299   5.072   2.605   9.981  2.0880  0.0417 -0.7908
   18CHL1  H19B 1300   5.113   2.535   9.831  0.8981  0.7316  0.8192
   18CHL1  H19C 1301   5.031   2.703   9.848  2.2713  0.4464  2.3141
   18CHL1    C1 1302   4.802   2.628   9.937 -0.1826 -0.1473 -0.9860
   18CHL1   H1A 1303   4.806   2.729   9.890  1.0811 -0.5466 -1.8032
   18CHL1   H1B 1304   4.701   2.584   9.920 -1.1990  1.4405  0.6546
   18CHL1    C2 1305   4.821   2.654  10.086 -0.4369 -0.1054 -0.1841
   18CHL1   H2A 1306   4.740   2.725  10.114 -0.0708  0.6976 -1.1350
   18CHL1   H2B 1307   4.919   2.697  10.116 -0.5291 -1.0426  1.6007
   18CHL1   C20 1308   4.907   2.507   9.151  0.4705 -1.3154  0.0864
   18CHL1   H20 1309   5.013   2.476   9.138  0.3984 -1.2085 -0.8337
   18CHL1   C21 1310   4.899   2.663   9.146 -0.2505 -0.1930  0.0660
   18CHL1  H21A 1311   4.791   2.680   9.165 -0.3344  1.2185 -1.5159
   18CHL1  H21B 1312   4.924   2.701   9.045 -0.6196  0.6371  0.2847
   18CHL1  H21C 1313   4.972   2.710   9.216 -1.4871 -0.3863  1.5564
   18CHL1   C22 1314   4.820   2.446   9.036  0.2405  0.3367  0.2505
   18CHL1  H22A 1315   4.805   2.339   9.063 -2.0252  0.2185 -1.2284
   18CHL1  H22B 1316   4.722   2.496   9.027  0.7513  0.9992 -2.7721
   18CHL1   C23 1317   4.875   2.472   8.893  0.4000 -0.4728  0.3589
   18CHL1  H23A 1318   4.865   2.583   8.884 -1.9734 -0.5487  1.1721
   18CHL1  H23B 1319   4.982   2.447   8.886  0.2750 -1.9544  2.6812
   18CHL1   C24 1320   4.799   2.416   8.774  0.0597  0.2948  0.7151
   18CHL1  H24A 1321   4.771   2.309   8.789  1.9562 -0.3440  0.0787
   18CHL1  H24B 1322   4.713   2.485   8.770 -2.6011 -2.8084 -0.5663
   18CHL1   C25 1323   4.868   2.434   8.630 -0.2238 -0.9204  0.5200
   18CHL1   H25 1324   4.804   2.375   8.561  0.9295 -2.0187  0.3490
   18CHL1   C26 1325   4.862   2.588   8.588  0.0065 -0.8063  0.1208
   18CHL1  H26A 1326   4.756   2.621   8.588 -0.0992 -1.1348 -0.2754
   18CHL1  H26B 1327   4.930   2.637   8.661  0.0451  1.6464 -1.4473
   18CHL1  H26C 1328   4.912   2.602   8.490 -0.0320 -0.3983  0.1583
   18CHL1   C27 1329   5.013   2.382   8.616  0.0248  0.6787 -0.0220
   18CHL1  H27A 1330   5.088   2.434   8.678 -0.0613  1.5591 -0.6425
   18CHL1  H27B 1331   5.019   2.273   8.637 -0.9651  1.0544  2.5845
   18CHL1  H27C 1332   5.041   2.392   8.509 -0.8463 -3.2289 -0.7764
   19CHL1    C3 1333   1.187   5.044  10.159 -0.0345 -0.4433  0.3152
   19CHL1    H3 1334   1.292   5.013  10.142  0.3161  0.5247  0.6424
   19CHL1    O3 1335   1.185   5.080  10.295  0.0205 -0.5461 -0.1022
   19CHL1   H3' 1336   1.158   5.001  10.343 -2.8426  1.0297  1.1328
   19CHL1    C4 1337   1.166   5.162  10.069  0.8478 -0.7428  0.2885
   19CHL1   H4A 1338   1.079   5.219  10.108  2.5255  0.3983  2.6871
   19CHL1   H4B 1339   1.253   5.231  10.084  0.5017 -0.3121  0.3302
   19CHL1    C5 1340   1.146   5.129   9.926  0.3752 -1.3165  0.4548
   19CHL1    C6 1341   1.221   5.194   9.831  0.4068  0.1403  0.6668
   19CHL1    H6 1342   1.293   5.265   9.872  0.4157  0.9865 -0.7622
   19CHL1    C7 1343   1.201   5.183   9.684 -0.6133 -1.2116  0.4961
   19CHL1   H7A 1344   1.215   5.275   9.624 -0.6516 -2.0933 -0.9013
   19CHL1   H7B 1345   1.286   5.120   9.652  0.1262 -0.7345  1.4607
   19CHL1    C8 1346   1.062   5.119   9.654  0.5451 -0.0501  0.0525
   19CHL1    H8 1347   0.985   5.195   9.678 -0.9068 -2.1236  2.5464
   19CHL1   C14 1348   1.050   5.077   9.507  0.2751 -0.0087  0.9081
   19CHL1   H14 1349   1.123   4.997   9.483 -1.3011 -0.5903 -2.6148
   19CHL1   C15 1350   1.073   5.187   9.396  0.0670 -0.5497 -0.4498
   19CHL1  H15A 1351   1.023   5.278   9.435 -0.5970 -0.4918 -1.3931
   19CHL1  H15B 1352   1.182   5.203   9.378 -0.0846 -1.2198 -2.1905
   19CHL1   C16 1353   1.011   5.127   9.270 -0.3466  0.3518 -0.3509
   19CHL1  H16A 1354   0.944   5.203   9.224  1.5226  1.9082 -0.6315
   19CHL1  H16B 1355   1.084   5.100   9.190 -0.4374 -0.0619 -0.2980
   19CHL1   C17 1356   0.945   4.994   9.311 -0.3554 -0.0139  0.9868
   19CHL1   H17 1357   1.019   4.912   9.297 -0.2579 -0.1343  2.1527
   19CHL1   C13 1358   0.919   5.010   9.462  0.4765  0.6333  0.1978
   19CHL1   C18 1359   0.800   5.114   9.492 -0.0165  0.4492  0.2112
   19CHL1  H18A 1360   0.800   5.140   9.600 -1.6579 -1.5767  0.7758
   19CHL1  H18B 1361   0.803   5.208   9.433  1.0198 -2.1642 -4.3736
   19CHL1  H18C 1362   0.695   5.081   9.474 -0.9765  3.2810  0.2041
   19CHL1   C12 1363   0.903   4.880   9.544 -0.0239 -0.2994 -0.7710
   19CHL1  H12A 1364   0.805   4.829   9.535 -1.0771  1.3954  0.4785
   19CHL1  H12B 1365   0.985   4.805   9.535  0.8245  0.2382  1.6617
   19CHL1   C11 1366   0.908   4.916   9.695  0.8289  0.2977  0.3221
   19CHL1  H11A 1367   0.812   4.965   9.721 -0.3326 -1.6295 -0.1871
   19CHL1  H11B 1368   0.902   4.826   9.759 -0.8709  0.9200  1.0897
   19CHL1    C9 1369   1.031   4.995   9.738 -0.3114 -0.4082 -0.0091
   19CHL1    H9 1370   1.104   4.913   9.721 -0.4693  0.1584 -4.7891
   19CHL1   C10 1371   1.034   5.029   9.892 -0.6073 -0.4931  0.5843
   19CHL1   C19 1372   0.895   5.086   9.930  0.1338 -0.1618 -0.6277
   19CHL1  H19A 1373   0.854   5.179   9.886 -0.1778 -0.8547 -1.8582
   19CHL1  H19B 1374   0.821   5.005   9.913  1.5226 -1.0442 -2.8587
   19CHL1  H19C 1375   0.908   5.105  10.039  1.1287  0.8083 -0.9070
   19CHL1    C1 1376   1.077   4.910   9.980  0.0306  0.0835 -0.5165
   19CHL1   H1A 1377   0.991   4.841   9.968 -0.5888  0.5550  1.0355
   19CHL1   H1B 1378   1.170   4.875   9.931 -0.4291  2.4033 -3.3068
   19CHL1    C2 1379   1.087   4.938  10.127  0.1060  0.2004 -0.2064
   19CHL1   H2A 1380   1.121   4.845  10.178  0.2151  1.0707  1.3762
   19CHL1   H2B 1381   0.991   4.963  10.176 -0.0361  1.3709 -1.0624
   19CHL1   C20 1382   0.831   4.963   9.219  1.0435  0.3174  0.6029
   19CHL1   H20 1383   0.763   5.050   9.207  2.0494  0.8716 -1.4315
   19CHL1   C21 1384   0.747   4.844   9.276 -0.8150  0.1364  0.2280
   19CHL1  H21A 1385   0.669   4.821   9.201 -0.2369 -0.0667 -0.3217
   19CHL1  H21B 1386   0.700   4.887   9.368  1.7179  0.2428  1.5561
   19CHL1  H21C 1387   0.809   4.754   9.294 -0.0623  0.3783 -1.0550
   19CHL1   C22 1388   0.870   4.930   9.067 -0.1212  0.8713  0.4247
   19CHL1  H22A 1389   0.775   4.909   9.014 -0.8738  0.3564  1.9138
   19CHL1  H22B 1390   0.919   5.016   9.016 -2.9169  1.6942 -1.1062
   19CHL1   C23 1391   0.948   4.799   9.054 -0.2177 -0.5295  0.0559
   19CHL1  H23A 1392   1.042   4.824   9.109 -0.1884  1.0335 -0.6384
   19CHL1  H23B 1393   0.900   4.715   9.109 -2.9491  2.0420  1.9538
   19CHL1   C24 1394   0.988   4.772   8.905  0.0182  0.0142  0.0156
   19CHL1  H24A 1395   0.898   4.766   8.840 -2.3166 -0.8457  3.1178
   19CHL1  H24B 1396   1.047   4.858   8.866 -2.3140  1.0057 -1.5683
   19CHL1   C25 1397   1.062   4.641   8.882  0.1371  0.3368  0.6603
   19CHL1   H25 1398   0.987   4.561   8.896  0.4508 -0.3781 -1.4196
   19CHL1   C26 1399   1.107   4.631   8.737 -0.2592  0.0616 -0.4192
   19CHL1  H26A 1400   1.119   4.525   8.708  0.5330 -0.3849  1.3890
   19CHL1  H26B 1401   1.031   4.667   8.664 -2.9823  0.4746  2.3856
   19CHL1  H26C 1402   1.205   4.682   8.729  0.3482 -0.0606  4.0153
   19CHL1   C27 1403   1.187   4.618   8.968  0.3501  0.5701 -0.3469
   19CHL1  H27A 1404   1.161   4.608   9.075  0.5691 -2.1597 -0.4808
   19CHL1  H27B 1405   1.220   4.517   8.935 -3.3161 -0.8321 -0.2020
   19CHL1  H27C 1406   1.270   4.692   8.957 -0.1358  1.3187  0.7667
   20CHL1    C3 1407   3.668   6.522  10.441 -0.3980 -0.6540 -0.4839
   20CHL1    H3 1408   3.604   6.613  10.444  0.1256 -0.3121  1.8088
   20CHL1    O3 1409   3.710   6.493  10.571  0.1709 -0.2360  0.0709
   20CHL1   H3' 1410   3.748   6.404  10.571  0.1578 -0.2487 -0.5183
   20CHL1    C4 1411   3.570   6.410  10.391 -0.0147  0.2546 -0.2349
   20CHL1   H4A 1412   3.612   6.308  10.406  0.6401  0.3742 -1.1550
   20CHL1   H4B 1413   3.489   6.402  10.467 -0.9683  0.8799 -1.1502
   20CHL1    C5 1414   3.531   6.435  10.249 -0.1245 -0.5953  0.7876
   20CHL1    C6 1415   3.400   6.441  10.220 -0.1124 -0.2921  0.0735
   20CHL1    H6 1416   3.323   6.414  10.294 -0.5547  0.2934 -0.1645
   20CHL1    C7 1417   3.354   6.456  10.082 -0.2639 -0.4191  0.9495
   20CHL1   H7A 1418   3.267   6.391  10.059  0.6603 -0.7519 -2.1776
   20CHL1   H7B 1419   3.331   6.564  10.063  2.8316  0.3445  1.0208
   20CHL1    C8 1420   3.457   6.418   9.972 -0.7779 -0.9753  0.6273
   20CHL1    H8 1421   3.493   6.313   9.977  1.6300 -0.1940  1.0075
   20CHL1   C14 1422   3.404   6.450   9.827  0.2148  0.1041  0.0331
   20CHL1   H14 1423   3.389   6.560   9.835  0.3635  0.0520  1.3952
   20CHL1   C15 1424   3.273   6.387   9.785 -0.4306 -0.0120  0.2296
   20CHL1  H15A 1425   3.272   6.281   9.817  0.1944  0.2605  1.1863
   20CHL1  H15B 1426   3.178   6.435   9.818 -2.1720 -2.1111 -1.3968
   20CHL1   C16 1427   3.276   6.387   9.627 -0.0095  0.8539 -0.0232
   20CHL1  H16A 1428   3.271   6.279   9.602  1.5000  1.0598 -1.3935
   20CHL1  H16B 1429   3.185   6.437   9.590 -0.6199 -1.7835 -2.4571
   20CHL1   C17 1430   3.421   6.443   9.592  0.4475  0.6982 -0.2149
   20CHL1   H17 1431   3.403   6.553   9.592 -0.3622  0.5896 -1.6217
   20CHL1   C13 1432   3.504   6.423   9.719  0.1655  0.3607 -0.3108
   20CHL1   C18 1433   3.552   6.275   9.719  0.5569  0.1302  0.3424
   20CHL1  H18A 1434   3.611   6.243   9.808  1.4312  1.9788  0.4716
   20CHL1  H18B 1435   3.465   6.207   9.707  0.6082 -0.1567  1.4633
   20CHL1  H18C 1436   3.617   6.255   9.631  0.4622  2.5994 -0.3601
   20CHL1   C12 1437   3.624   6.517   9.750 -0.5145 -0.6688  0.3056
   20CHL1  H12A 1438   3.705   6.510   9.674 -1.1949  0.2937 -0.5355
   20CHL1  H12B 1439   3.584   6.621   9.749  2.3032  0.5080 -0.3596
   20CHL1   C11 1440   3.689   6.499   9.891  0.0541 -0.5097  0.1105
   20CHL1  H11A 1441   3.740   6.401   9.885 -3.1892 -2.2284 -3.1434
   20CHL1  H11B 1442   3.767   6.577   9.899 -0.0786 -0.4413  0.8408
   20CHL1    C9 1443   3.585   6.500  10.005  0.4937  0.4109 -0.5768
   20CHL1    H9 1444   3.555   6.604  10.029 -1.1668  0.0467 -0.9776
   20CHL1   C10 1445   3.641   6.456  10.147 -0.0696  0.1160  0.1190
   20CHL1   C19 1446   3.724   6.324  10.134  0.6276 -0.0150  0.1453
   20CHL1  H19A 1447   3.653   6.248  10.096 -0.8787  0.9441  0.9883
   20CHL1  H19B 1448   3.808   6.322  10.060  1.5334  1.1279  1.1123
   20CHL1  H19C 1449   3.761   6.286  10.231  0.7030 -0.4682 -0.0556
   20CHL1    C1 1450   3.738   6.572  10.196  0.4703  0.7430 -1.2073
   20CHL1   H1A 1451   3.818   6.587  10.121  0.8456  0.9690 -0.7724
   20CHL1   H1B 1452   3.670   6.658  10.212  0.9475  0.9564 -0.2192
   20CHL1    C2 1453   3.791   6.542  10.341 -0.0728  0.6218 -0.1533
   20CHL1   H2A 1454   3.852   6.632  10.365 -0.5915  1.2240 -1.0282
   20CHL1   H2B 1455   3.860   6.455  10.342  0.5362  1.0446 -1.8640
   20CHL1   C20 1456   3.468   6.387   9.462 -0.3020 -0.2045 -0.0089
   20CHL1   H20 1457   3.481   6.277   9.464 -0.7008 -0.3466 -2.2215
   20CHL1   C21 1458   3.608   6.439   9.429 -0.4208 -0.5186 -0.1545
   20CHL1  H21A 1459   3.677   6.415   9.512 -1.3144 -0.6964  0.5567
   20CHL1  H21B 1460   3.615   6.546   9.400  1.2685  0.1964  2.5216
   20CHL1  H21C 1461   3.647   6.371   9.350  0.1736 -1.6974  1.1311
   20CHL1   C22 1462   3.359   6.417   9.345 -1.0137  0.6116 -0.4454
   20CHL1  H22A 1463   3.263   6.376   9.384  0.9331 -1.6734  2.3614
   20CHL1  H22B 1464   3.364   6.527   9.331 -0.1594  0.4626 -1.4714
   20CHL1   C23 1465   3.404   6.346   9.208  0.5528 -0.1533 -0.6645
   20CHL1  H23A 1466   3.486   6.402   9.159  1.0390  0.0471  0.3398
   20CHL1  H23B 1467   3.437   6.243   9.235  1.0157 -0.2488 -1.5727
   20CHL1   C24 1468   3.289   6.321   9.106  0.0007  0.4342 -0.6505
   20CHL1  H24A 1469   3.190   6.315   9.157  0.0163 -0.7471 -0.7297
   20CHL1  H24B 1470   3.290   6.417   9.050  1.4922  0.9559  0.2208
   20CHL1   C25 1471   3.304   6.205   9.004 -0.2709 -0.4938 -0.7368
   20CHL1   H25 1472   3.403   6.216   8.954  0.2787  2.9880  0.7910
   20CHL1   C26 1473   3.301   6.066   9.068  0.9389 -0.3800  0.5554
   20CHL1  H26A 1474   3.368   6.057   9.156 -0.0570 -0.3378  1.3318
   20CHL1  H26B 1475   3.200   6.026   9.093  0.6087  1.4877  2.5647
   20CHL1  H26C 1476   3.344   6.004   8.987 -1.7870 -0.2650 -1.1113
   20CHL1   C27 1477   3.201   6.203   8.895 -0.4886  0.0690 -0.4053
   20CHL1  H27A 1478   3.216   6.298   8.838  0.7413 -0.5966 -1.2238
   20CHL1  H27B 1479   3.236   6.124   8.826 -1.0337 -1.1341  0.6445
   20CHL1  H27C 1480   3.096   6.182   8.926 -0.2003  0.5009  0.9252
   21CHL1    C3 1481   4.222   3.088  10.328  0.0122 -0.3452 -0.0668
   21CHL1    H3 1482   4.249   2.981  10.315 -0.5170 -0.4375 -0.4302
   21CHL1    O3 1483   4.208   3.121  10.466 -0.0996  0.6233  0.3472
   21CHL1   H3' 1484   4.186   3.215  10.467 -2.0921  0.2104 -0.4417
   21CHL1    C4 1485   4.322   3.179  10.262 -0.3434 -0.5293 -0.5299
   21CHL1   H4A 1486   4.305   3.287  10.285  1.9014 -0.0569 -0.7976
   21CHL1   H4B 1487   4.420   3.160  10.311 -0.2079 -2.2780 -1.3925
   21CHL1    C5 1488   4.332   3.160  10.115  0.1903 -0.4785  0.2302
   21CHL1    C6 1489   4.439   3.123  10.051 -0.8364  0.1656  1.1349
   21CHL1    H6 1490   4.529   3.089  10.104  0.1518  0.4427 -0.2859
   21CHL1    C7 1491   4.454   3.130   9.898  0.3267  0.1996  0.7353
   21CHL1   H7A 1492   4.554   3.171   9.875 -0.3630  1.9742  0.7712
   21CHL1   H7B 1493   4.446   3.032   9.845 -0.0083  1.6395 -2.0547
   21CHL1    C8 1494   4.342   3.210   9.830 -0.0990  0.1299  0.3466
   21CHL1    H8 1495   4.371   3.317   9.835 -1.1640  0.4355  0.3091
   21CHL1   C14 1496   4.331   3.169   9.679 -0.1650  0.1371 -0.1182
   21CHL1   H14 1497   4.305   3.061   9.670  0.0538  0.0852 -0.1476
   21CHL1   C15 1498   4.465   3.180   9.591 -0.4319  0.1504  0.7119
   21CHL1  H15A 1499   4.535   3.260   9.621  0.4387 -0.6300  0.7977
   21CHL1  H15B 1500   4.516   3.082   9.605  1.0164  1.0804  2.2939
   21CHL1   C16 1501   4.416   3.191   9.444  1.3133 -0.3491  0.1189
   21CHL1  H16A 1502   4.461   3.282   9.400 -0.3350 -0.4037 -1.7978
   21CHL1  H16B 1503   4.443   3.103   9.382  0.2457 -0.9798  0.5132
   21CHL1   C17 1504   4.258   3.199   9.450  0.1133 -0.4757 -0.0180
   21CHL1   H17 1505   4.229   3.092   9.443 -2.6449  0.2552 -1.1973
   21CHL1   C13 1506   4.221   3.247   9.595 -0.7529  0.0887 -0.4231
   21CHL1   C18 1507   4.245   3.400   9.608 -0.0884 -0.2616 -0.9803
   21CHL1  H18A 1508   4.343   3.425   9.562 -1.2318  0.9035 -2.8885
   21CHL1  H18B 1509   4.171   3.461   9.552 -0.3676  1.6341  1.2901
   21CHL1  H18C 1510   4.234   3.446   9.709  1.4333 -3.1088  0.5942
   21CHL1   C12 1511   4.082   3.221   9.662  0.1350  0.6274  0.2325
   21CHL1  H12A 1512   3.996   3.278   9.619  1.7251  1.5679 -1.8821
   21CHL1  H12B 1513   4.066   3.115   9.632 -0.4978  1.3689 -2.3407
   21CHL1   C11 1514   4.092   3.253   9.818  0.0298 -0.0126  0.0126
   21CHL1  H11A 1515   4.099   3.361   9.842 -0.6232  0.3062 -1.1014
   21CHL1  H11B 1516   3.996   3.212   9.857 -0.5130  2.4901  1.5404
   21CHL1    C9 1517   4.208   3.182   9.894 -0.1939  0.0297 -0.3829
   21CHL1    H9 1518   4.196   3.072   9.878  0.3728 -0.0908 -0.0017
   21CHL1   C10 1519   4.201   3.200  10.053 -0.0918 -0.8274 -0.0918
   21CHL1   C19 1520   4.164   3.352  10.088 -0.0773 -0.4046 -0.2587
   21CHL1  H19A 1521   4.244   3.413  10.042 -0.5527 -0.2510 -0.9015
   21CHL1  H19B 1522   4.064   3.383  10.051  0.4298  0.2177 -1.1418
   21CHL1  H19C 1523   4.156   3.375  10.197  1.4073  0.4848 -0.3142
   21CHL1    C1 1524   4.090   3.099  10.105  0.2982  0.4330  0.3759
   21CHL1   H1A 1525   3.990   3.127  10.066 -0.6194 -2.0038  0.7791
   21CHL1   H1B 1526   4.125   2.998  10.074  3.3921  1.6036 -0.3550
   21CHL1    C2 1527   4.084   3.105  10.260 -0.4849  0.7663  0.2555
   21CHL1   H2A 1528   4.011   3.035  10.305  0.8507 -0.0535  1.2435
   21CHL1   H2B 1529   4.048   3.207  10.286  0.1994  1.7731 -2.3589
   21CHL1   C20 1530   4.204   3.268   9.321  0.8187 -0.3594  0.6208
   21CHL1   H20 1531   4.261   3.363   9.318 -2.5044  1.8072 -3.6729
   21CHL1   C21 1532   4.057   3.304   9.333 -0.9904 -0.4672  0.0250
   21CHL1  H21A 1533   4.000   3.216   9.372 -2.2834 -0.8272 -2.4766
   21CHL1  H21B 1534   4.006   3.340   9.241 -1.3256  1.3940  0.8928
   21CHL1  H21C 1535   4.058   3.388   9.405  1.9884 -0.4729  0.1080
   21CHL1   C22 1536   4.245   3.189   9.197  0.0841 -0.1952 -0.1201
   21CHL1  H22A 1537   4.334   3.124   9.206 -0.8806 -1.5471 -0.0950
   21CHL1  H22B 1538   4.161   3.120   9.175  1.2061 -1.2633 -1.1776
   21CHL1   C23 1539   4.266   3.282   9.078 -0.3235  0.3915 -0.6479
   21CHL1  H23A 1540   4.170   3.337   9.074 -1.0510 -0.8020 -0.0083
   21CHL1  H23B 1541   4.346   3.357   9.100 -1.8339  1.5414  1.1993
   21CHL1   C24 1542   4.272   3.210   8.942 -0.1636  0.1999  0.0904
   21CHL1  H24A 1543   4.235   3.106   8.944 -2.8978  1.0837  0.5115
   21CHL1  H24B 1544   4.200   3.260   8.874 -0.6180 -0.8527 -0.2179
   21CHL1   C25 1545   4.414   3.200   8.876 -0.2888 -0.4997  0.2715
   21CHL1   H25 1546   4.467   3.137   8.950 -0.3274 -1.4704 -0.5047
   21CHL1   C26 1547   4.405   3.111   8.757 -0.1954 -0.2171  0.1437
   21CHL1  H26A 1548   4.506   3.102   8.711  0.5952  2.1602  1.2240
   21CHL1  H26B 1549   4.376   3.008   8.784  3.4481 -1.3017  0.5469
   21CHL1  H26C 1550   4.352   3.160   8.672 -1.0333  0.1181  0.8524
   21CHL1   C27 1551   4.491   3.326   8.853  0.1256 -0.3605  0.3075
   21CHL1  H27A 1552   4.424   3.386   8.788  0.0289  0.8795  1.4985
   21CHL1  H27B 1553   4.504   3.384   8.947  0.0224  2.0117 -1.0748
   21CHL1  H27C 1554   4.592   3.310   8.810  0.0608  0.1823 -0.0435
   22CHL1    C3 1555   2.846   4.139  10.113 -0.2407 -0.3768  0.4105
   22CHL1    H3 1556   2.848   4.029  10.094  1.7355 -0.2984  0.0228
   22CHL1    O3 1557   2.864   4.151  10.245 -0.0015 -0.3235 -0.4386
   22CHL1   H3' 1558   2.834   4.072  10.291 -0.3350  1.5290  2.8410
   22CHL1    C4 1559   2.955   4.198  10.024 -0.3082 -0.8259  0.5287
   22CHL1   H4A 1560   2.970   4.301  10.062  1.4534 -0.9560  0.2932
   22CHL1   H4B 1561   3.055   4.159  10.052  0.3744  1.1496  1.0093
   22CHL1    C5 1562   2.931   4.196   9.874 -0.8650  0.3620 -0.1664
   22CHL1    C6 1563   3.021   4.135   9.793  0.2145 -0.3888  0.1254
   22CHL1    H6 1564   3.117   4.093   9.825  0.2559 -0.2969  0.1209
   22CHL1    C7 1565   3.003   4.131   9.645 -0.5051  0.0157 -0.6244
   22CHL1   H7A 1566   3.098   4.179   9.611 -0.6134  1.6794  1.2363
   22CHL1   H7B 1567   3.003   4.024   9.616  0.7135 -0.7500  1.8875
   22CHL1    C8 1568   2.880   4.200   9.592  0.3021 -0.5685  0.0435
   22CHL1    H8 1569   2.909   4.306   9.575  0.7605 -1.0305 -2.3723
   22CHL1   C14 1570   2.846   4.143   9.457 -1.1160 -0.6556  0.1554
   22CHL1   H14 1571   2.827   4.034   9.467 -1.1308 -0.5169  1.8287
   22CHL1   C15 1572   2.951   4.145   9.338 -0.0963 -0.0374  0.7075
   22CHL1  H15A 1573   3.005   4.242   9.347 -0.0032 -0.1483  1.4332
   22CHL1  H15B 1574   3.035   4.072   9.336  1.2971  1.5119  0.2435
   22CHL1   C16 1575   2.862   4.126   9.210 -0.1036  0.2117  0.0860
   22CHL1  H16A 1576   2.882   4.204   9.134  2.0511  0.1379  0.4934
   22CHL1  H16B 1577   2.875   4.021   9.176  0.0588  0.2269  0.0977
   22CHL1   C17 1578   2.715   4.149   9.255 -0.1808  0.1387  0.5040
   22CHL1   H17 1579   2.663   4.052   9.268  0.1743 -0.4484 -1.8860
   22CHL1   C13 1580   2.723   4.212   9.395  0.2120 -0.6511 -0.1106
   22CHL1   C18 1581   2.750   4.364   9.372  0.8849 -0.1788  0.5474
   22CHL1  H18A 1582   2.790   4.414   9.463 -0.3110  1.6506  0.1235
   22CHL1  H18B 1583   2.826   4.384   9.294  0.2634 -1.9858 -0.5998
   22CHL1  H18C 1584   2.650   4.410   9.357  1.2507  0.0744 -1.3434
   22CHL1   C12 1585   2.602   4.185   9.487 -0.3874 -0.6874  0.1588
   22CHL1  H12A 1586   2.507   4.232   9.454 -0.1441  0.3513  0.8917
   22CHL1  H12B 1587   2.589   4.076   9.505 -1.0121 -0.2635  2.5377
   22CHL1   C11 1588   2.628   4.245   9.623 -0.0450 -0.4617 -0.1876
   22CHL1  H11A 1589   2.642   4.355   9.611 -3.0146 -0.0331 -0.5452
   22CHL1  H11B 1590   2.539   4.231   9.688  0.0178 -0.6143 -0.1350
   22CHL1    C9 1591   2.756   4.185   9.685 -0.6003  0.1355 -0.5455
   22CHL1    H9 1592   2.737   4.076   9.695 -0.3499 -0.0317 -1.7400
   22CHL1   C10 1593   2.789   4.241   9.830  0.0781  0.0432  0.5190
   22CHL1   C19 1594   2.786   4.400   9.830  0.2749  0.0682  0.3341
   22CHL1  H19A 1595   2.853   4.445   9.753  1.0372 -0.3624  0.7335
   22CHL1  H19B 1596   2.683   4.432   9.802  0.4123  0.1043 -0.1483
   22CHL1  H19C 1597   2.812   4.432   9.933  0.1153  1.4461 -0.0336
   22CHL1    C1 1598   2.677   4.188   9.930  0.4799  0.1198  0.5515
   22CHL1   H1A 1599   2.584   4.249   9.919  0.7729  0.5428  0.3905
   22CHL1   H1B 1600   2.635   4.088   9.904 -1.8719  0.7094  1.8258
   22CHL1    C2 1601   2.713   4.204  10.077  0.2931  0.3018 -0.1137
   22CHL1   H2A 1602   2.626   4.172  10.138 -0.7702  1.0491 -1.1859
   22CHL1   H2B 1603   2.726   4.313  10.094  0.4692  0.0720  1.3113
   22CHL1   C20 1604   2.634   4.207   9.139 -0.1872 -0.3861 -0.5116
   22CHL1   H20 1605   2.686   4.301   9.111  0.9129 -0.4614  1.1997
   22CHL1   C21 1606   2.490   4.238   9.173 -0.0125  0.1055 -0.7008
   22CHL1  H21A 1607   2.449   4.145   9.217  1.0401 -0.2584 -0.4400
   22CHL1  H21B 1608   2.430   4.269   9.085 -1.8008  0.7719  0.6809
   22CHL1  H21C 1609   2.491   4.311   9.257  1.4765 -2.3262  1.5449
   22CHL1   C22 1610   2.630   4.122   9.007 -0.5849  0.1039 -0.4388
   22CHL1  H22A 1611   2.732   4.101   8.968 -0.1049  0.7919  0.4026
   22CHL1  H22B 1612   2.569   4.030   9.017  0.0233 -0.2875 -0.3258
   22CHL1   C23 1613   2.585   4.210   8.885  1.0108  0.9561 -0.0928
   22CHL1  H23A 1614   2.488   4.264   8.887 -0.7127 -2.0018  0.0912
   22CHL1  H23B 1615   2.662   4.290   8.878  2.3008 -0.3689 -2.1604
   22CHL1   C24 1616   2.596   4.137   8.750  0.8119  0.1572 -0.3852
   22CHL1  H24A 1617   2.705   4.135   8.733  1.2001  2.1709  1.3267
   22CHL1  H24B 1618   2.555   4.034   8.756  1.8954 -0.2340  0.7709
   22CHL1   C25 1619   2.543   4.214   8.623  0.3410  0.3768 -0.2198
   22CHL1   H25 1620   2.595   4.170   8.535  1.7853  1.9353 -0.1900
   22CHL1   C26 1621   2.394   4.197   8.597 -0.5261 -0.5974 -0.2481
   22CHL1  H26A 1622   2.323   4.238   8.673  1.8771  0.2359  1.6984
   22CHL1  H26B 1623   2.373   4.236   8.495  0.3056  0.2111 -0.1222
   22CHL1  H26C 1624   2.370   4.089   8.588  0.0029 -0.6292 -1.3570
   22CHL1   C27 1625   2.584   4.362   8.625  0.3502  0.6708 -0.1546
   22CHL1  H27A 1626   2.542   4.411   8.535  1.2513 -0.5289 -1.2716
   22CHL1  H27B 1627   2.531   4.417   8.706  1.1102  0.4512  0.5211
   22CHL1  H27C 1628   2.692   4.382   8.644  0.1948  2.5671 -1.0709
   23CHL1    C3 1629   0.048   5.843  10.240 -0.2991 -0.1850  0.3216
   23CHL1    H3 1630   0.082   5.739  10.219 -1.1244 -0.6721  1.3084
   23CHL1    O3 1631   0.043   5.864  10.380  0.1438  0.1635 -0.0505
   23CHL1   H3' 1632   0.063   5.957  10.393 -2.8387  0.8062  0.6790
   23CHL1    C4 1633   0.143   5.952  10.188 -0.3913  0.5083 -0.1145
   23CHL1   H4A 1634   0.117   6.055  10.222 -2.4696 -0.8596  2.8384
   23CHL1   H4B 1635   0.243   5.924  10.229 -1.3393 -0.4976  1.6185
   23CHL1    C5 1636   0.137   5.930  10.037 -0.0431  0.4545  0.3783
   23CHL1    C6 1637   0.251   5.893   9.968 -0.1372 -0.0117 -0.7469
   23CHL1    H6 1638   0.340   5.892  10.033 -1.0315  3.4261  0.7425
   23CHL1    C7 1639   0.264   5.889   9.823 -0.0144 -0.0984 -0.5943
   23CHL1   H7A 1640   0.367   5.918   9.791 -0.0718 -0.2991 -0.9772
   23CHL1   H7B 1641   0.253   5.785   9.784  3.0049 -1.5374  1.9356
   23CHL1    C8 1642   0.148   5.962   9.752 -0.1069 -0.1247 -0.0741
   23CHL1    H8 1643   0.165   6.071   9.769 -0.4185  0.2559 -2.0335
   23CHL1   C14 1644   0.159   5.926   9.604  0.1885 -0.1854 -0.1105
   23CHL1   H14 1645   0.137   5.817   9.605  2.5126 -0.6945  1.1806
   23CHL1   C15 1646   0.281   5.954   9.520 -0.1447 -0.3154  0.1882
   23CHL1  H15A 1647   0.318   6.054   9.552  0.4349 -0.1362 -0.9997
   23CHL1  H15B 1648   0.365   5.884   9.537  1.5431  0.9285 -2.3175
   23CHL1   C16 1649   0.234   5.943   9.372 -0.3923 -0.3481 -0.1317
   23CHL1  H16A 1650   0.272   6.041   9.336  0.9967 -0.6349  0.4887
   23CHL1  H16B 1651   0.282   5.854   9.327  0.4365 -0.9605  1.8754
   23CHL1   C17 1652   0.074   5.946   9.382  0.5205 -0.4615 -0.3685
   23CHL1   H17 1653   0.030   5.845   9.374 -3.2860  0.8122  1.8713
   23CHL1   C13 1654   0.044   5.985   9.525  0.5187  0.0445 -0.2828
   23CHL1   C18 1655   0.042   6.135   9.537 -0.4807 -0.3356 -0.1109
   23CHL1  H18A 1656   0.146   6.161   9.506  0.0519 -0.6533  1.3403
   23CHL1  H18B 1657  -0.024   6.193   9.469 -0.8071  2.7492  2.6069
   23CHL1  H18C 1658   0.030   6.179   9.639 -2.2082  1.1645 -0.9010
   23CHL1   C12 1659  -0.089   5.929   9.576  0.0728  0.6518 -0.4426
   23CHL1  H12A 1660  -0.172   5.981   9.523 -0.6548  1.4448  1.3690
   23CHL1  H12B 1661  -0.099   5.820   9.560  1.4313  0.7327 -2.0417
   23CHL1   C11 1662  -0.105   5.962   9.729  0.0322 -0.2987  0.5280
   23CHL1  H11A 1663  -0.116   6.072   9.733  0.3622 -0.1733 -1.3003
   23CHL1  H11B 1664  -0.202   5.919   9.763 -0.6892 -0.4128 -1.5131
   23CHL1    C9 1665   0.013   5.919   9.814 -0.3160 -0.0485  0.1728
   23CHL1    H9 1666   0.017   5.808   9.807 -0.6050 -0.0506  0.0487
   23CHL1   C10 1667   0.007   5.951   9.967  0.7198  0.7779 -0.5474
   23CHL1   C19 1668  -0.032   6.105   9.990 -0.4585  0.1524 -0.0821
   23CHL1  H19A 1669   0.037   6.162   9.925 -0.5664  1.1430  0.6534
   23CHL1  H19B 1670  -0.139   6.114   9.960 -0.5158  0.5993  0.2555
   23CHL1  H19C 1671  -0.029   6.139  10.095 -1.6564  0.3625 -0.0945
   23CHL1    C1 1672  -0.099   5.853  10.033  0.4253  0.3853  0.0661
   23CHL1   H1A 1673  -0.204   5.884  10.011  1.0278  2.1687 -0.4742
   23CHL1   H1B 1674  -0.078   5.747  10.007 -0.8119  0.4512 -1.3129
   23CHL1    C2 1675  -0.095   5.866  10.190 -0.8421  0.2313  0.0658
   23CHL1   H2A 1676  -0.154   5.779  10.227 -0.3740 -1.4263 -2.7750
   23CHL1   H2B 1677  -0.131   5.966  10.223 -1.5006  0.1789 -0.4581
   23CHL1   C20 1678   0.011   6.026   9.263  0.7141 -0.6487  0.3629
   23CHL1   H20 1679   0.041   6.133   9.271  2.6537 -1.1137 -0.1910
   23CHL1   C21 1680  -0.148   6.029   9.268  0.2978 -0.5930  0.3437
   23CHL1  H21A 1681  -0.189   6.069   9.173  2.9205 -0.4768 -0.8316
   23CHL1  H21B 1682  -0.182   6.096   9.350  1.8481 -1.7031  1.9797
   23CHL1  H21C 1683  -0.189   5.928   9.287  2.4949 -1.3005  1.7324
   23CHL1   C22 1684   0.057   5.970   9.133 -0.0440 -0.3627 -0.2897
   23CHL1  H22A 1685   0.154   5.915   9.134  0.1496 -0.0517  1.4915
   23CHL1  H22B 1686  -0.021   5.898   9.100 -0.6709  1.3225 -2.7812
   23CHL1   C23 1687   0.065   6.083   9.026  1.1098  0.3998 -0.5521
   23CHL1  H23A 1688  -0.036   6.123   9.000 -0.0937 -2.2828 -0.3294
   23CHL1  H23B 1689   0.125   6.164   9.073  0.7055  0.6601 -0.4753
   23CHL1   C24 1690   0.133   6.030   8.900 -0.3153 -0.4529  0.1368
   23CHL1  H24A 1691   0.224   5.969   8.916  0.3418  0.8033  1.4043
   23CHL1  H24B 1692   0.067   5.952   8.856 -0.7110 -0.2677  0.4000
   23CHL1   C25 1693   0.157   6.154   8.808  0.1182  0.2547 -0.8026
   23CHL1   H25 1694   0.216   6.228   8.867 -0.7113  0.0411  0.3185
   23CHL1   C26 1695   0.248   6.120   8.685 -0.1185  0.3735 -0.1469
   23CHL1  H26A 1696   0.244   6.211   8.621 -1.3073 -0.2988 -1.0763
   23CHL1  H26B 1697   0.355   6.112   8.714 -0.3550 -3.0690  0.1128
   23CHL1  H26C 1698   0.211   6.034   8.626  2.8170  0.6123 -2.5500
   23CHL1   C27 1699   0.028   6.211   8.761  0.0552  0.3185 -0.5669
   23CHL1  H27A 1700  -0.043   6.127   8.746  2.8031 -2.1464 -0.6802
   23CHL1  H27B 1701  -0.001   6.288   8.836  0.8410  1.1100 -1.0566
   23CHL1  H27C 1702   0.031   6.259   8.660  1.2599  2.5080  0.4342
   24CHL1    C3 1703   2.288   6.402  10.180  0.0248  0.3787  0.3238
   24CHL1    H3 1704   2.319   6.298  10.160 -0.8277 -0.3697  2.5167
   24CHL1    O3 1705   2.280   6.419  10.324 -0.6387 -0.0531  0.6318
   24CHL1   H3' 1706   2.282   6.515  10.328 -0.7058 -0.0651  0.9801
   24CHL1    C4 1707   2.377   6.509  10.115 -0.4334  0.2666  0.3005
   24CHL1   H4A 1708   2.336   6.606  10.149 -0.2792  0.0842  1.0365
   24CHL1   H4B 1709   2.480   6.493  10.154  0.1856  0.1713 -1.2871
   24CHL1    C5 1710   2.379   6.503   9.958  0.6594  0.4707 -0.5057
   24CHL1    C6 1711   2.485   6.468   9.885  0.1215  0.3321 -0.1991
   24CHL1    H6 1712   2.581   6.440   9.929  0.5261 -2.6309 -2.6062
   24CHL1    C7 1713   2.483   6.453   9.738 -0.4409  0.2362 -0.3630
   24CHL1   H7A 1714   2.572   6.500   9.692 -0.6802 -1.1209 -2.3262
   24CHL1   H7B 1715   2.481   6.344   9.715 -0.8562  0.1710 -0.0345
   24CHL1    C8 1716   2.359   6.508   9.669  0.0889 -0.4122  0.0200
   24CHL1    H8 1717   2.367   6.619   9.676  0.2215 -0.4844  1.2608
   24CHL1   C14 1718   2.351   6.464   9.522  0.2836  0.6916 -0.1572
   24CHL1   H14 1719   2.328   6.356   9.525  1.4522  0.3776 -1.3033
   24CHL1   C15 1720   2.462   6.494   9.422  0.7782 -0.0168 -0.4332
   24CHL1  H15A 1721   2.490   6.601   9.436  1.2038 -0.5393  4.1955
   24CHL1  H15B 1722   2.550   6.428   9.438  0.9942  0.7122  1.5898
   24CHL1   C16 1723   2.402   6.472   9.280  0.2075  0.1043 -0.9136
   24CHL1  H16A 1724   2.438   6.557   9.219  0.6589  0.9563  0.5119
   24CHL1  H16B 1725   2.442   6.380   9.232 -1.2415 -1.1913  0.2455
   24CHL1   C17 1726   2.247   6.455   9.300 -0.0620  0.4382  0.6380
   24CHL1   H17 1727   2.239   6.344   9.306 -0.7884  0.5109  1.2119
   24CHL1   C13 1728   2.227   6.519   9.444 -0.7104  0.4585 -0.2056
   24CHL1   C18 1729   2.238   6.671   9.436  0.2604 -0.7079  0.2021
   24CHL1  H18A 1730   2.262   6.718   9.534  2.1224  3.0799 -1.8931
   24CHL1  H18B 1731   2.314   6.706   9.364 -0.1386 -0.0699  0.0837
   24CHL1  H18C 1732   2.147   6.716   9.390  0.1121  0.0874  1.2497
   24CHL1   C12 1733   2.097   6.477   9.518 -0.1489  0.7273 -0.1310
   24CHL1  H12A 1734   2.011   6.523   9.464 -1.5302 -1.9045 -0.3206
   24CHL1  H12B 1735   2.082   6.367   9.508 -0.6660  0.9561 -2.2341
   24CHL1   C11 1736   2.105   6.512   9.671  0.6474 -0.3134  0.5302
   24CHL1  H11A 1737   2.092   6.622   9.675  0.6759 -0.3519  1.9736
   24CHL1  H11B 1738   2.008   6.476   9.712  0.3981 -0.2621 -0.0037
   24CHL1    C9 1739   2.234   6.468   9.746 -0.2439 -0.7823 -0.4930
   24CHL1    H9 1740   2.244   6.359   9.730 -0.4311 -1.0527  1.0668
   24CHL1   C10 1741   2.234   6.509   9.899  0.1388  0.7071  0.6256
   24CHL1   C19 1742   2.165   6.646   9.912 -0.0836 -0.2557  0.4309
   24CHL1  H19A 1743   2.057   6.639   9.888 -0.2126  0.4903  0.7602
   24CHL1  H19B 1744   2.174   6.683  10.017  0.0139 -1.1604  0.7591
   24CHL1  H19C 1745   2.204   6.722   9.842  0.4267 -0.3109  0.6526
   24CHL1    C1 1746   2.145   6.402   9.981  0.2037  0.5198 -0.1477
   24CHL1   H1A 1747   2.039   6.418   9.949 -0.3635  0.1612  1.4254
   24CHL1   H1B 1748   2.180   6.300   9.956 -0.4467  0.6181 -1.5494
   24CHL1    C2 1749   2.138   6.429  10.126  0.3234  0.6672 -0.4123
   24CHL1   H2A 1750   2.064   6.361  10.174 -0.1549 -0.0043 -2.0393
   24CHL1   H2B 1751   2.097   6.525  10.164 -1.0338 -1.1311  3.2507
   24CHL1   C20 1752   2.158   6.506   9.180 -0.9171  0.4523  0.3067
   24CHL1   H20 1753   2.144   6.616   9.186 -0.5905  0.5620 -0.8095
   24CHL1   C21 1754   2.026   6.436   9.194  0.6628 -0.2055  0.1263
   24CHL1  H21A 1755   2.028   6.333   9.152 -0.7975 -0.7119  1.2219
   24CHL1  H21B 1756   1.938   6.489   9.152  1.8795  1.2925 -0.6500
   24CHL1  H21C 1757   2.006   6.402   9.297  0.8827 -0.2520  0.1560
   24CHL1   C22 1758   2.215   6.468   9.041  0.3945 -0.0168  0.0202
   24CHL1  H22A 1759   2.312   6.516   9.015  0.3500 -0.4568 -0.9939
   24CHL1  H22B 1760   2.223   6.358   9.048 -2.5601 -0.3999 -1.2496
   24CHL1   C23 1761   2.118   6.502   8.927 -0.2920 -0.4722  1.1848
   24CHL1  H23A 1762   2.016   6.459   8.931  0.0450 -1.2884  1.2718
   24CHL1  H23B 1763   2.118   6.610   8.905 -0.5267 -1.0976 -2.4810
   24CHL1   C24 1764   2.173   6.441   8.792 -0.5993  0.7115  0.6100
   24CHL1  H24A 1765   2.283   6.450   8.797 -0.5379 -0.5471  3.3860
   24CHL1  H24B 1766   2.149   6.332   8.791  0.5248  0.4555 -0.3480
   24CHL1   C25 1767   2.118   6.498   8.658  0.6673 -0.1651  0.1882
   24CHL1   H25 1768   2.008   6.512   8.670  0.2952 -2.0935 -0.4987
   24CHL1   C26 1769   2.175   6.630   8.614  0.3354  0.2448  0.0673
   24CHL1  H26A 1770   2.150   6.708   8.688 -0.4534  0.1383 -0.0734
   24CHL1  H26B 1771   2.285   6.621   8.599  0.2132 -1.0952 -0.1434
   24CHL1  H26C 1772   2.119   6.660   8.522 -1.4605  1.5668  1.5162
   24CHL1   C27 1773   2.139   6.393   8.551 -0.0321 -1.0637 -0.0216
   24CHL1  H27A 1774   2.120   6.434   8.449 -1.0406  0.8153  0.8562
   24CHL1  H27B 1775   2.239   6.346   8.543  0.6631  0.4445 -0.4717
   24CHL1  H27C 1776   2.063   6.313   8.562 -0.9348 -0.2863 -0.4398
   25CHL1    C3 1777   3.598   0.827  10.414 -0.0060 -0.3963 -0.5820
   25CHL1    H3 1778   3.507   0.843  10.354  0.9155 -0.0480 -1.9431
   25CHL1    O3 1779   3.575   0.840  10.557 -0.4521  0.2441  0.1480
   25CHL1   H3' 1780   3.588   0.934  10.567 -0.0285  0.1342  0.6508
   25CHL1    C4 1781   3.636   0.690  10.380  0.7790  0.4454  0.0147
   25CHL1   H4A 1782   3.734   0.662  10.424 -0.3968 -1.0536  1.8488
   25CHL1   H4B 1783   3.570   0.619  10.433  1.5758  0.3083  0.8385
   25CHL1    C5 1784   3.640   0.673  10.234 -0.4117 -0.8999  0.2146
   25CHL1    C6 1785   3.564   0.580  10.171  0.0790  0.1022 -0.2463
   25CHL1    H6 1786   3.495   0.531  10.241  1.9542 -0.1492  1.5346
   25CHL1    C7 1787   3.579   0.545  10.026 -0.1881  0.0128  1.2473
   25CHL1   H7A 1788   3.605   0.438  10.014 -1.7577 -0.1403 -2.2210
   25CHL1   H7B 1789   3.487   0.566   9.967  0.9924 -0.8705 -1.0398
   25CHL1    C8 1790   3.688   0.629   9.955 -0.4196  0.3549  0.3456
   25CHL1    H8 1791   3.784   0.576   9.972 -0.4314  0.2114 -0.0204
   25CHL1   C14 1792   3.643   0.648   9.806  0.2445 -0.2319  0.9833
   25CHL1   H14 1793   3.551   0.710   9.810  1.8525  2.6052 -1.7833
   25CHL1   C15 1794   3.594   0.531   9.724  0.2342  0.6823  0.1820
   25CHL1  H15A 1795   3.646   0.437   9.751  1.0908  0.7736 -1.0710
   25CHL1  H15B 1796   3.484   0.516   9.730  0.5244 -1.5414  0.8178
   25CHL1   C16 1797   3.616   0.577   9.583 -0.1200  0.3102  0.5257
   25CHL1  H16A 1798   3.691   0.512   9.532 -0.7831 -1.4813  1.7381
   25CHL1  H16B 1799   3.520   0.559   9.530 -0.1995 -2.1071  1.3673
   25CHL1   C17 1800   3.665   0.721   9.580 -0.3058  0.3647 -0.4990
   25CHL1   H17 1801   3.582   0.793   9.599  0.2767  0.8064  0.4487
   25CHL1   C13 1802   3.742   0.724   9.715 -0.3813 -0.3353 -0.7191
   25CHL1   C18 1803   3.868   0.641   9.710  0.3353  0.6754 -0.0919
   25CHL1  H18A 1804   3.925   0.660   9.803  1.6508 -1.9224 -0.2951
   25CHL1  H18B 1805   3.857   0.531   9.706  1.6754  0.5179  0.4217
   25CHL1  H18C 1806   3.943   0.675   9.636 -2.1155  1.2949 -2.4837
   25CHL1   C12 1807   3.761   0.867   9.768  0.1140  0.4136 -0.2469
   25CHL1  H12A 1808   3.824   0.936   9.708  1.5789 -1.4580 -0.9530
   25CHL1  H12B 1809   3.666   0.924   9.765  0.2458  0.7391  1.1039
   25CHL1   C11 1810   3.795   0.866   9.924  0.1520 -0.1140  0.2953
   25CHL1  H11A 1811   3.903   0.848   9.942  0.1629 -0.0884  0.2565
   25CHL1  H11B 1812   3.774   0.971   9.951  3.3874  0.6154  0.3198
   25CHL1    C9 1813   3.699   0.773  10.011 -0.5135 -0.4599  0.5436
   25CHL1    H9 1814   3.595   0.811  10.004 -0.2805  0.1496  0.2504
   25CHL1   C10 1815   3.729   0.770  10.165 -0.2739 -0.1381  0.1596
   25CHL1   C19 1816   3.876   0.722  10.178  0.6456 -0.1324 -0.1777
   25CHL1  H19A 1817   3.900   0.733  10.286 -0.6519  0.5035  0.0718
   25CHL1  H19B 1818   3.891   0.615  10.155  2.7600 -0.4715  2.2825
   25CHL1  H19C 1819   3.954   0.780  10.124  0.8972 -0.3649 -0.0636
   25CHL1    C1 1820   3.705   0.921  10.210 -0.8509  0.3822 -0.3051
   25CHL1   H1A 1821   3.801   0.969  10.183  0.5596 -1.0208  1.8661
   25CHL1   H1B 1822   3.619   0.966  10.157 -0.0785  0.3137 -1.6536
   25CHL1    C2 1823   3.687   0.938  10.359  0.3577 -0.2689  0.7832
   25CHL1   H2A 1824   3.638   1.036  10.373 -0.4595 -0.5006 -0.3253
   25CHL1   H2B 1825   3.782   0.942  10.416  0.6845  2.2485  0.1695
   25CHL1   C20 1826   3.729   0.768   9.451  0.2713 -0.3921  0.4624
   25CHL1   H20 1827   3.839   0.752   9.449  0.2074 -0.8402  0.4204
   25CHL1   C21 1828   3.707   0.924   9.446 -0.7159  0.3432 -1.0225
   25CHL1  H21A 1829   3.607   0.956   9.410 -0.5329  0.2932 -1.5875
   25CHL1  H21B 1830   3.779   0.953   9.366 -1.3731  2.7018 -0.8430
   25CHL1  H21C 1831   3.736   0.980   9.537 -2.5896 -1.2162  0.5955
   25CHL1   C22 1832   3.658   0.722   9.321 -0.4135 -0.3190 -0.4211
   25CHL1  H22A 1833   3.550   0.741   9.340 -0.5527 -1.0964 -0.3992
   25CHL1  H22B 1834   3.694   0.801   9.252  0.2802  1.7351  2.1528
   25CHL1   C23 1835   3.695   0.586   9.253  0.2408 -0.7146  0.4545
   25CHL1  H23A 1836   3.801   0.595   9.219 -0.1125  2.0026 -0.1452
   25CHL1  H23B 1837   3.685   0.503   9.326 -0.6180 -0.3899  0.7151
   25CHL1   C24 1838   3.610   0.554   9.123 -0.1187  0.2344 -0.0059
   25CHL1  H24A 1839   3.622   0.648   9.065 -0.1911  0.3807  0.2186
   25CHL1  H24B 1840   3.660   0.468   9.072  3.4454  2.5000 -0.7098
   25CHL1   C25 1841   3.452   0.526   9.132  0.1720  0.5538 -0.4925
   25CHL1   H25 1842   3.402   0.625   9.139  0.6670  1.0735 -3.3444
   25CHL1   C26 1843   3.411   0.446   9.011  0.2074  0.6428  0.5853
   25CHL1  H26A 1844   3.432   0.504   8.918 -0.5119  0.8849  0.5632
   25CHL1  H26B 1845   3.469   0.352   9.007  0.7804  0.9944  0.5385
   25CHL1  H26C 1846   3.304   0.415   9.009 -0.5234  2.8758  1.6500
   25CHL1   C27 1847   3.406   0.448   9.260 -0.2027 -0.4075  0.7479
   25CHL1  H27A 1848   3.428   0.521   9.341 -1.4047 -0.5464  1.2240
   25CHL1  H27B 1849   3.296   0.430   9.248  0.1287 -2.4916  0.3780
   25CHL1  H27C 1850   3.470   0.358   9.274  0.4121  0.4274  4.4867
   26CHL1    C3 1851   3.277   3.289  10.166  0.0869  0.0897  0.0628
   26CHL1    H3 1852   3.338   3.370  10.121 -1.2260 -0.4680 -2.9721
   26CHL1    O3 1853   3.278   3.293  10.309  0.2545  0.2349 -0.3930
   26CHL1   H3' 1854   3.217   3.365  10.329  0.8228  1.2590 -2.1923
   26CHL1    C4 1855   3.139   3.319  10.105  0.3374  0.3329  0.5466
   26CHL1   H4A 1856   3.079   3.250  10.169  1.0470 -0.2109  0.6379
   26CHL1   H4B 1857   3.118   3.427  10.116  1.8654  0.9184 -1.6668
   26CHL1    C5 1858   3.120   3.289   9.957  0.4422  0.3844 -0.2860
   26CHL1    C6 1859   3.050   3.377   9.888 -0.4500 -0.2919  0.3330
   26CHL1    H6 1860   3.013   3.461   9.948 -2.0639 -2.0733  1.9666
   26CHL1    C7 1861   3.031   3.364   9.740 -0.2156 -0.0593  0.8667
   26CHL1   H7A 1862   2.926   3.389   9.715 -0.1754 -1.1881 -0.5913
   26CHL1   H7B 1863   3.093   3.439   9.687  1.1390 -1.0143  1.0570
   26CHL1    C8 1864   3.072   3.223   9.679  0.4502 -0.7755 -0.3004
   26CHL1    H8 1865   2.992   3.148   9.701  0.5625 -0.6785  0.4758
   26CHL1   C14 1866   3.102   3.234   9.532 -0.4325 -0.1152 -0.0337
   26CHL1   H14 1867   3.182   3.309   9.518 -0.1592 -0.4072 -0.0485
   26CHL1   C15 1868   2.990   3.300   9.444 -0.4411  0.1137  0.3089
   26CHL1  H15A 1869   2.887   3.262   9.457 -0.7184  0.2554 -1.2387
   26CHL1  H15B 1870   3.000   3.408   9.467  1.4916 -0.2985  1.7396
   26CHL1   C16 1871   3.037   3.265   9.299  0.8168  0.4549  0.2002
   26CHL1  H16A 1872   2.946   3.224   9.249  1.0364  1.4729 -1.1145
   26CHL1  H16B 1873   3.085   3.345   9.239  0.7925  0.3153 -0.0077
   26CHL1   C17 1874   3.151   3.158   9.314 -0.0227 -0.0546  0.2322
   26CHL1   H17 1875   3.244   3.218   9.314 -0.6504  1.0370  2.4272
   26CHL1   C13 1876   3.143   3.108   9.462  0.1745 -0.1143  0.9596
   26CHL1   C18 1877   3.027   3.002   9.454  0.1528 -0.1899  0.0814
   26CHL1  H18A 1878   2.993   2.973   9.556  1.5811 -0.8165  0.4013
   26CHL1  H18B 1879   2.927   3.024   9.410 -0.9403 -0.7515  2.1436
   26CHL1  H18C 1880   3.052   2.905   9.406  0.7206 -0.1878  0.3641
   26CHL1   C12 1881   3.274   3.053   9.524  0.3554  0.0829 -0.1889
   26CHL1  H12A 1882   3.299   2.954   9.481  2.6888  0.3874  0.3333
   26CHL1  H12B 1883   3.357   3.125   9.509 -0.7580  1.1468 -1.6060
   26CHL1   C11 1884   3.252   3.037   9.673 -0.0754  0.0088 -0.2625
   26CHL1  H11A 1885   3.187   2.949   9.688  0.8888 -0.7381 -0.3330
   26CHL1  H11B 1886   3.349   3.018   9.725 -0.9275 -0.3720  1.2366
   26CHL1    C9 1887   3.202   3.166   9.740  0.0202  0.0997 -0.7977
   26CHL1    H9 1888   3.278   3.246   9.732 -0.7724  1.1539  1.3695
   26CHL1   C10 1889   3.189   3.158   9.902 -0.2032 -0.9439 -0.0000
   26CHL1   C19 1890   3.101   3.029   9.933  0.2424  0.0289 -0.6154
   26CHL1  H19A 1891   3.091   3.018  10.043 -2.1516 -0.6458 -0.8508
   26CHL1  H19B 1892   2.999   3.026   9.892 -0.3694 -1.0521  0.8787
   26CHL1  H19C 1893   3.157   2.940   9.898  0.4412  0.0640 -0.3917
   26CHL1    C1 1894   3.333   3.147   9.960 -0.1433  0.1064  0.1418
   26CHL1   H1A 1895   3.375   3.048   9.932  0.6860  1.2372 -2.9926
   26CHL1   H1B 1896   3.401   3.227   9.925  0.4187  0.3561  1.7387
   26CHL1    C2 1897   3.337   3.158  10.114  0.2610  0.1287  0.1427
   26CHL1   H2A 1898   3.442   3.149  10.149  0.5500  0.7768 -0.5210
   26CHL1   H2B 1899   3.284   3.073  10.162 -3.3232  2.5476  0.8779
   26CHL1   C20 1900   3.156   3.069   9.182 -0.0751  0.0485 -0.2502
   26CHL1   H20 1901   3.067   3.002   9.180 -0.3340  0.3777  0.0822
   26CHL1   C21 1902   3.280   2.977   9.202  0.0587  0.1939  0.3889
   26CHL1  H21A 1903   3.375   3.035   9.209  0.9726 -1.2312  0.0730
   26CHL1  H21B 1904   3.285   2.898   9.124 -0.5506 -0.8456  1.3765
   26CHL1  H21C 1905   3.265   2.910   9.289 -0.7776  0.4432  0.4479
   26CHL1   C22 1906   3.165   3.143   9.049 -0.3647  0.1088  0.2341
   26CHL1  H22A 1907   3.074   3.207   9.043  0.8525  1.7815 -1.6882
   26CHL1  H22B 1908   3.254   3.209   9.039  0.2387 -0.4911  1.4132
   26CHL1   C23 1909   3.174   3.038   8.933 -0.1341 -0.0395  0.4238
   26CHL1  H23A 1910   3.277   2.999   8.922  0.3915  0.9994  1.4562
   26CHL1  H23B 1911   3.114   2.947   8.954 -0.8528  1.0554  3.5674
   26CHL1   C24 1912   3.133   3.096   8.802  0.3785 -0.1060 -0.3426
   26CHL1  H24A 1913   3.025   3.124   8.810  0.9172  2.0501  0.0142
   26CHL1  H24B 1914   3.183   3.194   8.793 -1.0409  1.1195  3.2536
   26CHL1   C25 1915   3.159   3.003   8.683  0.3224  0.0015 -0.1141
   26CHL1   H25 1916   3.270   2.992   8.681  0.2930 -0.3606  0.1817
   26CHL1   C26 1917   3.078   2.875   8.695 -0.3300 -0.4846 -0.6785
   26CHL1  H26A 1918   2.972   2.896   8.719  0.1937  0.8955  0.6090
   26CHL1  H26B 1919   3.095   2.814   8.604 -1.8745  0.1365 -1.4241
   26CHL1  H26C 1920   3.118   2.820   8.783 -1.6208  0.9031  0.8546
   26CHL1   C27 1921   3.122   3.090   8.566 -0.5085 -0.4146  0.1910
   26CHL1  H27A 1922   3.017   3.125   8.576  0.3518  2.2792  0.5606
   26CHL1  H27B 1923   3.181   3.184   8.567 -2.8950  1.1646  2.0663
   26CHL1  H27C 1924   3.149   3.035   8.472  1.3531  0.9595 -0.1300
   27CHL1    C3 1925   3.072   0.751  10.448  0.0636 -0.5292  0.6241
   27CHL1    H3 1926   3.065   0.861  10.433  0.3067 -0.3400  1.7915
   27CHL1    O3 1927   3.092   0.731  10.584  0.2174 -0.3217  0.1568
   27CHL1   H3' 1928   3.182   0.698  10.587  0.2397 -0.7484 -2.4125
   27CHL1    C4 1929   2.938   0.677  10.401 -0.1645  0.2963  0.0929
   27CHL1   H4A 1930   2.965   0.577  10.442  2.2150  0.6445 -0.4323
   27CHL1   H4B 1931   2.850   0.718  10.454  0.4461 -0.6969  1.9463
   27CHL1    C5 1932   2.919   0.669  10.249  0.0288 -0.2954 -0.2855
   27CHL1    C6 1933   2.801   0.703  10.193 -0.2076 -0.1918 -0.4952
   27CHL1    H6 1934   2.719   0.718  10.265  1.2900  0.0710  1.2445
   27CHL1    C7 1935   2.782   0.699  10.041 -0.6438  0.1078 -0.2774
   27CHL1   H7A 1936   2.687   0.647  10.016 -0.1503 -1.4282  0.8764
   27CHL1   H7B 1937   2.780   0.799   9.993 -0.1322 -0.1505 -0.8411
   27CHL1    C8 1938   2.892   0.623   9.968 -0.0396  0.8203 -0.3131
   27CHL1    H8 1939   2.882   0.514   9.984 -1.4034  0.9733  0.0171
   27CHL1   C14 1940   2.884   0.652   9.817  0.1014 -0.0063 -0.3206
   27CHL1   H14 1941   2.897   0.762   9.806  0.1630  0.1941  1.4120
   27CHL1   C15 1942   2.755   0.608   9.749 -0.5096  1.3749 -0.3699
   27CHL1  H15A 1943   2.706   0.516   9.788  0.4851  0.6450 -0.7955
   27CHL1  H15B 1944   2.680   0.688   9.770  0.1865  2.3233 -1.3713
   27CHL1   C16 1945   2.788   0.595   9.594  0.5591 -1.2145  0.3030
   27CHL1  H16A 1946   2.771   0.488   9.567  0.3678 -1.5031  1.5150
   27CHL1  H16B 1947   2.732   0.675   9.541 -1.4193 -2.5664  0.2568
   27CHL1   C17 1948   2.940   0.625   9.594 -0.3415  0.0394  0.9159
   27CHL1   H17 1949   2.958   0.735   9.593  3.3762 -0.4495  0.0175
   27CHL1   C13 1950   2.994   0.585   9.732  0.0946 -0.4580 -0.1317
   27CHL1   C18 1951   3.003   0.433   9.744 -0.5307 -0.5266  0.4825
   27CHL1  H18A 1952   2.913   0.382   9.701 -0.8949  0.5698 -0.0812
   27CHL1  H18B 1953   3.094   0.399   9.689  1.4497  2.3675  1.7359
   27CHL1  H18C 1954   3.007   0.389   9.846  0.1968 -0.0908  0.6485
   27CHL1   C12 1955   3.126   0.648   9.783  0.3870  0.4362  0.9317
   27CHL1  H12A 1956   3.209   0.598   9.729 -0.5631 -1.7010  1.3241
   27CHL1  H12B 1957   3.121   0.752   9.746  1.1740  0.3196  0.4793
   27CHL1   C11 1958   3.142   0.628   9.929  0.5761 -0.3342  0.4205
   27CHL1  H11A 1959   3.174   0.524   9.949  0.8243 -0.3334  0.0382
   27CHL1  H11B 1960   3.233   0.687   9.952  1.4391 -1.4514 -0.0454
   27CHL1    C9 1961   3.022   0.676  10.018  0.7468  0.1260 -0.1511
   27CHL1    H9 1962   3.021   0.787  10.019  0.9031  0.1273 -0.1278
   27CHL1   C10 1963   3.044   0.639  10.170 -0.0618  0.0768 -0.1303
   27CHL1   C19 1964   3.056   0.486  10.188  0.3040  0.4027  0.1170
   27CHL1  H19A 1965   2.971   0.434  10.139  1.3595  0.8846 -2.4431
   27CHL1  H19B 1966   3.135   0.434  10.129  1.6838 -1.3465  3.2582
   27CHL1  H19C 1967   3.072   0.454  10.293  2.7173  1.9757  0.3141
   27CHL1    C1 1968   3.170   0.712  10.221 -0.0437  0.2001 -0.4030
   27CHL1   H1A 1969   3.257   0.659  10.177 -0.3665  0.5856 -1.5376
   27CHL1   H1B 1970   3.181   0.820  10.196 -0.5890  0.9741  2.4233
   27CHL1    C2 1971   3.197   0.700  10.372  0.4697  0.3814 -0.6309
   27CHL1   H2A 1972   3.290   0.759  10.388  0.9004 -0.3996 -0.1846
   27CHL1   H2B 1973   3.231   0.596  10.389  3.1128  1.0393 -1.4017
   27CHL1   C20 1974   3.002   0.567   9.464  0.7330  0.4355  0.3939
   27CHL1   H20 1975   2.993   0.456   9.470  0.2525  0.3811 -0.8670
   27CHL1   C21 1976   3.144   0.614   9.459 -0.2459  0.0093  0.4907
   27CHL1  H21A 1977   3.208   0.569   9.538 -1.2396  1.2698  2.0837
   27CHL1  H21B 1978   3.138   0.723   9.478  0.2726 -0.1818  1.9012
   27CHL1  H21C 1979   3.193   0.601   9.361  0.2912  1.0963  0.6055
   27CHL1   C22 1980   2.924   0.599   9.330 -0.1700 -0.5514  0.8870
   27CHL1  H22A 1981   2.814   0.589   9.343 -0.4098  2.7075  2.2608
   27CHL1  H22B 1982   2.949   0.703   9.301  0.3786 -1.2076 -1.1433
   27CHL1   C23 1983   2.960   0.518   9.205  0.4192 -0.3815 -0.7142
   27CHL1  H23A 1984   3.067   0.533   9.177 -0.0359  2.4549 -1.2261
   27CHL1  H23B 1985   2.942   0.413   9.235 -4.3984  0.8819  1.7834
   27CHL1   C24 1986   2.871   0.542   9.085 -0.4034  0.4061 -0.0605
   27CHL1  H24A 1987   2.768   0.553   9.124 -0.9452 -1.9245 -0.6672
   27CHL1  H24B 1988   2.896   0.634   9.028  2.2605  0.7117  1.4429
   27CHL1   C25 1989   2.877   0.430   8.981 -0.8958 -0.0816  1.0347
   27CHL1   H25 1990   2.866   0.328   9.023  0.7760 -1.1364 -0.9090
   27CHL1   C26 1991   2.777   0.438   8.864 -0.1839  1.0051 -0.3084
   27CHL1  H26A 1992   2.813   0.377   8.779  2.7308 -1.6646  2.5531
   27CHL1  H26B 1993   2.682   0.396   8.904  0.4046 -0.8817 -0.8014
   27CHL1  H26C 1994   2.765   0.544   8.831  1.9392  1.5714  0.5576
   27CHL1   C27 1995   3.016   0.429   8.919 -0.4306 -0.0603  0.4638
   27CHL1  H27A 1996   3.086   0.409   9.003  0.2673  1.0693  0.1723
   27CHL1  H27B 1997   3.023   0.344   8.849  1.0305 -0.0322  0.5479
   27CHL1  H27C 1998   3.043   0.523   8.865 -1.5839 -0.3842 -0.7192
   28CHL1    C3 1999   2.177   5.445  10.081 -0.1223  0.2487  0.1739
   28CHL1    H3 2000   2.119   5.523  10.028  3.2760  2.7868 -0.1811
   28CHL1    O3 2001   2.129   5.437  10.217 -0.2230  0.0285 -0.0155
   28CHL1   H3' 2002   2.181   5.364  10.251 -0.1748 -0.1492 -0.4592
   28CHL1    C4 2003   2.166   5.301  10.028  0.3660  0.1339 -0.0613
   28CHL1   H4A 2004   2.223   5.240  10.102 -0.0384 -0.1380  0.0275
   28CHL1   H4B 2005   2.060   5.269  10.026  0.0066  1.2459 -2.6076
   28CHL1    C5 2006   2.221   5.304   9.886  0.3685  0.4593 -0.6934
   28CHL1    C6 2007   2.151   5.263   9.785  0.1912 -0.4740 -0.3231
   28CHL1    H6 2008   2.048   5.225   9.795  0.6089 -2.3560 -2.3478
   28CHL1    C7 2009   2.202   5.252   9.649  0.6392 -0.0232 -0.4437
   28CHL1   H7A 2010   2.171   5.154   9.608 -1.3267  0.3555  0.0385
   28CHL1   H7B 2011   2.152   5.330   9.587 -0.2476  1.1470  1.6476
   28CHL1    C8 2012   2.354   5.253   9.635 -0.1109 -0.0809  0.0201
   28CHL1    H8 2013   2.399   5.156   9.665  1.3421  1.0948  1.8650
   28CHL1   C14 2014   2.392   5.273   9.492 -0.6443 -0.8710 -0.3539
   28CHL1   H14 2015   2.368   5.377   9.464  0.1681 -0.6677 -0.3338
   28CHL1   C15 2016   2.318   5.181   9.386  0.0117 -0.0254  0.4678
   28CHL1  H15A 2017   2.311   5.087   9.445  1.3798  0.2777  1.1446
   28CHL1  H15B 2018   2.222   5.225   9.352  0.0558  0.3846  0.8710
   28CHL1   C16 2019   2.420   5.173   9.272 -0.2939  0.0686  0.1093
   28CHL1  H16A 2020   2.458   5.069   9.267  0.5926  0.4064 -0.3624
   28CHL1  H16B 2021   2.379   5.197   9.172  0.0665 -1.6981 -0.4997
   28CHL1   C17 2022   2.536   5.280   9.307  0.3120 -0.4421  0.1331
   28CHL1   H17 2023   2.495   5.383   9.294  0.8811 -0.4273 -1.7298
   28CHL1   C13 2024   2.545   5.274   9.458 -0.2556  0.8941  0.3152
   28CHL1   C18 2025   2.611   5.132   9.491  0.1433 -0.4739  0.2830
   28CHL1  H18A 2026   2.608   5.119   9.601 -0.1482 -4.2144 -0.0450
   28CHL1  H18B 2027   2.557   5.043   9.454 -0.2110 -0.4255  0.6763
   28CHL1  H18C 2028   2.718   5.126   9.460  0.2284  0.8741  0.2482
   28CHL1   C12 2029   2.609   5.394   9.544 -0.2281  0.5877  1.2145
   28CHL1  H12A 2030   2.718   5.373   9.549 -0.6535 -2.2964  0.3503
   28CHL1  H12B 2031   2.590   5.495   9.503 -0.4322  0.0811  0.0137
   28CHL1   C11 2032   2.558   5.388   9.688  0.5176 -0.1753  0.5971
   28CHL1  H11A 2033   2.604   5.297   9.733 -1.6001 -1.6563 -0.0447
   28CHL1  H11B 2034   2.586   5.480   9.744 -2.0760  0.6724  0.6472
   28CHL1    C9 2035   2.408   5.364   9.721  0.0666  0.1716  0.3695
   28CHL1    H9 2036   2.350   5.454   9.693  0.4723  0.3694  0.1518
   28CHL1   C10 2037   2.370   5.354   9.873 -0.2240 -0.3897  0.1545
   28CHL1   C19 2038   2.469   5.262   9.946 -0.6395  0.0520 -0.6462
   28CHL1  H19A 2039   2.482   5.175   9.878 -0.0499 -0.2878 -0.1053
   28CHL1  H19B 2040   2.572   5.302   9.946  0.3759 -2.2700  1.7474
   28CHL1  H19C 2041   2.444   5.242  10.052  1.1545  0.2636 -0.1554
   28CHL1    C1 2042   2.362   5.503   9.937  0.2683  0.2717 -0.2471
   28CHL1   H1A 2043   2.465   5.543   9.942  0.5187 -0.5006  1.9598
   28CHL1   H1B 2044   2.300   5.582   9.890  1.1850 -0.2988 -2.5735
   28CHL1    C2 2045   2.321   5.495  10.084  0.5389  0.0016  0.0262
   28CHL1   H2A 2046   2.314   5.598  10.125  0.4976  0.6640 -1.5496
   28CHL1   H2B 2047   2.394   5.438  10.145 -1.5711 -2.0919  0.7302
   28CHL1   C20 2048   2.661   5.264   9.217  0.0204 -0.4589  0.1851
   28CHL1   H20 2049   2.707   5.164   9.229  0.6793 -0.0213  1.5694
   28CHL1   C21 2050   2.762   5.379   9.263  0.2145 -0.7044 -0.7163
   28CHL1  H21A 2051   2.807   5.356   9.362 -1.5073 -0.7956  0.0867
   28CHL1  H21B 2052   2.704   5.473   9.265 -1.2522 -1.5858  0.8429
   28CHL1  H21C 2053   2.847   5.390   9.192  0.9643 -2.3877 -0.1439
   28CHL1   C22 2054   2.629   5.269   9.062 -0.2628  0.3117  0.1995
   28CHL1  H22A 2055   2.718   5.247   8.998  1.5474  2.8900  1.6544
   28CHL1  H22B 2056   2.568   5.180   9.035  1.2620 -1.3179  1.8405
   28CHL1   C23 2057   2.569   5.402   9.016  0.0663  0.6150 -0.2330
   28CHL1  H23A 2058   2.473   5.396   9.071 -0.9095 -1.3148 -1.9881
   28CHL1  H23B 2059   2.624   5.495   9.044 -1.1329  0.4553  3.0666
   28CHL1   C24 2060   2.545   5.403   8.863  0.7389 -0.4294  0.7004
   28CHL1  H24A 2061   2.643   5.390   8.813  0.2541  0.6877 -0.6085
   28CHL1  H24B 2062   2.477   5.318   8.841  2.1501 -1.4256  0.0634
   28CHL1   C25 2063   2.479   5.529   8.815  0.4315 -0.5085  0.6588
   28CHL1   H25 2064   2.543   5.612   8.850  1.2578 -1.0266  0.4179
   28CHL1   C26 2065   2.482   5.547   8.662 -0.0636 -0.1357 -0.7937
   28CHL1  H26A 2066   2.570   5.601   8.622 -1.3898  2.2692 -0.6553
   28CHL1  H26B 2067   2.489   5.449   8.611  2.3490 -0.5507  0.1860
   28CHL1  H26C 2068   2.395   5.611   8.638 -0.2218  0.1797  0.5078
   28CHL1   C27 2069   2.333   5.550   8.872 -0.7444  0.4497 -0.4808
   28CHL1  H27A 2070   2.266   5.606   8.804 -1.5080  4.1468  2.9421
   28CHL1  H27B 2071   2.281   5.452   8.884 -2.3909  1.2707 -0.7293
   28CHL1  H27C 2072   2.358   5.598   8.970  1.5943  2.7943 -2.1015
   29CHL1    C3 2073   4.288   3.218   6.851 -0.0752  0.0127 -0.1262
   29CHL1    H3 2074   4.279   3.112   6.882 -0.9235  0.9106  3.0179
   29CHL1    O3 2075   4.250   3.218   6.710  0.0147  0.5568  0.5319
   29CHL1   H3' 2076   4.166   3.173   6.708 -0.1881  0.8719 -2.2014
   29CHL1    C4 2077   4.190   3.307   6.918  0.0346  0.4335  0.1656
   29CHL1   H4A 2078   4.185   3.409   6.875 -1.6921  0.6482  0.7941
   29CHL1   H4B 2079   4.089   3.267   6.898  0.4091 -1.2910  1.4330
   29CHL1    C5 2080   4.219   3.317   7.066  0.2351 -0.3827  0.8018
   29CHL1    C6 2081   4.130   3.271   7.153 -0.2161  0.1029  0.0270
   29CHL1    H6 2082   4.034   3.235   7.114 -0.9552  0.5674  1.3582
   29CHL1    C7 2083   4.153   3.284   7.303  0.9778  0.8731 -0.4720
   29CHL1   H7A 2084   4.065   3.337   7.345 -1.0162 -2.1304 -0.6004
   29CHL1   H7B 2085   4.159   3.184   7.350  2.2531  0.2040 -1.9684
   29CHL1    C8 2086   4.278   3.353   7.353 -0.8305 -0.0599 -0.0926
   29CHL1    H8 2087   4.260   3.462   7.354  0.1568  0.1058  0.0695
   29CHL1   C14 2088   4.317   3.309   7.500  0.0554  0.0402  0.6683
   29CHL1   H14 2089   4.346   3.201   7.495  1.9254  0.5620 -1.7052
   29CHL1   C15 2090   4.217   3.321   7.615  0.1209 -0.2717  0.0055
   29CHL1  H15A 2091   4.151   3.410   7.603 -0.5754 -0.8438 -0.5033
   29CHL1  H15B 2092   4.151   3.232   7.624  0.4234 -0.6517 -1.3448
   29CHL1   C16 2093   4.297   3.325   7.747 -0.7840 -0.2294  0.6796
   29CHL1  H16A 2094   4.274   3.421   7.799 -0.9450 -0.8626  1.8170
   29CHL1  H16B 2095   4.264   3.244   7.815 -0.2866 -0.3646  0.7674
   29CHL1   C17 2096   4.451   3.316   7.704  1.0354  0.0358  0.6212
   29CHL1   H17 2097   4.468   3.206   7.694 -1.8545 -0.3688 -0.8355
   29CHL1   C13 2098   4.450   3.370   7.550 -0.2708  0.0222 -0.6106
   29CHL1   C18 2099   4.438   3.522   7.564  0.8517 -0.0875 -0.1214
   29CHL1  H18A 2100   4.537   3.568   7.586  0.3581  0.7594  0.3862
   29CHL1  H18B 2101   4.409   3.574   7.470  0.6698  0.8495  0.4333
   29CHL1  H18C 2102   4.361   3.549   7.640 -0.4860 -3.5533 -0.0674
   29CHL1   C12 2103   4.563   3.315   7.451 -1.0460  0.1202 -0.0081
   29CHL1  H12A 2104   4.665   3.344   7.485 -0.2262 -1.3204 -1.1207
   29CHL1  H12B 2105   4.558   3.205   7.463  3.0997 -0.3012 -0.6178
   29CHL1   C11 2106   4.536   3.368   7.307  0.0264  0.4898  0.0640
   29CHL1  H11A 2107   4.519   3.478   7.310  1.2273  0.6878  0.2862
   29CHL1  H11B 2108   4.614   3.333   7.237  0.1347  0.1468  0.3499
   29CHL1    C9 2109   4.394   3.316   7.257  0.0841 -0.2763 -0.2961
   29CHL1    H9 2110   4.420   3.208   7.255  1.4197  0.0233 -1.2464
   29CHL1   C10 2111   4.358   3.355   7.106  0.2675 -0.1692 -0.6025
   29CHL1   C19 2112   4.377   3.497   7.081  0.1244  0.0527 -0.0863
   29CHL1  H19A 2113   4.330   3.556   7.163 -2.6326 -1.8710 -0.1252
   29CHL1  H19B 2114   4.486   3.518   7.082  0.2171 -0.0884 -2.5470
   29CHL1  H19C 2115   4.342   3.534   6.983 -0.1479 -1.9472 -0.7883
   29CHL1    C1 2116   4.461   3.278   7.019 -0.9474  0.4248  0.1856
   29CHL1   H1A 2117   4.561   3.327   7.025 -1.1103  0.8681 -0.5819
   29CHL1   H1B 2118   4.461   3.169   7.040 -0.7600  0.2661 -0.5790
   29CHL1    C2 2119   4.436   3.272   6.870 -0.3115  0.7690  0.0325
   29CHL1   H2A 2120   4.499   3.202   6.810 -2.4743 -0.2869 -1.1362
   29CHL1   H2B 2121   4.439   3.369   6.817  1.8184  0.4528 -0.5130
   29CHL1   C20 2122   4.554   3.367   7.809  0.4371 -0.7598 -0.1206
   29CHL1   H20 2123   4.550   3.478   7.810  0.7395 -0.7241 -1.4426
   29CHL1   C21 2124   4.701   3.325   7.776 -0.3970 -0.7306 -0.0629
   29CHL1  H21A 2125   4.729   3.369   7.678 -0.7256  0.7472  0.4796
   29CHL1  H21B 2126   4.710   3.214   7.778  1.6916 -0.6615 -1.8398
   29CHL1  H21C 2127   4.775   3.373   7.843  1.7213 -3.4217 -0.3024
   29CHL1   C22 2128   4.519   3.319   7.951  0.4721  0.0758  0.4092
   29CHL1  H22A 2129   4.408   3.323   7.961  0.2406  3.0916 -1.7799
   29CHL1  H22B 2130   4.551   3.213   7.958 -0.3685 -0.4119 -2.1919
   29CHL1   C23 2131   4.583   3.394   8.064  0.2291  0.3417  0.4883
   29CHL1  H23A 2132   4.689   3.361   8.068  0.4068  0.9339  0.9401
   29CHL1  H23B 2133   4.585   3.503   8.041 -0.6887  0.0757 -0.9400
   29CHL1   C24 2134   4.510   3.388   8.203  0.0984  0.7074 -0.2015
   29CHL1  H24A 2135   4.561   3.465   8.266 -1.6305 -0.1917  2.4879
   29CHL1  H24B 2136   4.406   3.424   8.191  0.2348  0.5325 -2.1607
   29CHL1   C25 2137   4.518   3.251   8.278  0.2526 -0.2010 -0.4396
   29CHL1   H25 2138   4.579   3.180   8.217  1.5071 -0.3938  0.9877
   29CHL1   C26 2139   4.591   3.248   8.416 -1.1000 -0.0890 -0.2501
   29CHL1  H26A 2140   4.527   3.301   8.490 -0.5963  1.8033 -1.1128
   29CHL1  H26B 2141   4.605   3.139   8.434 -2.4770 -0.3135 -0.4230
   29CHL1  H26C 2142   4.684   3.308   8.412 -1.7959  1.2043  1.7922
   29CHL1   C27 2143   4.381   3.189   8.283  0.1798  0.6109  0.4364
   29CHL1  H27A 2144   4.331   3.219   8.377 -2.0062 -2.1951  0.2940
   29CHL1  H27B 2145   4.319   3.202   8.192  0.0100  0.0276  0.4706
   29CHL1  H27C 2146   4.384   3.080   8.302 -1.6291  0.6030  0.7663
   30CHL1    C3 2147   1.312   2.381   7.440  1.0179 -0.2701  0.5774
   30CHL1    H3 2148   1.402   2.426   7.394  1.6670 -2.1477 -0.0550
   30CHL1    O3 2149   1.208   2.384   7.340 -0.5609 -0.1048 -0.0550
   30CHL1   H3' 2150   1.216   2.309   7.280  0.1849 -0.5803  0.6178
   30CHL1    C4 2151   1.345   2.232   7.466  0.1246  0.6584  0.9337
   30CHL1   H4A 2152   1.257   2.165   7.478 -0.8373  1.6882 -0.1654
   30CHL1   H4B 2153   1.394   2.190   7.376 -0.4104 -1.5268  1.5965
   30CHL1    C5 2154   1.433   2.221   7.581  0.1523  1.1952 -0.2664
   30CHL1    C6 2155   1.555   2.169   7.570 -0.4063  0.1453  0.0419
   30CHL1    H6 2156   1.589   2.121   7.477  1.0744 -0.4845  0.8658
   30CHL1    C7 2157   1.645   2.144   7.689 -0.0155 -0.4399  0.2606
   30CHL1   H7A 2158   1.684   2.040   7.697  0.6167 -0.4003 -1.7365
   30CHL1   H7B 2159   1.732   2.213   7.686 -2.4363  2.8007 -2.7059
   30CHL1    C8 2160   1.566   2.166   7.821  0.2215 -0.5761  0.3793
   30CHL1    H8 2161   1.497   2.079   7.830  1.0507 -1.5637 -2.1644
   30CHL1   C14 2162   1.662   2.167   7.939 -0.2463 -0.2118 -0.5075
   30CHL1   H14 2163   1.727   2.252   7.911 -0.3088  0.1805  0.5053
   30CHL1   C15 2164   1.767   2.053   7.957 -0.5054 -0.1790  0.4132
   30CHL1  H15A 2165   1.712   1.958   7.944 -2.4509  1.0610 -0.9786
   30CHL1  H15B 2166   1.853   2.063   7.887 -0.9857 -0.1228 -0.1817
   30CHL1   C16 2167   1.818   2.069   8.104  0.8161 -0.7011  0.4649
   30CHL1  H16A 2168   1.799   1.978   8.165  4.4188 -0.0414  2.9030
   30CHL1  H16B 2169   1.928   2.084   8.096  0.3968  1.9991 -2.1560
   30CHL1   C17 2170   1.746   2.195   8.163  0.1190 -0.0846  0.2191
   30CHL1   H17 2171   1.805   2.285   8.132 -0.4953 -0.2079 -1.3963
   30CHL1   C13 2172   1.618   2.207   8.082 -0.0191  0.3483  0.4426
   30CHL1   C18 2173   1.516   2.098   8.140  0.5514 -0.2826  0.2435
   30CHL1  H18A 2174   1.467   2.117   8.237 -0.6279 -1.2603 -0.1356
   30CHL1  H18B 2175   1.438   2.084   8.062  0.9418  2.0061 -0.6283
   30CHL1  H18C 2176   1.562   1.997   8.148 -2.3160 -1.6122  0.9875
   30CHL1   C12 2177   1.547   2.344   8.066  0.0809  0.1519 -0.6111
   30CHL1  H12A 2178   1.499   2.378   8.161  0.0090  0.9562 -0.9246
   30CHL1  H12B 2179   1.632   2.410   8.037  0.7490 -0.8881 -1.0943
   30CHL1   C11 2180   1.445   2.349   7.959 -0.5470 -0.1805  0.2478
   30CHL1  H11A 2181   1.363   2.281   7.990 -2.5320  0.8058 -2.4607
   30CHL1  H11B 2182   1.389   2.445   7.952 -1.3449 -0.3630  2.8372
   30CHL1    C9 2183   1.487   2.299   7.818  0.2316  0.3331 -0.3530
   30CHL1    H9 2184   1.567   2.371   7.791  1.2818 -0.5218  0.4464
   30CHL1   C10 2185   1.380   2.301   7.708 -0.7555  0.1303 -1.0832
   30CHL1   C19 2186   1.249   2.235   7.758  0.0192 -0.2004  0.0803
   30CHL1  H19A 2187   1.178   2.219   7.675 -1.6398  0.2176  1.3551
   30CHL1  H19B 2188   1.271   2.133   7.799 -2.8739 -1.2434 -0.7541
   30CHL1  H19C 2189   1.202   2.304   7.831  0.7964  1.6434 -1.1117
   30CHL1    C1 2190   1.348   2.444   7.684  1.4496 -0.7010  0.4970
   30CHL1   H1A 2191   1.305   2.498   7.771  0.9248  1.6536 -1.1163
   30CHL1   H1B 2192   1.444   2.495   7.660  1.0229 -0.2194 -0.2361
   30CHL1    C2 2193   1.253   2.459   7.559 -0.1994 -0.5079 -0.0955
   30CHL1   H2A 2194   1.241   2.568   7.540  0.4067  0.1121  2.6521
   30CHL1   H2B 2195   1.154   2.413   7.578  0.0526 -0.8233  0.4730
   30CHL1   C20 2196   1.729   2.200   8.317 -0.4294  0.2638  0.2994
   30CHL1   H20 2197   1.630   2.159   8.346  0.3971 -2.5362 -0.5136
   30CHL1   C21 2198   1.745   2.348   8.373  0.5084 -0.0956  0.4793
   30CHL1  H21A 2199   1.846   2.393   8.358  1.0276 -0.6194  2.2025
   30CHL1  H21B 2200   1.732   2.346   8.483  1.7753  0.8173  0.6778
   30CHL1  H21C 2201   1.664   2.412   8.332 -1.7904 -0.7058  3.6767
   30CHL1   C22 2202   1.829   2.110   8.385 -0.6767  0.0994  0.1005
   30CHL1  H22A 2203   1.827   2.003   8.357  2.4631  0.3017 -1.2760
   30CHL1  H22B 2204   1.933   2.146   8.370 -0.3407  0.0435  2.0075
   30CHL1   C23 2205   1.818   2.092   8.539 -0.0306 -0.0163 -0.5527
   30CHL1  H23A 2206   1.853   2.185   8.589 -0.2887 -0.5309  0.6054
   30CHL1  H23B 2207   1.708   2.085   8.556  0.0308  0.7520  0.2196
   30CHL1   C24 2208   1.894   1.978   8.613  0.1488 -1.0044 -0.1681
   30CHL1  H24A 2209   1.848   1.887   8.570 -4.2401  1.8305 -2.1622
   30CHL1  H24B 2210   2.003   1.982   8.589 -0.5111 -0.5140 -3.5879
   30CHL1   C25 2211   1.873   1.981   8.761 -0.1451  0.1863 -0.5619
   30CHL1   H25 2212   1.880   2.083   8.804 -0.2473  1.5979 -3.5773
   30CHL1   C26 2213   1.737   1.920   8.815 -0.0765  0.2053 -0.2943
   30CHL1  H26A 2214   1.645   1.977   8.789  0.7022  1.2113 -0.9223
   30CHL1  H26B 2215   1.729   1.817   8.774 -2.5713  0.9062 -1.7814
   30CHL1  H26C 2216   1.741   1.908   8.925 -2.0560  0.4747 -0.1521
   30CHL1   C27 2217   1.978   1.893   8.836  0.3446 -0.2838 -0.0487
   30CHL1  H27A 2218   1.966   1.915   8.944  0.3231  0.2210 -0.1501
   30CHL1  H27B 2219   1.951   1.790   8.803 -2.5467  0.0330  1.0973
   30CHL1  H27C 2220   2.080   1.915   8.796  0.3170 -1.1472 -0.6205
   31CHL1    C3 2221   6.756   4.905   6.784  0.3327  0.1323 -0.4203
   31CHL1    H3 2222   6.865   4.887   6.797  0.7855  2.3415 -0.8179
   31CHL1    O3 2223   6.734   4.929   6.651 -0.1781 -0.0303 -0.4937
   31CHL1   H3' 2224   6.644   4.916   6.620  0.4006 -1.2181 -1.7691
   31CHL1    C4 2225   6.669   4.783   6.824  0.8458  0.0195 -0.6263
   31CHL1   H4A 2226   6.561   4.808   6.816  0.6517 -0.5145  0.2387
   31CHL1   H4B 2227   6.697   4.700   6.755  1.6243 -0.3502  0.1225
   31CHL1    C5 2228   6.694   4.753   6.974  0.3544 -0.0431  0.2299
   31CHL1    C6 2229   6.733   4.631   7.012 -0.7036  0.3052 -0.2176
   31CHL1    H6 2230   6.756   4.554   6.937  1.4348  1.1120 -0.4751
   31CHL1    C7 2231   6.758   4.600   7.150 -0.1131  0.5620 -0.1865
   31CHL1   H7A 2232   6.710   4.503   7.173  0.3161  0.2713 -0.5173
   31CHL1   H7B 2233   6.867   4.584   7.159 -0.4312 -0.6019  2.3236
   31CHL1    C8 2234   6.702   4.699   7.259 -0.2923  0.0891 -0.2673
   31CHL1    H8 2235   6.595   4.674   7.276  0.4700 -0.6203  4.9384
   31CHL1   C14 2236   6.770   4.688   7.399 -0.2403 -0.0091  0.3020
   31CHL1   H14 2237   6.874   4.726   7.389  0.5754 -2.2804 -0.3781
   31CHL1   C15 2238   6.796   4.546   7.457 -0.3064  0.4458  0.2870
   31CHL1  H15A 2239   6.710   4.482   7.429 -0.4456  0.3560  0.9101
   31CHL1  H15B 2240   6.890   4.502   7.416 -1.3096 -0.4724 -1.1208
   31CHL1   C16 2241   6.800   4.561   7.609 -0.0882 -0.4609 -0.1014
   31CHL1  H16A 2242   6.715   4.509   7.660 -1.6673  1.1560 -0.9634
   31CHL1  H16B 2243   6.893   4.513   7.645 -1.2298 -0.4582  3.1976
   31CHL1   C17 2244   6.790   4.714   7.638  0.0338 -0.4267  0.2767
   31CHL1   H17 2245   6.895   4.748   7.626 -0.4176  0.9402  0.0004
   31CHL1   C13 2246   6.716   4.771   7.519 -0.0953 -0.0744 -0.7282
   31CHL1   C18 2247   6.562   4.742   7.536  0.5415 -0.3377 -0.1614
   31CHL1  H18A 2248   6.507   4.756   7.440 -0.0472 -0.8486  0.0947
   31CHL1  H18B 2249   6.528   4.645   7.577  0.0055  0.6582  1.8746
   31CHL1  H18C 2250   6.530   4.822   7.606  0.8119  0.2651 -0.7142
   31CHL1   C12 2251   6.745   4.908   7.469 -0.1400  0.0030  0.6521
   31CHL1  H12A 2252   6.702   4.979   7.543 -0.7607  1.1753 -0.7919
   31CHL1  H12B 2253   6.853   4.932   7.468 -0.4063  1.2656  0.1684
   31CHL1   C11 2254   6.677   4.940   7.334  0.0354 -0.1820 -0.1438
   31CHL1  H11A 2255   6.566   4.946   7.341  0.1309  3.9766  0.1313
   31CHL1  H11B 2256   6.703   5.043   7.301  0.0637 -1.1979 -3.7761
   31CHL1    C9 2257   6.719   4.845   7.221  0.0055  0.5064  0.0375
   31CHL1    H9 2258   6.829   4.860   7.217  0.5823 -2.1331  2.3408
   31CHL1   C10 2259   6.674   4.868   7.073 -0.1627 -0.2471  0.1166
   31CHL1   C19 2260   6.527   4.896   7.082  0.2769  0.4324  0.4562
   31CHL1  H19A 2261   6.475   4.810   7.130  0.9249 -0.2798 -0.1089
   31CHL1  H19B 2262   6.484   4.990   7.122  0.5015  0.9389 -0.4598
   31CHL1  H19C 2263   6.483   4.906   6.980  0.8453 -0.5917  0.0938
   31CHL1    C1 2264   6.747   4.995   7.019  0.3223 -0.3773 -0.3135
   31CHL1   H1A 2265   6.715   5.089   7.069  0.9824  0.5511 -1.5494
   31CHL1   H1B 2266   6.857   4.991   7.032  0.3860 -0.3664 -0.8087
   31CHL1    C2 2267   6.717   5.020   6.869  0.0564  0.1047 -0.3938
   31CHL1   H2A 2268   6.761   5.120   6.849 -0.0623  0.3288  0.4607
   31CHL1   H2B 2269   6.608   5.030   6.851  0.1432  0.7270 -0.5904
   31CHL1   C20 2270   6.751   4.745   7.785 -0.2951 -0.0689  0.3276
   31CHL1   H20 2271   6.644   4.715   7.798  0.3125 -2.1770  0.8077
   31CHL1   C21 2272   6.746   4.899   7.799  0.0125  0.6784 -0.4124
   31CHL1  H21A 2273   6.728   4.938   7.901 -2.3371 -0.0167 -0.5088
   31CHL1  H21B 2274   6.660   4.946   7.747  0.5933  0.3002 -1.7654
   31CHL1  H21C 2275   6.837   4.942   7.751 -1.3164  2.0387 -1.8481
   31CHL1   C22 2276   6.838   4.668   7.881  0.0292 -0.3639 -0.4424
   31CHL1  H22A 2277   6.832   4.561   7.854  0.2503 -0.0379 -1.8582
   31CHL1  H22B 2278   6.946   4.684   7.861  1.1401 -2.8065  2.7976
   31CHL1   C23 2279   6.796   4.693   8.025 -0.5999 -0.4768  0.1795
   31CHL1  H23A 2280   6.820   4.797   8.053  1.1129 -0.9432  0.6070
   31CHL1  H23B 2281   6.690   4.671   8.050 -0.4263 -0.8181  0.6432
   31CHL1   C24 2282   6.879   4.599   8.124  0.6438 -0.1674 -0.3140
   31CHL1  H24A 2283   6.851   4.493   8.109  0.0731 -0.0130 -0.3569
   31CHL1  H24B 2284   6.986   4.594   8.094  0.6677  0.9231 -0.4555
   31CHL1   C25 2285   6.874   4.635   8.273  0.6514 -0.2774  0.0053
   31CHL1   H25 2286   6.957   4.586   8.328  0.2016 -2.1429 -0.8864
   31CHL1   C26 2287   6.878   4.785   8.300  0.1634  0.1932 -0.4002
   31CHL1  H26A 2288   6.965   4.830   8.249 -0.1058 -0.9488 -1.9373
   31CHL1  H26B 2289   6.782   4.838   8.281 -0.5660  0.8537  3.8885
   31CHL1  H26C 2290   6.892   4.804   8.409 -0.7135  2.8146 -0.6734
   31CHL1   C27 2291   6.745   4.570   8.333 -0.0477 -0.1387 -0.5167
   31CHL1  H27A 2292   6.653   4.618   8.295 -2.0719 -2.1017  1.6062
   31CHL1  H27B 2293   6.758   4.575   8.443  2.7204 -1.6126 -0.6697
   31CHL1  H27C 2294   6.741   4.462   8.307  0.6058 -0.5815  1.1091
   32CHL1    C3 2295   2.257   2.493   7.043  0.7534  0.1102  0.0917
   32CHL1    H3 2296   2.167   2.558   7.036 -0.5136 -1.0619  3.3941
   32CHL1    O3 2297   2.280   2.421   6.925  0.5791 -0.0220 -0.2658
   32CHL1   H3' 2298   2.363   2.373   6.934  0.5237 -0.2272 -0.8032
   32CHL1    C4 2299   2.369   2.579   7.083 -0.1363 -0.2860 -0.1632
   32CHL1   H4A 2300   2.464   2.527   7.057 -0.0145 -1.4649  2.3346
   32CHL1   H4B 2301   2.362   2.670   7.019  1.4943  1.5108  2.0540
   32CHL1    C5 2302   2.384   2.635   7.228 -0.3199 -0.0456 -0.7075
   32CHL1    C6 2303   2.401   2.763   7.260 -0.0294  0.7158 -0.1131
   32CHL1    H6 2304   2.402   2.842   7.182 -1.4655  0.5674 -0.3230
   32CHL1    C7 2305   2.439   2.817   7.391 -0.3864  0.4278 -0.2579
   32CHL1   H7A 2306   2.529   2.882   7.387  0.2608 -0.4268  0.1206
   32CHL1   H7B 2307   2.352   2.861   7.444 -2.9291 -1.2082 -2.8074
   32CHL1    C8 2308   2.480   2.700   7.490  0.2334 -0.7152 -0.2782
   32CHL1    H8 2309   2.579   2.663   7.455  0.6611  0.8165 -0.7357
   32CHL1   C14 2310   2.477   2.751   7.639 -0.2027  0.3268  0.4153
   32CHL1   H14 2311   2.371   2.783   7.652 -0.3199 -0.4727  1.5100
   32CHL1   C15 2312   2.567   2.868   7.676  1.1196 -0.1397  0.4350
   32CHL1  H15A 2313   2.671   2.851   7.641  1.3395  0.9303  0.5295
   32CHL1  H15B 2314   2.538   2.971   7.643  0.1973 -0.3626  0.5291
   32CHL1   C16 2315   2.560   2.866   7.827  0.1511 -0.1463  0.2961
   32CHL1  H16A 2316   2.666   2.878   7.858 -0.6211 -0.0583  3.1833
   32CHL1  H16B 2317   2.507   2.955   7.867  1.5047  0.7788  0.0982
   32CHL1   C17 2318   2.498   2.721   7.867 -0.2365  0.0502 -0.7661
   32CHL1   H17 2319   2.388   2.739   7.874 -0.2272 -0.1354  0.0763
   32CHL1   C13 2320   2.505   2.638   7.741 -0.3110  0.1909  0.0990
   32CHL1   C18 2321   2.651   2.577   7.726 -0.1360  0.1749 -0.0866
   32CHL1  H18A 2322   2.731   2.652   7.745 -0.0404  0.0736 -0.0888
   32CHL1  H18B 2323   2.671   2.500   7.804  2.1896  0.1004 -0.6976
   32CHL1  H18C 2324   2.669   2.522   7.632 -1.7506  0.0793 -0.3751
   32CHL1   C12 2325   2.406   2.527   7.736 -0.2581 -0.2471 -0.0030
   32CHL1  H12A 2326   2.429   2.446   7.808  1.5846  1.4800  1.4829
   32CHL1  H12B 2327   2.303   2.563   7.756  0.7728  3.0677 -0.0847
   32CHL1   C11 2328   2.402   2.475   7.591 -0.5327 -0.2555 -0.2987
   32CHL1  H11A 2329   2.498   2.423   7.570  0.3427  1.6619 -1.3357
   32CHL1  H11B 2330   2.331   2.390   7.581  0.5773 -1.4177  1.1311
   32CHL1    C9 2331   2.381   2.580   7.474  0.2490 -0.2443 -0.2138
   32CHL1    H9 2332   2.280   2.625   7.481 -0.8547 -2.2854 -1.9066
   32CHL1   C10 2333   2.382   2.526   7.329  0.6452  0.2684 -0.4439
   32CHL1   C19 2334   2.506   2.435   7.308  0.3194 -0.4323  0.0308
   32CHL1  H19A 2335   2.516   2.345   7.372  1.2675  0.4096  1.1105
   32CHL1  H19B 2336   2.506   2.393   7.205 -0.3652 -0.8905  0.2090
   32CHL1  H19C 2337   2.601   2.493   7.306 -0.4998  1.0980  2.1586
   32CHL1    C1 2338   2.237   2.462   7.303  0.3820 -0.2096  0.9588
   32CHL1   H1A 2339   2.234   2.384   7.383 -0.9049 -0.5836  0.5608
   32CHL1   H1B 2340   2.156   2.536   7.316  1.5917  1.4511 -0.4624
   32CHL1    C2 2341   2.222   2.396   7.160  0.4477 -0.1201  0.1789
   32CHL1   H2A 2342   2.126   2.345   7.141 -0.3087  2.0525 -2.7199
   32CHL1   H2B 2343   2.300   2.317   7.153  2.4439  1.2851  3.8545
   32CHL1   C20 2344   2.542   2.668   8.000 -0.3592  0.4187  0.5143
   32CHL1   H20 2345   2.533   2.558   8.005 -1.7789  0.5303  1.1883
   32CHL1   C21 2346   2.440   2.724   8.104 -0.1202  0.2246 -0.0932
   32CHL1  H21A 2347   2.446   2.834   8.122 -0.0643  0.2535 -0.2841
   32CHL1  H21B 2348   2.470   2.688   8.205  1.7985  0.0125 -0.7102
   32CHL1  H21C 2349   2.337   2.683   8.098 -1.8519  3.9474  1.2058
   32CHL1   C22 2350   2.681   2.711   8.058 -0.5227  0.5011 -0.0191
   32CHL1  H22A 2351   2.747   2.705   7.969 -0.7348  1.2458 -0.2318
   32CHL1  H22B 2352   2.676   2.812   8.104  0.3955  0.7458 -0.4301
   32CHL1   C23 2353   2.727   2.610   8.164  0.2469 -0.5967  0.7833
   32CHL1  H23A 2354   2.702   2.660   8.260 -0.5658  0.8035 -0.1166
   32CHL1  H23B 2355   2.666   2.517   8.166 -0.8200  0.0892  0.9247
   32CHL1   C24 2356   2.878   2.571   8.158 -0.9744  0.2309 -0.9641
   32CHL1  H24A 2357   2.893   2.520   8.060 -1.1044 -1.4519 -0.1433
   32CHL1  H24B 2358   2.933   2.667   8.163  0.7920 -0.8189  0.9406
   32CHL1   C25 2359   2.946   2.496   8.282 -0.4882  0.2497 -0.1135
   32CHL1   H25 2360   2.928   2.386   8.276  0.8072  0.0995 -4.3752
   32CHL1   C26 2361   3.094   2.515   8.268  0.3853  0.5968 -0.6445
   32CHL1  H26A 2362   3.150   2.479   8.357  0.9214  2.9765  0.0498
   32CHL1  H26B 2363   3.129   2.466   8.174 -0.3012 -1.9296  0.3342
   32CHL1  H26C 2364   3.118   2.623   8.275  2.3249  0.1341  0.5349
   32CHL1   C27 2365   2.879   2.550   8.415  0.1162 -0.5921  0.0516
   32CHL1  H27A 2366   2.772   2.524   8.409  0.4528 -1.7941 -1.1720
   32CHL1  H27B 2367   2.928   2.499   8.501  2.2457  0.5958 -0.3712
   32CHL1  H27C 2368   2.893   2.660   8.425 -0.1795 -0.6669  1.6450
   33CHL1    C3 2369   4.008   1.730   6.990 -0.6253  0.3627  0.7423
   33CHL1    H3 2370   4.077   1.818   6.992 -1.3896  1.0390 -1.0188
   33CHL1    O3 2371   4.012   1.678   6.856 -0.2924  0.3990 -0.5810
   33CHL1   H3' 2372   3.939   1.616   6.860 -1.2122  1.5089  1.0850
   33CHL1    C4 2373   4.056   1.621   7.089 -0.8519  0.4232  0.1219
   33CHL1   H4A 2374   3.995   1.531   7.068 -0.7468  0.1389  1.0002
   33CHL1   H4B 2375   4.164   1.596   7.080 -1.2369 -1.9357  1.3977
   33CHL1    C5 2376   4.030   1.656   7.238  0.1104 -0.2905  0.3310
   33CHL1    C6 2377   4.131   1.646   7.332  0.4692 -0.2129  0.1722
   33CHL1    H6 2378   4.229   1.610   7.299  1.5266  1.4461  1.3077
   33CHL1    C7 2379   4.117   1.686   7.476 -0.1443 -0.0290 -0.3780
   33CHL1   H7A 2380   4.166   1.613   7.543 -0.2589  0.8829  0.7342
   33CHL1   H7B 2381   4.161   1.786   7.498 -0.7687 -0.3659  2.7770
   33CHL1    C8 2382   3.961   1.692   7.513  0.4616  0.2405  0.2539
   33CHL1    H8 2383   3.921   1.589   7.507  0.7072  0.2081 -1.1828
   33CHL1   C14 2384   3.938   1.758   7.653  0.1527 -0.0717 -0.9162
   33CHL1   H14 2385   3.985   1.859   7.656  0.0726 -0.0313 -1.0067
   33CHL1   C15 2386   4.012   1.684   7.763  1.0377 -0.2996  0.2225
   33CHL1  H15A 2387   3.997   1.574   7.759  0.7193 -0.2169 -1.7793
   33CHL1  H15B 2388   4.121   1.701   7.764  0.5937  3.5174 -0.9193
   33CHL1   C16 2389   3.936   1.736   7.895  0.4626 -0.1771 -0.7535
   33CHL1  H16A 2390   3.904   1.651   7.958 -1.9786  1.8225  0.8784
   33CHL1  H16B 2391   3.999   1.800   7.961 -0.1740  0.5848 -0.8808
   33CHL1   C17 2392   3.804   1.808   7.843  0.0344 -0.4409  0.0135
   33CHL1   H17 2393   3.829   1.917   7.846  1.5412 -0.7677  0.6166
   33CHL1   C13 2394   3.798   1.771   7.695  0.8039  0.6301 -0.3477
   33CHL1   C18 2395   3.713   1.634   7.699  0.1991 -0.8196 -0.2154
   33CHL1  H18A 2396   3.707   1.573   7.606 -0.8624 -1.3253  0.1565
   33CHL1  H18B 2397   3.750   1.561   7.774  0.7607 -0.5545 -0.2285
   33CHL1  H18C 2398   3.605   1.651   7.722  0.3049 -0.5756  0.1000
   33CHL1   C12 2399   3.733   1.871   7.597 -0.1909  0.9302 -0.0952
   33CHL1  H12A 2400   3.627   1.885   7.628  0.0792  3.3075 -0.0046
   33CHL1  H12B 2401   3.767   1.977   7.602 -1.2607  1.2511  1.1271
   33CHL1   C11 2402   3.739   1.809   7.457 -0.2363 -0.1931 -0.3204
   33CHL1  H11A 2403   3.673   1.720   7.446  0.4309 -1.0730  2.1100
   33CHL1  H11B 2404   3.706   1.884   7.382 -2.0344  0.1323  0.7272
   33CHL1    C9 2405   3.885   1.778   7.413 -0.1587  0.3047 -0.1559
   33CHL1    H9 2406   3.935   1.877   7.409 -0.6840  0.6060  0.4644
   33CHL1   C10 2407   3.890   1.713   7.265 -0.0229 -0.6829 -0.1754
   33CHL1   C19 2408   3.802   1.593   7.263  0.6737 -0.6037 -0.0527
   33CHL1  H19A 2409   3.782   1.540   7.167 -1.3934 -1.2180  0.6535
   33CHL1  H19B 2410   3.817   1.518   7.344 -0.2271 -0.7472 -0.0059
   33CHL1  H19C 2411   3.694   1.610   7.285 -0.0196  0.1287 -3.4376
   33CHL1    C1 2412   3.847   1.819   7.165 -0.1885 -0.2812  1.0625
   33CHL1   H1A 2413   3.737   1.833   7.167 -0.1783  0.5589 -1.3216
   33CHL1   H1B 2414   3.891   1.917   7.190 -2.8838  1.3372 -0.1480
   33CHL1    C2 2415   3.865   1.776   7.018  0.6341 -0.3288  0.9380
   33CHL1   H2A 2416   3.842   1.870   6.964 -0.0631 -1.0372 -0.0308
   33CHL1   H2B 2417   3.798   1.694   6.984  0.7755  0.4281 -1.2896
   33CHL1   C20 2418   3.684   1.791   7.938 -0.5360  0.4596 -0.3023
   33CHL1   H20 2419   3.661   1.683   7.955  0.3567  0.4384  0.9427
   33CHL1   C21 2420   3.559   1.874   7.894 -0.0142  0.4859 -0.2994
   33CHL1  H21A 2421   3.514   1.825   7.805 -0.1599 -1.8197  0.9631
   33CHL1  H21B 2422   3.598   1.976   7.876  1.2062  0.1145  0.1570
   33CHL1  H21C 2423   3.478   1.878   7.969  0.6571 -1.7601  0.6360
   33CHL1   C22 2424   3.714   1.843   8.080 -0.9010 -0.1152 -0.1866
   33CHL1  H22A 2425   3.817   1.811   8.108 -2.3686 -2.6984  2.7918
   33CHL1  H22B 2426   3.727   1.953   8.066 -0.6942 -0.1849 -0.5598
   33CHL1   C23 2427   3.616   1.812   8.193  0.1719 -0.6637 -0.0318
   33CHL1  H23A 2428   3.541   1.893   8.201 -0.2789 -1.1843  1.2532
   33CHL1  H23B 2429   3.552   1.723   8.172 -1.5151  0.2528  1.0208
   33CHL1   C24 2430   3.687   1.800   8.328 -0.2359  0.0105  0.4948
   33CHL1  H24A 2431   3.717   1.692   8.326 -0.4388 -0.0507  0.7359
   33CHL1  H24B 2432   3.759   1.879   8.358  0.9468 -1.3967  1.5143
   33CHL1   C25 2433   3.576   1.814   8.435  0.6374  0.2092  0.4404
   33CHL1   H25 2434   3.531   1.910   8.402  0.8153  0.1627  0.0557
   33CHL1   C26 2435   3.460   1.715   8.432 -0.1890 -0.3159  0.3307
   33CHL1  H26A 2436   3.415   1.704   8.331  2.5121 -2.1157 -0.7715
   33CHL1  H26B 2437   3.484   1.614   8.472  2.2642  1.1828  2.9853
   33CHL1  H26C 2438   3.386   1.753   8.506  0.4013  0.9478  0.2904
   33CHL1   C27 2439   3.643   1.822   8.581 -0.0858  0.5967 -0.1948
   33CHL1  H27A 2440   3.695   1.726   8.603 -1.4053  0.0402  0.6377
   33CHL1  H27B 2441   3.708   1.912   8.586  1.2986 -0.4329  1.1077
   33CHL1  H27C 2442   3.568   1.828   8.663  0.3254 -0.4292  0.2799
   34CHL1    C3 2443   3.190   0.434   7.069  0.4347 -0.2822  0.4850
   34CHL1    H3 2444   3.270   0.357   7.069 -1.0743 -1.9180 -0.2356
   34CHL1    O3 2445   3.161   0.467   6.935 -0.3932  0.8187  0.1340
   34CHL1   H3' 2446   3.090   0.409   6.908  0.7736 -1.6912  2.0255
   34CHL1    C4 2447   3.058   0.383   7.137 -0.0114 -0.9820  0.4916
   34CHL1   H4A 2448   2.981   0.459   7.113 -0.0277 -1.0759  0.2507
   34CHL1   H4B 2449   3.024   0.294   7.080 -0.0948 -0.6059 -0.0517
   34CHL1    C5 2450   3.072   0.359   7.288  0.1149 -0.6284  0.1993
   34CHL1    C6 2451   3.039   0.243   7.340 -0.1356  0.3358  0.0163
   34CHL1    H6 2452   2.985   0.162   7.289 -1.0505  2.0392 -1.8504
   34CHL1    C7 2453   3.063   0.212   7.485 -0.2757 -0.1530 -0.3331
   34CHL1   H7A 2454   2.986   0.146   7.531 -0.5543  0.5894  0.2929
   34CHL1   H7B 2455   3.157   0.154   7.494 -0.3170 -0.1373  0.2680
   34CHL1    C8 2456   3.095   0.339   7.569 -0.1133 -0.8138 -0.1326
   34CHL1    H8 2457   3.002   0.396   7.587  0.2021  0.7093 -2.7858
   34CHL1   C14 2458   3.149   0.301   7.710  0.8961 -0.2844  1.8375
   34CHL1   H14 2459   3.254   0.272   7.691  1.3324  2.3311 -0.3109
   34CHL1   C15 2460   3.074   0.188   7.786 -0.4433 -0.3050 -0.4076
   34CHL1  H15A 2461   2.967   0.216   7.786  0.1492  2.2022 -1.0027
   34CHL1  H15B 2462   3.069   0.090   7.734  1.6107  0.1334 -1.5635
   34CHL1   C16 2463   3.147   0.189   7.919  0.0689 -0.2001 -0.4341
   34CHL1  H16A 2464   3.088   0.162   8.008 -0.0325 -0.8943 -0.7076
   34CHL1  H16B 2465   3.221   0.107   7.915 -0.1015 -0.3218 -1.4732
   34CHL1   C17 2466   3.218   0.332   7.931 -0.1607  0.7161 -0.4949
   34CHL1   H17 2467   3.325   0.309   7.913  0.4919  1.4826  2.0572
   34CHL1   C13 2468   3.163   0.412   7.815 -0.3887  0.2644  0.2341
   34CHL1   C18 2469   3.029   0.475   7.840  0.3657  0.3082  0.1033
   34CHL1  H18A 2470   2.956   0.396   7.870  0.2767 -0.1630 -1.2845
   34CHL1  H18B 2471   3.041   0.549   7.922  1.3645  1.5777 -1.1581
   34CHL1  H18C 2472   2.978   0.529   7.757 -0.8953 -0.1111  0.5674
   34CHL1   C12 2473   3.253   0.520   7.751  0.4903 -0.1400 -0.1898
   34CHL1  H12A 2474   3.264   0.608   7.818  0.1404  0.1197 -0.4744
   34CHL1  H12B 2475   3.351   0.467   7.744  0.2637 -0.4947 -0.7583
   34CHL1   C11 2476   3.208   0.556   7.606 -0.1365  0.2114  0.7708
   34CHL1  H11A 2477   3.111   0.607   7.626 -1.0026 -0.9956 -0.2009
   34CHL1  H11B 2478   3.282   0.626   7.561  1.1677 -1.8873 -0.5285
   34CHL1    C9 2479   3.189   0.435   7.508  0.2779 -0.5453  0.0859
   34CHL1    H9 2480   3.289   0.394   7.483  0.5698 -0.3772  0.9322
   34CHL1   C10 2481   3.135   0.477   7.368 -0.7262  0.3173 -0.4346
   34CHL1   C19 2482   3.029   0.591   7.380 -0.9747  0.5928  0.4085
   34CHL1  H19A 2483   3.066   0.681   7.433  0.6501  0.7775 -0.9779
   34CHL1  H19B 2484   3.007   0.621   7.276  0.0731 -1.0143 -0.3137
   34CHL1  H19C 2485   2.940   0.556   7.438 -0.1399  1.9411  2.6590
   34CHL1    C1 2486   3.258   0.529   7.286 -0.5236  0.4425 -0.3991
   34CHL1   H1A 2487   3.308   0.612   7.340  0.8636 -0.9659  0.5545
   34CHL1   H1B 2488   3.337   0.451   7.294 -1.4619 -0.7323 -1.9705
   34CHL1    C2 2489   3.241   0.557   7.139  0.1938 -0.4825  0.0674
   34CHL1   H2A 2490   3.333   0.592   7.088 -0.0447  2.5924  1.5220
   34CHL1   H2B 2491   3.164   0.636   7.130 -1.1143 -1.9256 -2.8413
   34CHL1   C20 2492   3.215   0.378   8.078 -0.3560 -0.6807  0.3548
   34CHL1   H20 2493   3.111   0.389   8.115  0.1241 -0.2471  1.6399
   34CHL1   C21 2494   3.271   0.522   8.086  0.3137  0.1008 -0.8939
   34CHL1  H21A 2495   3.355   0.539   8.015 -1.0894 -1.6052 -3.0930
   34CHL1  H21B 2496   3.310   0.558   8.184  0.8607  2.8437 -2.0469
   34CHL1  H21C 2497   3.196   0.598   8.057 -0.4980 -1.5958 -3.6135
   34CHL1   C22 2498   3.295   0.281   8.167 -0.0484 -0.0375  0.3508
   34CHL1  H22A 2499   3.280   0.175   8.141 -1.9314  0.3464 -0.2924
   34CHL1  H22B 2500   3.399   0.305   8.136 -0.2749 -0.2413 -0.5918
   34CHL1   C23 2501   3.262   0.300   8.315  0.8240 -0.3146  0.0323
   34CHL1  H23A 2502   3.207   0.394   8.337  2.0317  0.8589 -1.7768
   34CHL1  H23B 2503   3.185   0.225   8.345 -0.0312  0.7595  0.5787
   34CHL1   C24 2504   3.382   0.276   8.402  0.0421  0.4982 -0.1208
   34CHL1  H24A 2505   3.426   0.176   8.381  1.2647  1.1928 -0.9887
   34CHL1  H24B 2506   3.458   0.352   8.372 -0.6102  1.8130  1.4000
   34CHL1   C25 2507   3.377   0.295   8.555  0.3235 -0.3668  0.9810
   34CHL1   H25 2508   3.311   0.216   8.597  3.0300 -3.0252  0.5534
   34CHL1   C26 2509   3.516   0.272   8.613 -0.2379  0.0123 -0.3026
   34CHL1  H26A 2510   3.586   0.333   8.553  0.1238 -2.3159 -2.3959
   34CHL1  H26B 2511   3.526   0.307   8.718 -2.5491  0.4356 -0.1683
   34CHL1  H26C 2512   3.544   0.166   8.630 -2.0583 -0.4584  0.0145
   34CHL1   C27 2513   3.318   0.428   8.600  0.2678  0.2003 -0.1933
   34CHL1  H27A 2514   3.216   0.446   8.561 -0.6099 -0.3896  1.7259
   34CHL1  H27B 2515   3.320   0.424   8.711  0.2888  0.9387 -0.1623
   34CHL1  H27C 2516   3.388   0.507   8.565  0.6923 -0.9911 -2.2579
   35CHL1    C3 2517   0.218   2.712   7.329 -0.7456  0.9442 -0.3356
   35CHL1    H3 2518   0.295   2.657   7.271 -1.3675 -0.0619 -0.2291
   35CHL1    O3 2519   0.128   2.763   7.235  0.0303 -0.0919 -0.1551
   35CHL1   H3' 2520   0.170   2.806   7.161 -0.6921  1.3916  0.2647
   35CHL1    C4 2521   0.141   2.603   7.408  0.0150  0.3790  0.2831
   35CHL1   H4A 2522   0.041   2.641   7.436 -0.1670  1.7560 -2.0003
   35CHL1   H4B 2523   0.123   2.523   7.334 -2.4492  1.0692  0.0723
   35CHL1    C5 2524   0.223   2.554   7.525 -0.7966 -0.1955  0.6309
   35CHL1    C6 2525   0.248   2.421   7.544 -0.3273  0.4382  0.1449
   35CHL1    H6 2526   0.189   2.351   7.484 -0.6120 -0.5431  1.5112
   35CHL1    C7 2527   0.312   2.363   7.661 -0.3125  0.3281 -0.3389
   35CHL1   H7A 2528   0.245   2.285   7.705  0.7107 -1.5131 -1.8974
   35CHL1   H7B 2529   0.409   2.316   7.631 -1.1126 -1.8350  0.2500
   35CHL1    C8 2530   0.341   2.465   7.776  0.1252 -0.2753  0.7687
   35CHL1    H8 2531   0.253   2.481   7.841 -1.0748 -0.6260 -0.7302
   35CHL1   C14 2532   0.455   2.434   7.861 -0.5342 -0.1706 -0.3574
   35CHL1   H14 2533   0.550   2.449   7.805  0.7595  1.4960  2.1116
   35CHL1   C15 2534   0.458   2.286   7.900  0.6383  0.2705  0.1109
   35CHL1  H15A 2535   0.363   2.252   7.946  0.3333 -1.4866 -1.6517
   35CHL1  H15B 2536   0.494   2.226   7.813  0.5459  2.4902 -1.5653
   35CHL1   C16 2537   0.571   2.284   8.008 -0.2239 -0.1865  0.1993
   35CHL1  H16A 2538   0.540   2.213   8.088 -1.5618  1.7093  1.4690
   35CHL1  H16B 2539   0.661   2.247   7.956 -0.1849  1.1753 -0.7652
   35CHL1   C17 2540   0.592   2.435   8.054  0.5203  0.2314  0.3194
   35CHL1   H17 2541   0.687   2.470   8.008 -0.8229  2.4578 -0.9184
   35CHL1   C13 2542   0.477   2.517   7.983  0.1941 -0.0362 -0.5034
   35CHL1   C18 2543   0.355   2.510   8.078  0.3860  0.4400  0.5759
   35CHL1  H18A 2544   0.329   2.410   8.119  1.2155  0.1152  0.3318
   35CHL1  H18B 2545   0.368   2.585   8.159 -2.5403 -0.2711  1.8538
   35CHL1  H18C 2546   0.259   2.549   8.036  0.9393  1.1579 -0.0372
   35CHL1   C12 2547   0.498   2.659   7.939 -0.3695 -0.1742 -0.0046
   35CHL1  H12A 2548   0.499   2.717   8.033 -1.1831  0.6433 -0.4888
   35CHL1  H12B 2549   0.598   2.666   7.890 -0.6626  2.2781 -0.3572
   35CHL1   C11 2550   0.388   2.708   7.846 -0.6360 -0.6467 -0.1413
   35CHL1  H11A 2551   0.293   2.722   7.901 -0.0265 -0.1774  0.8346
   35CHL1  H11B 2552   0.416   2.809   7.807  1.3218 -0.9857  0.2644
   35CHL1    C9 2553   0.377   2.612   7.724 -0.0778  0.1172 -0.8693
   35CHL1    H9 2554   0.477   2.620   7.676  0.0812  0.2346 -0.5237
   35CHL1   C10 2555   0.280   2.660   7.616  0.0384 -0.3896 -0.5753
   35CHL1   C19 2556   0.168   2.742   7.680  0.2168 -0.0715  0.2669
   35CHL1  H19A 2557   0.122   2.685   7.764 -0.1769 -1.9789 -1.1815
   35CHL1  H19B 2558   0.202   2.841   7.717  0.0125 -0.8894  2.8969
   35CHL1  H19C 2559   0.091   2.770   7.606 -0.6881 -1.4507  0.6374
   35CHL1    C1 2560   0.361   2.763   7.528  0.1710  0.6477 -0.1898
   35CHL1   H1A 2561   0.394   2.848   7.591 -1.1243  0.9620  0.1030
   35CHL1   H1B 2562   0.443   2.702   7.485 -0.7082  0.8728 -2.3369
   35CHL1    C2 2563   0.275   2.822   7.416  0.0884  0.1882 -0.3889
   35CHL1   H2A 2564   0.332   2.888   7.347  0.2679  0.7608  0.2989
   35CHL1   H2B 2565   0.185   2.872   7.458  1.4922 -0.3228  3.6153
   35CHL1   C20 2566   0.613   2.448   8.207 -0.1678 -0.0489 -0.3521
   35CHL1   H20 2567   0.524   2.428   8.271 -0.3372  1.9685  0.0983
   35CHL1   C21 2568   0.646   2.594   8.235 -1.2310  0.1194 -0.0960
   35CHL1  H21A 2569   0.720   2.633   8.161  2.9225 -1.7185  2.6567
   35CHL1  H21B 2570   0.695   2.593   8.335  1.7596  0.2346 -1.4564
   35CHL1  H21C 2571   0.557   2.660   8.225 -1.7429 -0.6271 -0.5130
   35CHL1   C22 2572   0.723   2.347   8.267  0.3422  0.3004 -0.2076
   35CHL1  H22A 2573   0.704   2.241   8.238  0.6551  0.3240 -0.5029
   35CHL1  H22B 2574   0.815   2.386   8.219  0.5657  2.0924  1.5756
   35CHL1   C23 2575   0.754   2.344   8.416 -0.1422  0.0609 -0.9840
   35CHL1  H23A 2576   0.827   2.426   8.433 -1.4614  1.1135 -0.2513
   35CHL1  H23B 2577   0.665   2.369   8.477  0.6051  0.1351  0.1005
   35CHL1   C24 2578   0.807   2.207   8.461 -0.7196 -1.4078 -0.4522
   35CHL1  H24A 2579   0.893   2.167   8.403  1.0181 -0.9429  1.6532
   35CHL1  H24B 2580   0.840   2.198   8.567  1.1949 -1.0937 -0.9777
   35CHL1   C25 2581   0.707   2.088   8.449  0.4579  0.5457 -0.2535
   35CHL1   H25 2582   0.685   2.087   8.340 -0.3389  4.1697 -0.2505
   35CHL1   C26 2583   0.767   1.960   8.499  0.3561  0.1654  0.0205
   35CHL1  H26A 2584   0.858   1.923   8.446  2.1740  4.1050 -0.0059
   35CHL1  H26B 2585   0.794   1.971   8.606  1.8704 -2.1855 -0.0608
   35CHL1  H26C 2586   0.693   1.878   8.490  0.3830  0.1654 -0.2153
   35CHL1   C27 2587   0.581   2.124   8.529  0.5025  0.0244  0.5464
   35CHL1  H27A 2588   0.603   2.154   8.633 -1.0531  0.4970  0.7739
   35CHL1  H27B 2589   0.503   2.045   8.530 -0.0368  0.5357  0.0180
   35CHL1  H27C 2590   0.532   2.214   8.485  0.2509 -0.5126 -0.3019
   36CHL1    C3 2591   2.522   1.904   7.049  0.4198  0.7981 -0.2079
   36CHL1    H3 2592   2.628   1.898   7.084  0.2578 -1.6948  0.0332
   36CHL1    O3 2593   2.507   1.969   6.927 -0.4990 -0.6159 -0.0333
   36CHL1   H3' 2594   2.421   1.948   6.891 -0.6525  1.3484 -0.9325
   36CHL1    C4 2595   2.479   1.753   7.034  0.0455 -0.0915  0.4187
   36CHL1   H4A 2596   2.376   1.758   6.993  0.4397  0.3539 -0.5646
   36CHL1   H4B 2597   2.539   1.698   6.958 -0.7251  2.2379 -2.0150
   36CHL1    C5 2598   2.478   1.672   7.159  0.6780 -0.3788  0.5522
   36CHL1    C6 2599   2.552   1.560   7.169 -0.0732  1.0385 -0.3978
   36CHL1    H6 2600   2.606   1.520   7.081 -0.0027 -0.0311  0.1180
   36CHL1    C7 2601   2.568   1.477   7.291  0.0564  0.1067 -0.0239
   36CHL1   H7A 2602   2.581   1.369   7.271  1.3107  0.4037 -0.9286
   36CHL1   H7B 2603   2.656   1.504   7.354  0.0609 -1.3430  0.6361
   36CHL1    C8 2604   2.456   1.516   7.398 -0.1879  0.3537 -0.1416
   36CHL1    H8 2605   2.362   1.476   7.354  0.3788 -2.7884  1.2609
   36CHL1   C14 2606   2.490   1.450   7.529  0.2432  0.0248  0.3258
   36CHL1   H14 2607   2.587   1.491   7.563  0.4296 -2.0716  2.5530
   36CHL1   C15 2608   2.508   1.297   7.528  0.9108  0.2288 -0.6058
   36CHL1  H15A 2609   2.423   1.239   7.485  0.2597  0.3125  0.5138
   36CHL1  H15B 2610   2.602   1.270   7.477  0.8834  0.5550 -0.8366
   36CHL1   C16 2611   2.514   1.261   7.679  0.5505 -0.3404  0.1269
   36CHL1  H16A 2612   2.474   1.158   7.689  0.3417 -0.2556  0.1623
   36CHL1  H16B 2613   2.623   1.254   7.701  0.3658  2.9850  3.0204
   36CHL1   C17 2614   2.452   1.384   7.748 -0.1687  0.8215 -0.2237
   36CHL1   H17 2615   2.538   1.436   7.797  2.0252 -1.2126 -1.6963
   36CHL1   C13 2616   2.385   1.474   7.641 -0.6683  0.5075  0.4294
   36CHL1   C18 2617   2.251   1.425   7.592  0.4784 -0.9897  0.1946
   36CHL1  H18A 2618   2.173   1.454   7.665  2.4236  1.1206  1.5605
   36CHL1  H18B 2619   2.221   1.478   7.499  2.2533  2.0371  1.2265
   36CHL1  H18C 2620   2.257   1.315   7.572  2.5430 -0.7172 -1.0207
   36CHL1   C12 2621   2.380   1.625   7.668 -0.2580 -0.1097  0.1790
   36CHL1  H12A 2622   2.296   1.661   7.730  0.3714 -0.5387  1.3006
   36CHL1  H12B 2623   2.476   1.666   7.705 -0.3129 -0.9610  1.3241
   36CHL1   C11 2624   2.352   1.702   7.537 -0.0240 -0.1211 -0.0852
   36CHL1  H11A 2625   2.243   1.695   7.518 -0.0536 -0.2408  0.1283
   36CHL1  H11B 2626   2.368   1.811   7.550  0.2266 -0.1418 -0.2132
   36CHL1    C9 2627   2.444   1.665   7.417 -0.5129 -0.0683  1.1803
   36CHL1    H9 2628   2.548   1.697   7.437  0.4801 -2.0099 -0.5604
   36CHL1   C10 2629   2.407   1.740   7.281 -0.4164 -0.6967  0.4558
   36CHL1   C19 2630   2.261   1.717   7.233 -0.0432  0.2564 -0.1564
   36CHL1  H19A 2631   2.218   1.754   7.137  0.8619  1.4393 -0.1297
   36CHL1  H19B 2632   2.236   1.610   7.224 -2.0843  0.5682  1.1328
   36CHL1  H19C 2633   2.195   1.770   7.305 -0.8356 -0.2340 -0.5204
   36CHL1    C1 2634   2.446   1.899   7.288  1.1721 -0.6654  1.3313
   36CHL1   H1A 2635   2.380   1.944   7.365  2.1662  1.3208  1.0909
   36CHL1   H1B 2636   2.547   1.899   7.333  1.6502 -2.3857  0.3699
   36CHL1    C2 2637   2.440   1.976   7.155  0.4789 -0.3912  0.2390
   36CHL1   H2A 2638   2.477   2.079   7.176  2.1532 -0.6071 -1.3430
   36CHL1   H2B 2639   2.334   1.974   7.121  1.0740  0.3016 -1.8095
   36CHL1   C20 2640   2.357   1.342   7.864  0.6276 -0.2593  0.8378
   36CHL1   H20 2641   2.283   1.278   7.812  2.2869  0.7930 -3.2685
   36CHL1   C21 2642   2.290   1.467   7.927  0.6615 -0.2245 -0.3073
   36CHL1  H21A 2643   2.252   1.438   8.027  0.4221 -0.9355 -0.5967
   36CHL1  H21B 2644   2.206   1.503   7.865  0.0886  1.4190  1.3467
   36CHL1  H21C 2645   2.362   1.552   7.928  0.1806  0.2061 -1.1611
   36CHL1   C22 2646   2.429   1.253   7.963 -0.2808 -0.3438 -0.2350
   36CHL1  H22A 2647   2.345   1.216   8.025 -0.0908 -3.6002 -1.7196
   36CHL1  H22B 2648   2.472   1.162   7.917 -0.3721 -1.0964  1.1244
   36CHL1   C23 2649   2.540   1.310   8.064 -0.2698  1.2730  0.2035
   36CHL1  H23A 2650   2.639   1.296   8.017 -0.8532 -0.7440 -0.5279
   36CHL1  H23B 2651   2.519   1.419   8.076 -1.2144  1.0104  1.0894
   36CHL1   C24 2652   2.538   1.242   8.205 -0.0484  0.4466 -0.4570
   36CHL1  H24A 2653   2.440   1.256   8.256  0.5025  0.0028  0.7493
   36CHL1  H24B 2654   2.545   1.132   8.193 -0.0102  0.3044  0.6984
   36CHL1   C25 2655   2.648   1.288   8.306  0.1646  0.1831  0.0931
   36CHL1   H25 2656   2.749   1.271   8.263  1.5614  0.1963  3.1317
   36CHL1   C26 2657   2.647   1.435   8.345 -0.1341  0.1818  0.3288
   36CHL1  H26A 2658   2.562   1.465   8.409 -0.2672 -1.2224  0.8324
   36CHL1  H26B 2659   2.741   1.463   8.398  0.7581 -1.8385 -0.0981
   36CHL1  H26C 2660   2.654   1.491   8.249  1.6798  2.7600  1.8263
   36CHL1   C27 2661   2.652   1.201   8.430  0.1754 -0.6833  0.1723
   36CHL1  H27A 2662   2.743   1.219   8.490  0.5117 -0.0613 -0.4998
   36CHL1  H27B 2663   2.569   1.229   8.499  0.3230 -0.5585  0.2994
   36CHL1  H27C 2664   2.636   1.097   8.394 -1.6046 -0.1719 -0.6257
   37CHL1    C3 2665   3.938   2.803   7.053 -0.2394  0.0933 -0.3442
   37CHL1    H3 2666   3.867   2.883   7.084 -0.3801  0.3561 -1.3134
   37CHL1    O3 2667   3.933   2.793   6.912  0.8315 -0.5369 -0.0130
   37CHL1   H3' 2668   3.843   2.780   6.884  0.7908  1.7709 -1.2428
   37CHL1    C4 2669   4.088   2.831   7.095  0.2584 -0.8355  0.3784
   37CHL1   H4A 2670   4.157   2.762   7.042 -0.7534 -0.8025 -1.0450
   37CHL1   H4B 2671   4.111   2.931   7.052  0.1888 -1.5511 -1.4238
   37CHL1    C5 2672   4.107   2.823   7.242 -0.3920 -0.6094 -0.1497
   37CHL1    C6 2673   4.137   2.938   7.309  0.3344  0.5132 -0.6605
   37CHL1    H6 2674   4.143   3.028   7.247  0.7718  1.2555  0.4463
   37CHL1    C7 2675   4.171   2.951   7.455 -0.4651  0.9545 -0.3716
   37CHL1   H7A 2676   4.265   3.008   7.473 -0.1531  0.6664 -1.0276
   37CHL1   H7B 2677   4.090   3.000   7.513  0.2866  0.9369  0.7230
   37CHL1    C8 2678   4.194   2.813   7.523 -0.3101  0.5279  0.4729
   37CHL1    H8 2679   4.297   2.780   7.496  0.3580  1.5964  1.5829
   37CHL1   C14 2680   4.183   2.831   7.672 -0.5125  0.0240  0.2313
   37CHL1   H14 2681   4.085   2.873   7.704  0.9960  2.3623  2.1403
   37CHL1   C15 2682   4.284   2.928   7.735 -0.0467  0.0037  0.5099
   37CHL1  H15A 2683   4.390   2.908   7.708  0.2950  0.1605  1.6712
   37CHL1  H15B 2684   4.252   3.034   7.726 -0.6602 -0.2852 -1.1022
   37CHL1   C16 2685   4.279   2.888   7.881 -0.4991  0.6618 -0.4054
   37CHL1  H16A 2686   4.381   2.864   7.918 -0.6746 -3.2907 -2.0843
   37CHL1  H16B 2687   4.230   2.962   7.949 -0.6884  0.4547 -0.3172
   37CHL1   C17 2688   4.201   2.747   7.898 -0.1294 -0.2422  0.5328
   37CHL1   H17 2689   4.095   2.771   7.922 -0.2828 -2.3885  2.3516
   37CHL1   C13 2690   4.197   2.696   7.752 -0.2910 -0.2690  0.5574
   37CHL1   C18 2691   4.317   2.606   7.709  0.1375  0.4787  0.2419
   37CHL1  H18A 2692   4.412   2.644   7.751 -0.4818  0.3788  1.8096
   37CHL1  H18B 2693   4.304   2.503   7.748  1.6121 -0.2477 -1.1182
   37CHL1  H18C 2694   4.329   2.603   7.599 -0.7815 -0.2689  0.1472
   37CHL1   C12 2695   4.072   2.614   7.715  0.0083 -0.4745 -0.1237
   37CHL1  H12A 2696   4.057   2.520   7.772  0.7072 -0.5818 -0.1184
   37CHL1  H12B 2697   3.986   2.683   7.730  0.1915 -0.0873 -0.8355
   37CHL1   C11 2698   4.068   2.589   7.560  1.1073 -0.5302 -0.5222
   37CHL1  H11A 2699   4.148   2.521   7.524  0.9018 -0.3709 -1.3092
   37CHL1  H11B 2700   3.971   2.538   7.539  1.4201 -0.3625 -2.6678
   37CHL1    C9 2701   4.083   2.719   7.474  0.4723  0.2007  0.1993
   37CHL1    H9 2702   3.993   2.774   7.510  0.2207 -0.3612  0.4350
   37CHL1   C10 2703   4.072   2.694   7.316 -0.9028  0.0984 -0.2504
   37CHL1   C19 2704   4.175   2.589   7.270  0.2151  0.1058 -0.3017
   37CHL1  H19A 2705   4.282   2.622   7.267  0.2162  0.1044 -0.2714
   37CHL1  H19B 2706   4.163   2.505   7.341  3.0243 -0.6390 -0.5555
   37CHL1  H19C 2707   4.155   2.546   7.169 -1.1051 -3.5239  1.3424
   37CHL1    C1 2708   3.931   2.657   7.268 -0.7873 -0.9117 -0.0427
   37CHL1   H1A 2709   3.903   2.559   7.311 -0.5330 -1.3911 -0.9287
   37CHL1   H1B 2710   3.853   2.725   7.307 -0.4293  0.1982 -1.2058
   37CHL1    C2 2711   3.903   2.666   7.113 -0.1341  0.4310 -0.0436
   37CHL1   H2A 2712   3.795   2.644   7.101 -0.7056  1.5504  2.3479
   37CHL1   H2B 2713   3.962   2.585   7.065  0.0993 -0.1293  1.1595
   37CHL1   C20 2714   4.255   2.663   8.014 -0.3441  0.2285 -0.3318
   37CHL1   H20 2715   4.357   2.627   7.988 -0.9068 -0.2866 -1.9383
   37CHL1   C21 2716   4.162   2.541   8.034 -0.0197 -0.1954 -0.9963
   37CHL1  H21A 2717   4.144   2.490   7.937 -0.3082 -0.2619 -0.9097
   37CHL1  H21B 2718   4.061   2.561   8.076  1.1551  0.2728  1.8447
   37CHL1  H21C 2719   4.209   2.476   8.111 -1.1632  0.0345 -0.0728
   37CHL1   C22 2720   4.271   2.733   8.155  0.5514 -0.6030 -0.1896
   37CHL1  H22A 2721   4.303   2.661   8.233  1.6327  1.1152  1.0049
   37CHL1  H22B 2722   4.352   2.806   8.136  0.3917 -0.5440 -0.6664
   37CHL1   C23 2723   4.143   2.803   8.214 -0.2553  0.0103  0.7552
   37CHL1  H23A 2724   4.114   2.896   8.161  1.0715  1.8046  2.9966
   37CHL1  H23B 2725   4.056   2.734   8.210 -1.4306  1.4752 -0.0079
   37CHL1   C24 2726   4.172   2.842   8.360 -0.3868  0.5494  0.2074
   37CHL1  H24A 2727   4.192   2.748   8.416  1.8587  0.4965 -0.5985
   37CHL1  H24B 2728   4.268   2.896   8.354  0.8544 -1.6264 -0.8094
   37CHL1   C25 2729   4.065   2.927   8.441  0.2079  0.0581 -0.7045
   37CHL1   H25 2730   4.035   3.015   8.381  0.2862  1.1754  0.8317
   37CHL1   C26 2731   3.935   2.849   8.482 -0.7765  0.1455  0.6652
   37CHL1  H26A 2732   3.877   2.909   8.556 -0.1807 -0.7446  1.8909
   37CHL1  H26B 2733   3.860   2.807   8.412 -1.2564  0.0834  1.2010
   37CHL1  H26C 2734   3.967   2.755   8.532 -1.1002 -0.4951 -0.2940
   37CHL1   C27 2735   4.145   2.986   8.557 -0.0137  0.2062  0.2234
   37CHL1  H27A 2736   4.083   3.043   8.630  1.5464 -0.1059  1.8528
   37CHL1  H27B 2737   4.201   2.907   8.613 -0.7990 -1.6583 -1.4891
   37CHL1  H27C 2738   4.210   3.069   8.522  0.0697 -0.2318 -0.6886
   38CHL1    C3 2739   1.045   4.377   6.822 -0.0084 -0.0650 -0.1979
   38CHL1    H3 2740   1.116   4.294   6.844 -0.9607 -0.9895 -0.4886
   38CHL1    O3 2741   1.034   4.401   6.682  0.0099  0.3501 -0.5871
   38CHL1   H3' 2742   0.949   4.446   6.677  0.7099  1.8669  0.6536
   38CHL1    C4 2743   0.910   4.342   6.887 -0.9706 -0.5568  0.3379
   38CHL1   H4A 2744   0.853   4.431   6.855 -1.1939  0.1151  2.4888
   38CHL1   H4B 2745   0.866   4.256   6.832 -0.9361 -0.7105  0.5479
   38CHL1    C5 2746   0.923   4.325   7.040  0.0984 -0.2924  0.0097
   38CHL1    C6 2747   0.885   4.210   7.096  0.4764  0.1148  0.2183
   38CHL1    H6 2748   0.855   4.129   7.029  3.1621 -2.0051  1.3667
   38CHL1    C7 2749   0.878   4.183   7.245  0.7428  0.0815  0.5904
   38CHL1   H7A 2750   0.780   4.141   7.276  0.6197  0.8279  1.2415
   38CHL1   H7B 2751   0.954   4.109   7.275 -0.5473 -0.1963  3.5198
   38CHL1    C8 2752   0.912   4.313   7.322  0.4137  0.0944  0.4694
   38CHL1    H8 2753   0.822   4.377   7.325  0.1247 -0.3038  0.2940
   38CHL1   C14 2754   0.939   4.281   7.463  0.4582  0.6595  0.1325
   38CHL1   H14 2755   1.033   4.221   7.461  0.3913  0.4719  1.5174
   38CHL1   C15 2756   0.841   4.191   7.541  0.2058 -0.1043 -0.1509
   38CHL1  H15A 2757   0.739   4.219   7.508  0.7802 -0.2903 -2.1980
   38CHL1  H15B 2758   0.859   4.084   7.515 -0.7795 -1.1217  2.9696
   38CHL1   C16 2759   0.872   4.227   7.685 -0.1409 -0.4382  0.1393
   38CHL1  H16A 2760   0.783   4.273   7.733  0.3292 -0.2605  0.8603
   38CHL1  H16B 2761   0.890   4.137   7.748 -1.2398 -0.4452  0.4755
   38CHL1   C17 2762   0.986   4.334   7.693  0.4409  0.2899  0.4397
   38CHL1   H17 2763   1.080   4.275   7.679  0.3705 -0.2855  2.1292
   38CHL1   C13 2764   0.967   4.401   7.550  0.6230 -0.5304  1.1488
   38CHL1   C18 2765   0.838   4.490   7.556  0.0430  0.1258  0.4885
   38CHL1  H18A 2766   0.873   4.576   7.618  1.7028 -0.2087  0.0450
   38CHL1  H18B 2767   0.810   4.541   7.461 -0.1965  0.5608  0.7879
   38CHL1  H18C 2768   0.752   4.445   7.611  0.0129  1.4446  1.5921
   38CHL1   C12 2769   1.087   4.479   7.487  0.4364  0.2392 -0.0006
   38CHL1  H12A 2770   1.109   4.570   7.546 -1.5039  1.4006 -0.9712
   38CHL1  H12B 2771   1.175   4.412   7.498  0.7088  0.6475  0.3337
   38CHL1   C11 2772   1.072   4.523   7.346 -0.1976 -0.8253 -0.5534
   38CHL1  H11A 2773   1.004   4.610   7.346  2.0559  1.0266 -0.6707
   38CHL1  H11B 2774   1.165   4.573   7.312  2.2502 -1.1173  4.7579
   38CHL1    C9 2775   1.019   4.404   7.257 -0.2985 -0.1886  0.3435
   38CHL1    H9 2776   1.112   4.342   7.258  1.5480  2.4267  1.5551
   38CHL1   C10 2777   0.989   4.442   7.111 -0.2688  0.1203  0.7344
   38CHL1   C19 2778   0.887   4.559   7.111  0.0436  0.2307  0.6376
   38CHL1  H19A 2779   0.940   4.653   7.140 -0.5035  0.6848  0.1918
   38CHL1  H19B 2780   0.831   4.576   7.017  1.0852 -1.0066 -0.2260
   38CHL1  H19C 2781   0.826   4.529   7.199 -0.6149  0.0334  0.1232
   38CHL1    C1 2782   1.117   4.486   7.037 -0.0607 -0.1058  0.1906
   38CHL1   H1A 2783   1.140   4.579   7.094 -1.0795  0.6096 -0.5315
   38CHL1   H1B 2784   1.204   4.417   7.046  0.2262  0.0161 -1.4326
   38CHL1    C2 2785   1.102   4.508   6.884 -0.2897  0.2660 -0.3616
   38CHL1   H2A 2786   1.208   4.514   6.853 -0.5284  2.9730 -0.8597
   38CHL1   H2B 2787   1.041   4.596   6.854  1.3130  1.6034  0.2126
   38CHL1   C20 2788   0.991   4.419   7.817 -0.4258  0.0101 -0.0928
   38CHL1   H20 2789   0.904   4.488   7.807 -2.0729 -2.0766 -1.1328
   38CHL1   C21 2790   1.125   4.495   7.824 -0.0371  0.1164 -0.6594
   38CHL1  H21A 2791   1.126   4.545   7.924 -4.2332  0.5706 -0.6467
   38CHL1  H21B 2792   1.151   4.560   7.738 -1.1184 -1.4666 -2.2441
   38CHL1  H21C 2793   1.203   4.419   7.845 -1.1907 -0.0302  4.7285
   38CHL1   C22 2794   0.979   4.343   7.949  0.2347  0.5557 -0.0527
   38CHL1  H22A 2795   0.898   4.267   7.947  2.1937 -1.6254 -0.5744
   38CHL1  H22B 2796   1.068   4.277   7.948 -1.2693 -1.6406 -2.7911
   38CHL1   C23 2797   0.952   4.429   8.067  0.2191 -0.4169 -0.4628
   38CHL1  H23A 2798   1.025   4.510   8.086 -0.3290 -0.2781  1.1995
   38CHL1  H23B 2799   0.854   4.479   8.052 -0.6339 -1.5804  0.9055
   38CHL1   C24 2800   0.940   4.356   8.204 -0.3040  0.5674  0.0207
   38CHL1  H24A 2801   0.851   4.290   8.201  1.6143 -2.1328 -0.7081
   38CHL1  H24B 2802   1.033   4.295   8.211 -0.3859  0.5651  1.3978
   38CHL1   C25 2803   0.927   4.445   8.331 -0.2951  0.1057 -0.9395
   38CHL1   H25 2804   0.836   4.507   8.315  0.7856  2.2536  0.6322
   38CHL1   C26 2805   0.906   4.370   8.466 -0.1940  0.0090  0.1568
   38CHL1  H26A 2806   0.820   4.303   8.446 -1.5389  1.3744  1.0636
   38CHL1  H26B 2807   1.001   4.314   8.482  0.8198  1.2505 -1.2214
   38CHL1  H26C 2808   0.880   4.435   8.552 -0.7766 -0.7856  0.5944
   38CHL1   C27 2809   1.026   4.557   8.347  0.2673  0.0353  0.0107
   38CHL1  H27A 2810   1.003   4.611   8.441 -1.4731 -0.7203  0.0573
   38CHL1  H27B 2811   1.127   4.511   8.353  0.7461  0.6219 -2.4153
   38CHL1  H27C 2812   1.033   4.633   8.266 -0.7755  0.4680  0.3159
   39CHL1    C3 2813   0.894   3.552   6.984  0.1485 -0.3299  0.2188
   39CHL1    H3 2814   0.846   3.452   6.984  1.7516 -1.2892 -4.1137
   39CHL1    O3 2815   0.944   3.588   6.852 -0.3196  0.6406  0.4474
   39CHL1   H3' 2816   0.992   3.670   6.847  0.9894 -0.0912  0.5676
   39CHL1    C4 2817   0.782   3.658   7.013 -0.0409 -1.1288  0.4365
   39CHL1   H4A 2818   0.812   3.763   6.993 -1.7026 -0.7441 -0.1924
   39CHL1   H4B 2819   0.704   3.647   6.935 -0.1325 -1.9539  0.6341
   39CHL1    C5 2820   0.723   3.636   7.146  0.0651 -0.6528 -0.3303
   39CHL1    C6 2821   0.592   3.622   7.169  0.3703  0.3044 -0.4415
   39CHL1    H6 2822   0.521   3.637   7.086  1.5352  2.1705 -1.1814
   39CHL1    C7 2823   0.526   3.614   7.300 -0.3280 -0.2927  0.1618
   39CHL1   H7A 2824   0.447   3.691   7.315 -0.5580 -0.4014 -0.4435
   39CHL1   H7B 2825   0.492   3.508   7.302  2.4623 -1.3827 -2.4298
   39CHL1    C8 2826   0.617   3.649   7.429 -0.2615  0.1697 -0.6076
   39CHL1    H8 2827   0.624   3.758   7.449  1.6039  0.0312 -0.2372
   39CHL1   C14 2828   0.556   3.588   7.555  0.1855 -0.2299 -0.3278
   39CHL1   H14 2829   0.550   3.481   7.527  0.5317 -0.4490  0.4181
   39CHL1   C15 2830   0.409   3.617   7.592  0.0479 -0.1412 -0.0195
   39CHL1  H15A 2831   0.373   3.719   7.567 -1.8605 -1.1687 -1.8220
   39CHL1  H15B 2832   0.346   3.546   7.534  1.0816 -1.1294  0.0337
   39CHL1   C16 2833   0.396   3.575   7.743  0.0084 -0.4577  0.2568
   39CHL1  H16A 2834   0.350   3.661   7.796  2.2301  1.2832 -0.5433
   39CHL1  H16B 2835   0.338   3.482   7.765  0.8701 -0.5191  2.5299
   39CHL1   C17 2836   0.542   3.536   7.780  0.1512 -0.1913 -0.4495
   39CHL1   H17 2837   0.547   3.427   7.757 -1.0434 -0.1777 -0.8543
   39CHL1   C13 2838   0.636   3.608   7.686  0.3646  0.1156  0.7431
   39CHL1   C18 2839   0.647   3.760   7.722 -0.3302  0.3375  0.1391
   39CHL1  H18A 2840   0.672   3.823   7.634  0.0181  1.4749  1.0307
   39CHL1  H18B 2841   0.551   3.799   7.762 -1.1522 -0.6558 -0.7773
   39CHL1  H18C 2842   0.734   3.766   7.791 -0.1251  1.8349 -0.2128
   39CHL1   C12 2843   0.781   3.552   7.661  0.7115 -0.2296  0.2399
   39CHL1  H12A 2844   0.846   3.575   7.747 -1.0862  1.4054  1.2411
   39CHL1  H12B 2845   0.781   3.443   7.642 -0.0806 -0.6498  2.4310
   39CHL1   C11 2846   0.836   3.621   7.537 -0.1555 -0.6445 -0.2430
   39CHL1  H11A 2847   0.846   3.730   7.555  0.4955 -0.7100 -0.1718
   39CHL1  H11B 2848   0.942   3.590   7.533  0.5510  1.5745 -0.1317
   39CHL1    C9 2849   0.757   3.597   7.409 -0.0793 -0.2925 -0.0699
   39CHL1    H9 2850   0.739   3.488   7.407  1.6821 -0.6115 -0.1755
   39CHL1   C10 2851   0.818   3.634   7.270  0.1352 -0.4134 -0.4611
   39CHL1   C19 2852   0.871   3.788   7.273  0.4039  0.4526  0.4643
   39CHL1  H19A 2853   0.909   3.815   7.172 -0.1758 -2.8662 -0.7799
   39CHL1  H19B 2854   0.794   3.862   7.304  0.5733  0.5133  0.7415
   39CHL1  H19C 2855   0.958   3.802   7.340  1.5125  1.2291 -1.0978
   39CHL1    C1 2856   0.934   3.534   7.235 -0.1654 -0.1937 -0.5114
   39CHL1   H1A 2857   1.016   3.553   7.308 -0.5186  1.1302 -0.4412
   39CHL1   H1B 2858   0.891   3.432   7.246  0.2416 -0.4734 -1.4076
   39CHL1    C2 2859   0.998   3.545   7.096  0.3104  0.3824 -0.2437
   39CHL1   H2A 2860   1.067   3.460   7.078 -2.7617 -2.9536  2.2825
   39CHL1   H2B 2861   1.055   3.641   7.092 -0.5529  0.9337  0.3362
   39CHL1   C20 2862   0.569   3.539   7.933 -0.3247  0.3529  0.1117
   39CHL1   H20 2863   0.576   3.646   7.962 -2.3127  0.6901 -0.5159
   39CHL1   C21 2864   0.694   3.460   7.962  0.4340  0.3914 -0.2983
   39CHL1  H21A 2865   0.779   3.522   7.927  1.6996 -0.8156  0.5408
   39CHL1  H21B 2866   0.696   3.365   7.904  0.4798 -0.0724  0.4451
   39CHL1  H21C 2867   0.701   3.429   8.069 -0.4657  0.5157 -0.1875
   39CHL1   C22 2868   0.443   3.498   8.015  0.2684  0.2379  0.4492
   39CHL1  H22A 2869   0.342   3.521   7.974  0.8623  1.7260 -0.2504
   39CHL1  H22B 2870   0.445   3.387   8.018 -1.7280 -0.0308 -3.1937
   39CHL1   C23 2871   0.446   3.554   8.156  0.2853  0.1547 -0.9253
   39CHL1  H23A 2872   0.551   3.544   8.190  0.3638  1.0193 -0.8951
   39CHL1  H23B 2873   0.442   3.665   8.148  0.4506  0.3435  1.0395
   39CHL1   C24 2874   0.342   3.485   8.254  0.1236 -0.5489  0.3230
   39CHL1  H24A 2875   0.242   3.489   8.205 -0.2153 -0.8107  0.9708
   39CHL1  H24B 2876   0.366   3.377   8.246 -2.0480 -1.0844  0.2279
   39CHL1   C25 2877   0.338   3.535   8.395  0.6934  1.1797 -0.1545
   39CHL1   H25 2878   0.318   3.644   8.394  0.3077  1.1053 -1.5612
   39CHL1   C26 2879   0.213   3.471   8.473 -0.1281 -0.5769 -0.8745
   39CHL1  H26A 2880   0.229   3.475   8.583 -1.2514  2.3329 -0.7419
   39CHL1  H26B 2881   0.120   3.529   8.456  0.5673  0.5805 -0.8246
   39CHL1  H26C 2882   0.197   3.365   8.445 -0.2145 -0.8840  0.2580
   39CHL1   C27 2883   0.472   3.509   8.478  0.5131 -0.1331  0.3290
   39CHL1  H27A 2884   0.549   3.570   8.426 -2.1899  3.6289  0.2961
   39CHL1  H27B 2885   0.472   3.531   8.587 -0.1763 -1.4787  0.6300
   39CHL1  H27C 2886   0.495   3.401   8.467 -0.4364 -0.5305  1.9310
   40CHL1    C3 2887   3.571   2.119   6.834 -0.0416 -1.1829 -0.3020
   40CHL1    H3 2888   3.598   2.225   6.820  0.0995 -1.4033 -1.8881
   40CHL1    O3 2889   3.599   2.052   6.717  0.0644  0.0566  0.1715
   40CHL1   H3' 2890   3.526   2.058   6.655 -1.4616  0.0372  1.9008
   40CHL1    C4 2891   3.645   2.063   6.949 -0.1577  0.4374 -0.5414
   40CHL1   H4A 2892   3.637   1.953   6.952 -0.8917  0.3862 -2.5094
   40CHL1   H4B 2893   3.752   2.088   6.934 -0.2775  1.0304 -0.4383
   40CHL1    C5 2894   3.603   2.097   7.086 -0.0674  0.5654 -0.4586
   40CHL1    C6 2895   3.676   2.168   7.173 -0.0592  0.2500  0.4646
   40CHL1    H6 2896   3.780   2.199   7.157  0.6261 -1.8318  0.5845
   40CHL1    C7 2897   3.627   2.200   7.314  0.6742  0.2191 -0.3481
   40CHL1   H7A 2898   3.693   2.157   7.393  0.6604  1.4469  0.3533
   40CHL1   H7B 2899   3.611   2.308   7.335  0.6199  0.7195 -2.7694
   40CHL1    C8 2900   3.505   2.125   7.360 -0.2949 -0.2422  1.3030
   40CHL1    H8 2901   3.536   2.021   7.380  0.3994 -0.5459 -1.0183
   40CHL1   C14 2902   3.441   2.199   7.473  0.1706 -0.0476  0.2286
   40CHL1   H14 2903   3.393   2.291   7.432  1.0047  0.3978  0.2346
   40CHL1   C15 2904   3.532   2.248   7.592  0.0286 -0.0103  0.2130
   40CHL1  H15A 2905   3.604   2.169   7.619  0.0966  0.3019  0.9689
   40CHL1  H15B 2906   3.578   2.338   7.546 -0.1588  0.9832  1.8842
   40CHL1   C16 2907   3.437   2.276   7.708  0.4304 -0.2853 -0.3605
   40CHL1  H16A 2908   3.470   2.202   7.784  0.3866 -1.5878 -1.5741
   40CHL1  H16B 2909   3.441   2.381   7.743  0.3141  0.1216 -1.5178
   40CHL1   C17 2910   3.299   2.220   7.661  0.7369  0.4527 -0.2080
   40CHL1   H17 2911   3.253   2.309   7.611 -1.8951 -1.3143 -1.1794
   40CHL1   C13 2912   3.322   2.123   7.536 -0.0185  0.4807 -0.3019
   40CHL1   C18 2913   3.351   1.984   7.585 -0.7641 -0.0251  0.0200
   40CHL1  H18A 2914   3.264   1.935   7.634  0.0196 -1.4386  0.0787
   40CHL1  H18B 2915   3.397   1.920   7.506  1.4809  3.1996 -1.4958
   40CHL1  H18C 2916   3.426   1.982   7.667 -2.7297 -1.5077  1.8759
   40CHL1   C12 2917   3.211   2.125   7.421  0.3501 -0.2231 -0.8959
   40CHL1  H12A 2918   3.121   2.063   7.442 -0.7039  0.9954 -1.6113
   40CHL1  H12B 2919   3.184   2.229   7.392 -0.2763  0.1404  0.8930
   40CHL1   C11 2920   3.272   2.048   7.298  0.2457  0.4964 -0.0186
   40CHL1  H11A 2921   3.277   1.940   7.326 -2.4832  0.6447  1.3451
   40CHL1  H11B 2922   3.202   2.059   7.212  0.4925 -0.2877 -0.3274
   40CHL1    C9 2923   3.403   2.113   7.244 -0.5943  0.1613 -0.2292
   40CHL1    H9 2924   3.378   2.220   7.228 -1.4704 -0.0650 -0.4375
   40CHL1   C10 2925   3.461   2.053   7.112 -0.1557 -0.3808 -0.3420
   40CHL1   C19 2926   3.443   1.901   7.124  0.5374  0.0993 -0.9442
   40CHL1  H19A 2927   3.450   1.872   7.231  0.8743 -0.4974 -1.1215
   40CHL1  H19B 2928   3.343   1.872   7.086 -0.7978  0.6836  1.8453
   40CHL1  H19C 2929   3.511   1.844   7.057 -0.8336 -2.4693 -0.2867
   40CHL1    C1 2930   3.374   2.120   6.997  0.8903 -0.5288  0.4410
   40CHL1   H1A 2931   3.266   2.092   6.998  1.0664 -1.7746 -2.8860
   40CHL1   H1B 2932   3.381   2.229   7.018 -0.3849 -0.7438  2.2819
   40CHL1    C2 2933   3.419   2.092   6.852 -0.3576 -0.5142  0.1206
   40CHL1   H2A 2934   3.354   2.148   6.783  0.7543  1.3615  0.5074
   40CHL1   H2B 2935   3.402   1.983   6.837  0.8350 -0.6258 -0.5760
   40CHL1   C20 2936   3.192   2.184   7.760 -0.0355 -0.2895  0.1910
   40CHL1   H20 2937   3.114   2.125   7.709 -2.2382  1.7299  1.0069
   40CHL1   C21 2938   3.121   2.313   7.810 -0.0538 -0.3201 -0.2296
   40CHL1  H21A 2939   3.041   2.300   7.886  1.1773 -0.3898  1.1011
   40CHL1  H21B 2940   3.078   2.364   7.721  0.5102  1.2546  0.3572
   40CHL1  H21C 2941   3.197   2.377   7.860 -1.1013  0.3139  0.6017
   40CHL1   C22 2942   3.240   2.117   7.887 -0.1848  0.4383 -0.1977
   40CHL1  H22A 2943   3.316   2.039   7.866  1.8648  2.6643 -1.5083
   40CHL1  H22B 2944   3.281   2.184   7.965 -0.8404 -0.1094  0.6387
   40CHL1   C23 2945   3.121   2.040   7.950 -0.3614 -0.6992 -0.3620
   40CHL1  H23A 2946   3.036   2.112   7.961 -0.2689 -0.3211 -1.9236
   40CHL1  H23B 2947   3.092   1.959   7.881 -1.3418  0.5569 -1.4843
   40CHL1   C24 2948   3.160   1.975   8.083  0.0316  0.1151  1.0737
   40CHL1  H24A 2949   3.092   1.893   8.117 -0.8972 -0.1507 -1.2177
   40CHL1  H24B 2950   3.248   1.915   8.052 -0.1620 -0.2313  1.1803
   40CHL1   C25 2951   3.192   2.068   8.197 -0.2743 -0.7409  0.2272
   40CHL1   H25 2952   3.270   2.142   8.170 -0.7827  0.1305  1.1054
   40CHL1   C26 2953   3.070   2.159   8.229 -0.4033  0.4065  0.1891
   40CHL1  H26A 2954   3.045   2.234   8.150 -1.2494 -0.9218 -0.8669
   40CHL1  H26B 2955   2.972   2.115   8.257  0.2902 -1.1041  0.3249
   40CHL1  H26C 2956   3.105   2.213   8.319  0.7312  0.2430 -0.1380
   40CHL1   C27 2957   3.226   1.975   8.317  0.1985  0.5720  0.1722
   40CHL1  H27A 2958   3.128   1.932   8.350  0.3276  0.2770  0.1781
   40CHL1  H27B 2959   3.290   1.889   8.287 -0.0184  0.3789  0.2538
   40CHL1  H27C 2960   3.271   2.031   8.402 -1.1735 -0.0811  1.3809
   41CHL1    C3 2961   4.185   4.546   7.075  0.1801  0.0335  0.7073
   41CHL1    H3 2962   4.194   4.655   7.061 -1.5260  0.0707 -0.3770
   41CHL1    O3 2963   4.161   4.482   6.948 -0.1017 -0.1502 -0.3327
   41CHL1   H3' 2964   4.243   4.481   6.898 -0.3508  1.8932 -0.8765
   41CHL1    C4 2965   4.305   4.481   7.137  0.0466 -0.4587  0.4431
   41CHL1   H4A 2966   4.294   4.371   7.123  0.9800 -0.3372 -1.5716
   41CHL1   H4B 2967   4.402   4.500   7.085  0.7839 -0.2005  1.8525
   41CHL1    C5 2968   4.320   4.530   7.281  0.3657  0.1086 -0.3791
   41CHL1    C6 2969   4.434   4.592   7.324  0.3283  0.4844  0.5940
   41CHL1    H6 2970   4.511   4.589   7.246 -1.5471 -0.6912 -1.2970
   41CHL1    C7 2971   4.465   4.626   7.470  0.8664 -0.5223 -0.4265
   41CHL1   H7A 2972   4.568   4.598   7.500  0.9125  0.6541  0.5886
   41CHL1   H7B 2973   4.456   4.734   7.496 -0.3290 -0.3133 -1.5669
   41CHL1    C8 2974   4.363   4.558   7.570 -0.0421  0.3615 -0.0905
   41CHL1    H8 2975   4.390   4.452   7.586  3.0452  0.9648 -0.7997
   41CHL1   C14 2976   4.365   4.628   7.703 -0.4709  0.5662  0.1532
   41CHL1   H14 2977   4.330   4.732   7.684 -0.3505  0.4187 -0.9452
   41CHL1   C15 2978   4.498   4.651   7.772  0.2998 -0.3521 -0.1429
   41CHL1  H15A 2979   4.556   4.558   7.790  1.3010  0.8120  3.4548
   41CHL1  H15B 2980   4.559   4.721   7.712  1.9958 -1.5839  0.0735
   41CHL1   C16 2981   4.458   4.683   7.916  0.0409  0.3513 -0.6048
   41CHL1  H16A 2982   4.526   4.630   7.987 -0.7758  1.4012  1.0330
   41CHL1  H16B 2983   4.470   4.793   7.925 -0.8300  0.7017 -3.0432
   41CHL1   C17 2984   4.302   4.658   7.938 -0.0196  0.2141 -0.2238
   41CHL1   H17 2985   4.252   4.755   7.916  0.4643 -0.0513 -2.9632
   41CHL1   C13 2986   4.268   4.574   7.805 -1.0379 -0.4992 -0.3086
   41CHL1   C18 2987   4.310   4.423   7.834  0.2444 -0.1607  0.8981
   41CHL1  H18A 2988   4.412   4.424   7.879  0.8500  3.0486 -0.3140
   41CHL1  H18B 2989   4.239   4.384   7.909 -0.0332  0.8337  1.1637
   41CHL1  H18C 2990   4.316   4.350   7.750  0.6341 -1.5815  2.1076
   41CHL1   C12 2991   4.128   4.572   7.748  0.0849 -0.3059 -0.5415
   41CHL1  H12A 2992   4.062   4.515   7.817 -1.7610 -0.7385 -2.5788
   41CHL1  H12B 2993   4.082   4.672   7.735  0.5510 -0.0317 -0.1067
   41CHL1   C11 2994   4.120   4.504   7.611  1.0774  0.3246 -0.0185
   41CHL1  H11A 2995   4.124   4.396   7.638 -0.3048 -0.3608 -2.2919
   41CHL1  H11B 2996   4.018   4.518   7.570  0.8763 -1.0534 -0.0389
   41CHL1    C9 2997   4.217   4.560   7.512  0.2182 -0.4003 -0.0456
   41CHL1    H9 2998   4.192   4.667   7.494 -1.0183 -0.5691  0.5327
   41CHL1   C10 2999   4.200   4.490   7.373  0.5049 -0.4172  0.2074
   41CHL1   C19 3000   4.194   4.339   7.386 -0.3481  0.2316  0.7378
   41CHL1  H19A 3001   4.102   4.320   7.444 -0.8849  1.0683  0.1843
   41CHL1  H19B 3002   4.180   4.294   7.286  3.1158  0.0522  0.1873
   41CHL1  H19C 3003   4.283   4.289   7.432  0.0054  1.3243  1.2870
   41CHL1    C1 3004   4.076   4.546   7.300  0.0259  0.3688 -0.2818
   41CHL1   H1A 3005   3.977   4.513   7.338 -0.9602  2.8101 -0.5625
   41CHL1   H1B 3006   4.079   4.657   7.302  3.1683  0.4017 -1.5992
   41CHL1    C2 3007   4.063   4.502   7.157  0.6953 -0.2069  0.6224
   41CHL1   H2A 3008   3.975   4.537   7.099  1.9980  1.5813 -0.3659
   41CHL1   H2B 3009   4.046   4.392   7.158 -0.3938 -0.0861 -0.9266
   41CHL1   C20 3010   4.260   4.604   8.073 -0.1070 -0.4557 -0.2610
   41CHL1   H20 3011   4.317   4.511   8.095 -0.4389 -0.4445  0.6491
   41CHL1   C21 3012   4.109   4.588   8.070 -0.2939 -0.3300  0.5501
   41CHL1  H21A 3013   4.065   4.577   8.171 -1.8857 -0.0961 -0.0835
   41CHL1  H21B 3014   4.081   4.494   8.017  0.2819  0.4581 -1.2415
   41CHL1  H21C 3015   4.053   4.668   8.016  2.5610  0.6393 -1.1829
   41CHL1   C22 3016   4.303   4.710   8.181 -0.4300 -0.2564  0.0390
   41CHL1  H22A 3017   4.414   4.716   8.191 -0.4162 -0.7913  0.2635
   41CHL1  H22B 3018   4.254   4.807   8.161 -0.6217 -0.2598  0.4703
   41CHL1   C23 3019   4.256   4.678   8.327 -0.9986 -0.3771  0.3147
   41CHL1  H23A 3020   4.145   4.684   8.332 -0.9602 -0.5044  1.8145
   41CHL1  H23B 3021   4.284   4.571   8.344  0.1036 -0.2586 -0.5960
   41CHL1   C24 3022   4.308   4.761   8.440  0.3329 -0.2011 -1.2058
   41CHL1  H24A 3023   4.299   4.706   8.536  0.0199  1.6659 -0.1166
   41CHL1  H24B 3024   4.417   4.774   8.422  0.7689 -1.7587  0.0291
   41CHL1   C25 3025   4.239   4.903   8.452  0.1861 -0.9077  0.8045
   41CHL1   H25 3026   4.286   4.966   8.374  1.2388 -0.3535  1.8592
   41CHL1   C26 3027   4.086   4.907   8.457  0.0578  0.6788 -0.7985
   41CHL1  H26A 3028   4.044   5.000   8.501  0.6317  0.3574  0.4631
   41CHL1  H26B 3029   4.042   4.878   8.359  0.6537 -1.3686 -0.4933
   41CHL1  H26C 3030   4.058   4.829   8.530 -0.1503  1.1578 -0.3601
   41CHL1   C27 3031   4.293   4.974   8.578 -0.5175  0.0912  0.4438
   41CHL1  H27A 3032   4.264   5.081   8.572  1.5406  0.6832  0.5092
   41CHL1  H27B 3033   4.248   4.916   8.661 -0.5862 -0.4476  0.0398
   41CHL1  H27C 3034   4.404   4.970   8.582 -0.5211 -0.0537  0.4184
   42CHL1    C3 3035   5.305   5.875   7.091 -0.6100 -0.1274  0.0526
   42CHL1    H3 3036   5.347   5.973   7.123  0.1375  0.0015 -1.2661
   42CHL1    O3 3037   5.268   5.873   6.950 -0.3993  0.1605 -0.1663
   42CHL1   H3' 3038   5.228   5.959   6.935 -0.2337  0.3786  0.6044
   42CHL1    C4 3039   5.405   5.756   7.110 -0.0249  0.0831  0.0461
   42CHL1   H4A 3040   5.364   5.662   7.067  1.5402 -1.4092  1.6083
   42CHL1   H4B 3041   5.489   5.778   7.040 -0.2208  1.7497  0.3147
   42CHL1    C5 3042   5.455   5.738   7.252  0.2244  0.7252  0.0331
   42CHL1    C6 3043   5.585   5.734   7.287  0.7628 -0.0518 -0.5738
   42CHL1    H6 3044   5.660   5.755   7.210 -0.4764  1.3919 -1.4324
   42CHL1    C7 3045   5.628   5.695   7.426 -0.3934  0.4769 -0.2374
   42CHL1   H7A 3046   5.708   5.619   7.424 -0.7585  0.0788 -0.0628
   42CHL1   H7B 3047   5.674   5.779   7.483 -1.0870  0.6304  0.1158
   42CHL1    C8 3048   5.514   5.640   7.519  0.0372  0.0463 -0.3053
   42CHL1    H8 3049   5.498   5.533   7.497 -0.0537  0.7943 -4.7678
   42CHL1   C14 3050   5.548   5.645   7.666 -0.4174 -0.1197  0.0580
   42CHL1   H14 3051   5.544   5.754   7.686 -2.1927  0.3719 -2.4337
   42CHL1   C15 3052   5.685   5.598   7.706 -0.4745 -0.2731 -0.2239
   42CHL1  H15A 3053   5.698   5.492   7.674 -0.0612 -0.5061  0.6850
   42CHL1  H15B 3054   5.770   5.662   7.676  0.0648 -0.5121  0.7672
   42CHL1   C16 3055   5.679   5.589   7.854  0.3250 -0.4699 -0.0541
   42CHL1  H16A 3056   5.700   5.486   7.888 -1.7811  0.0160  3.0969
   42CHL1  H16B 3057   5.753   5.654   7.907  0.5755 -0.6427 -0.1911
   42CHL1   C17 3058   5.531   5.630   7.898 -0.7134  0.2241  0.0823
   42CHL1   H17 3059   5.530   5.741   7.908 -3.7620  0.2470  0.3896
   42CHL1   C13 3060   5.446   5.592   7.773 -0.4190  0.3484 -0.6991
   42CHL1   C18 3061   5.427   5.433   7.755  0.6897  0.1352  0.2430
   42CHL1  H18A 3062   5.402   5.408   7.650 -0.5834  1.5603  0.1805
   42CHL1  H18B 3063   5.510   5.370   7.794  0.1790 -0.6826  0.0084
   42CHL1  H18C 3064   5.334   5.409   7.810 -0.1818 -0.2842 -1.3387
   42CHL1   C12 3065   5.314   5.673   7.755  0.1172 -0.7346  0.4176
   42CHL1  H12A 3066   5.247   5.624   7.828  1.1140 -1.2311  1.0242
   42CHL1  H12B 3067   5.336   5.776   7.790  0.4529 -0.2207 -1.1833
   42CHL1   C11 3068   5.266   5.673   7.606  0.8251  0.2019 -0.6063
   42CHL1  H11A 3069   5.247   5.568   7.575  2.8464 -0.3779  0.0049
   42CHL1  H11B 3070   5.174   5.736   7.599  1.5060  1.1695 -1.0178
   42CHL1    C9 3071   5.377   5.711   7.497  0.6332 -0.6186  0.0050
   42CHL1    H9 3072   5.406   5.815   7.526 -0.8075 -0.6904  1.8619
   42CHL1   C10 3073   5.335   5.704   7.345 -0.0588 -1.0902 -0.8579
   42CHL1   C19 3074   5.278   5.564   7.313  0.0712  0.0543 -0.1691
   42CHL1  H19A 3075   5.176   5.562   7.355  0.9934  0.0631  2.2008
   42CHL1  H19B 3076   5.266   5.536   7.206  1.6426 -1.0421 -0.0898
   42CHL1  H19C 3077   5.339   5.489   7.368  0.5099  0.9795  0.6386
   42CHL1    C1 3078   5.222   5.815   7.329 -0.3951  0.0782 -0.3480
   42CHL1   H1A 3079   5.132   5.777   7.381  1.3696 -2.7367  0.8445
   42CHL1   H1B 3080   5.269   5.906   7.372  0.8620 -0.5851 -0.2739
   42CHL1    C2 3081   5.186   5.851   7.182  0.1416 -0.5722  0.8535
   42CHL1   H2A 3082   5.130   5.946   7.188 -1.9795 -1.5804 -1.2825
   42CHL1   H2B 3083   5.110   5.780   7.141  0.8065 -0.9727  0.2890
   42CHL1   C20 3084   5.492   5.581   8.052 -0.0323 -0.2503  0.1555
   42CHL1   H20 3085   5.487   5.470   8.047 -1.6084 -0.2128  0.4756
   42CHL1   C21 3086   5.349   5.632   8.088 -0.4367  0.3390  0.3036
   42CHL1  H21A 3087   5.277   5.557   8.050 -0.8067 -1.7802  4.5308
   42CHL1  H21B 3088   5.330   5.736   8.055  0.4947 -0.0140 -1.4334
   42CHL1  H21C 3089   5.337   5.645   8.198 -0.8285  0.6647  0.2263
   42CHL1   C22 3090   5.588   5.621   8.166  0.4151  0.1214  0.1662
   42CHL1  H22A 3091   5.528   5.603   8.258  0.4454  1.3477  0.4419
   42CHL1  H22B 3092   5.667   5.543   8.159  1.8698  1.5808 -0.2309
   42CHL1   C23 3093   5.653   5.763   8.172  0.4698 -0.1329 -0.5614
   42CHL1  H23A 3094   5.729   5.765   8.091 -0.5077 -0.4733 -1.5160
   42CHL1  H23B 3095   5.567   5.832   8.166  0.6678  0.2001  0.2530
   42CHL1   C24 3096   5.723   5.795   8.299  0.0176  0.0384 -0.1830
   42CHL1  H24A 3097   5.670   5.758   8.390  2.0985 -0.2837  0.9774
   42CHL1  H24B 3098   5.816   5.738   8.317 -0.3350 -0.1940  1.0139
   42CHL1   C25 3099   5.758   5.944   8.316 -0.2706 -0.7253 -0.0146
   42CHL1   H25 3100   5.824   5.948   8.405  0.9172 -0.1731 -0.8966
   42CHL1   C26 3101   5.851   6.000   8.202  0.1509  0.4140  0.2038
   42CHL1  H26A 3102   5.947   5.946   8.194  1.6332  2.2389  3.4398
   42CHL1  H26B 3103   5.794   6.015   8.108 -0.2718 -1.7806  0.0651
   42CHL1  H26C 3104   5.889   6.102   8.222  0.1765  0.3252  0.6360
   42CHL1   C27 3105   5.643   6.037   8.336 -0.6196  0.2849  0.7966
   42CHL1  H27A 3106   5.557   6.020   8.268 -1.9161  1.2110  2.1172
   42CHL1  H27B 3107   5.678   6.142   8.350 -0.2277  0.0191  1.9369
   42CHL1  H27C 3108   5.598   6.007   8.433 -0.0417  1.5320  1.4781
   43CHL1    C3 3109   5.534   3.646   6.990  0.1964  0.4021 -0.3865
   43CHL1    H3 3110   5.528   3.536   7.003  1.0345 -0.2175 -4.0658
   43CHL1    O3 3111   5.533   3.660   6.854  0.2059 -0.1672  0.0047
   43CHL1   H3' 3112   5.555   3.754   6.846  1.5848 -0.1937  2.4563
   43CHL1    C4 3113   5.415   3.721   7.037 -0.2451 -0.3256  0.9169
   43CHL1   H4A 3114   5.406   3.823   6.996 -1.3528 -0.3176  1.1474
   43CHL1   H4B 3115   5.327   3.672   6.989  0.7330 -0.4941 -0.7680
   43CHL1    C5 3116   5.408   3.717   7.189 -0.0379  0.5295 -0.3810
   43CHL1    C6 3117   5.299   3.673   7.252  0.0518  0.4678  0.0119
   43CHL1    H6 3118   5.213   3.637   7.193  0.1537 -0.6231  0.5055
   43CHL1    C7 3119   5.289   3.677   7.399 -0.0019 -0.0835 -0.0606
   43CHL1   H7A 3120   5.192   3.715   7.437 -0.5818 -0.7888 -0.8042
   43CHL1   H7B 3121   5.296   3.571   7.431  0.5324 -0.3851 -1.1339
   43CHL1    C8 3122   5.389   3.758   7.477 -0.4550  0.4344 -0.4460
   43CHL1    H8 3123   5.352   3.863   7.475 -2.6580 -0.3261 -1.7638
   43CHL1   C14 3124   5.406   3.710   7.622 -0.6188 -0.7208  0.1029
   43CHL1   H14 3125   5.454   3.609   7.621 -0.5881 -0.9778  4.7448
   43CHL1   C15 3126   5.293   3.680   7.715  0.1670  0.0336 -0.6525
   43CHL1  H15A 3127   5.225   3.768   7.713 -2.3790 -1.7887  0.4692
   43CHL1  H15B 3128   5.229   3.594   7.688 -0.0585 -0.0525  0.1339
   43CHL1   C16 3129   5.350   3.674   7.861 -0.1243 -0.6488 -0.3845
   43CHL1  H16A 3130   5.285   3.728   7.933 -1.5964 -1.7465 -0.8323
   43CHL1  H16B 3131   5.333   3.569   7.894  0.6118  0.1110  2.7817
   43CHL1   C17 3132   5.495   3.715   7.851 -0.2089 -0.5472  0.1397
   43CHL1   H17 3133   5.553   3.623   7.834  0.7085  0.4383 -2.6326
   43CHL1   C13 3134   5.506   3.792   7.713 -0.3530 -0.3448 -0.2587
   43CHL1   C18 3135   5.461   3.937   7.725 -0.1277 -0.2407 -0.2930
   43CHL1  H18A 3136   5.538   3.995   7.780  0.7511  0.2915 -2.0186
   43CHL1  H18B 3137   5.462   3.985   7.625 -0.3632 -4.1858 -2.3819
   43CHL1  H18C 3138   5.356   3.944   7.762 -0.3365 -1.9119 -0.4699
   43CHL1   C12 3139   5.638   3.774   7.637  0.3046  0.5799 -0.4181
   43CHL1  H12A 3140   5.731   3.811   7.685 -1.0743  1.3065  1.8177
   43CHL1  H12B 3141   5.664   3.666   7.632  0.6690  0.5942  0.7159
   43CHL1   C11 3142   5.634   3.810   7.485 -0.3995 -0.4777 -0.3218
   43CHL1  H11A 3143   5.621   3.920   7.473 -0.1563 -0.5389 -1.1578
   43CHL1  H11B 3144   5.733   3.789   7.439 -0.8317 -1.1363 -0.9605
   43CHL1    C9 3145   5.529   3.736   7.413  0.5219 -0.3495  0.2568
   43CHL1    H9 3146   5.552   3.627   7.411 -0.6026 -0.6437 -2.8502
   43CHL1   C10 3147   5.528   3.772   7.258 -0.6874  0.4438  0.7588
   43CHL1   C19 3148   5.524   3.926   7.245 -0.0375  0.1502 -0.1237
   43CHL1  H19A 3149   5.436   3.970   7.296  0.4204 -1.3782  2.1891
   43CHL1  H19B 3150   5.618   3.969   7.284 -0.2941 -0.1954  0.9189
   43CHL1  H19C 3151   5.515   3.954   7.138 -0.0119  0.6389 -0.0003
   43CHL1    C1 3152   5.659   3.708   7.190  0.7573 -0.1213  0.5026
   43CHL1   H1A 3153   5.744   3.767   7.229  0.0274  0.1022  1.8014
   43CHL1   H1B 3154   5.668   3.602   7.222 -0.3727 -0.2151  0.5603
   43CHL1    C2 3155   5.660   3.721   7.039  0.3821 -0.0158 -0.4854
   43CHL1   H2A 3156   5.752   3.670   7.003  1.0325  1.1762 -0.5694
   43CHL1   H2B 3157   5.649   3.826   7.003 -0.0678 -0.2840 -1.1337
   43CHL1   C20 3158   5.553   3.774   7.976 -0.5982 -0.1294 -1.0132
   43CHL1   H20 3159   5.507   3.875   7.984  2.3565  1.1880  1.2126
   43CHL1   C21 3160   5.707   3.794   7.972  0.4197 -0.3912 -0.0431
   43CHL1  H21A 3161   5.747   3.698   8.012  0.6152 -0.6493 -0.8271
   43CHL1  H21B 3162   5.741   3.865   8.051  1.8908 -1.0839 -0.0113
   43CHL1  H21C 3163   5.755   3.815   7.874 -1.6878 -0.7415 -1.1940
   43CHL1   C22 3164   5.510   3.711   8.110  0.2531  0.3168 -0.1188
   43CHL1  H22A 3165   5.403   3.682   8.104 -0.2507  2.3052 -1.6226
   43CHL1  H22B 3166   5.564   3.614   8.116 -0.2729 -0.4204 -4.2326
   43CHL1   C23 3167   5.538   3.790   8.239 -0.1651 -0.2272 -0.1894
   43CHL1  H23A 3168   5.648   3.803   8.248 -0.0249  0.3898 -2.3803
   43CHL1  H23B 3169   5.495   3.892   8.228  0.9589  0.0873 -2.0479
   43CHL1   C24 3170   5.493   3.735   8.378  0.1465 -0.1324  0.0594
   43CHL1  H24A 3171   5.400   3.679   8.357 -0.1078  0.6409 -0.9602
   43CHL1  H24B 3172   5.574   3.668   8.415  0.9587 -1.1543 -3.2700
   43CHL1   C25 3173   5.455   3.826   8.497 -1.1328  0.9135  0.7428
   43CHL1   H25 3174   5.353   3.854   8.462 -1.6933 -2.8104 -1.1109
   43CHL1   C26 3175   5.436   3.748   8.632  0.6977 -0.2739  0.2144
   43CHL1  H26A 3176   5.532   3.693   8.647  0.5547 -0.2966  1.0848
   43CHL1  H26B 3177   5.417   3.815   8.718 -0.5205  0.9808 -0.9819
   43CHL1  H26C 3178   5.351   3.676   8.636  0.5051  0.0272  2.1538
   43CHL1   C27 3179   5.531   3.964   8.509  0.3911 -0.6106  0.0273
   43CHL1  H27A 3180   5.550   4.011   8.410 -0.3843  0.7400  0.4861
   43CHL1  H27B 3181   5.475   4.038   8.570  0.8984 -0.6665  0.5752
   43CHL1  H27C 3182   5.631   3.948   8.556 -0.1810 -1.9382  0.8504
   44CHL1    C3 3183   5.157   2.771   6.771  1.1963  0.2902 -0.2701
   44CHL1    H3 3184   5.091   2.689   6.806  0.9162  0.6037 -0.0572
   44CHL1    O3 3185   5.188   2.745   6.634  0.4676  0.6271  0.1943
   44CHL1   H3' 3186   5.239   2.821   6.604 -0.5270  0.7891 -1.1733
   44CHL1    C4 3187   5.090   2.911   6.780  0.2441 -0.3629  0.4875
   44CHL1   H4A 3188   5.163   2.976   6.727 -0.7119  0.1117 -0.2913
   44CHL1   H4B 3189   5.000   2.920   6.715 -0.2348  0.2993  1.2365
   44CHL1    C5 3190   5.074   2.961   6.924  0.1866  0.1646 -0.0650
   44CHL1    C6 3191   4.957   3.012   6.964 -0.0514  0.7788 -0.2652
   44CHL1    H6 3192   4.870   3.029   6.898  0.2905  3.1548 -0.1718
   44CHL1    C7 3193   4.932   3.057   7.107  0.1714 -0.2524 -0.2379
   44CHL1   H7A 3194   4.875   3.152   7.107  1.6722  0.6963 -0.2805
   44CHL1   H7B 3195   4.869   2.981   7.157 -2.8674  1.5123 -1.1196
   44CHL1    C8 3196   5.058   3.077   7.189 -1.4180  0.0592 -0.7403
   44CHL1    H8 3197   5.111   3.170   7.160 -0.9450  0.1054  0.2191
   44CHL1   C14 3198   5.017   3.083   7.341  0.2416 -0.2936  0.0933
   44CHL1   H14 3199   4.978   2.983   7.371  0.7963 -0.2983  0.8308
   44CHL1   C15 3200   4.924   3.192   7.388  0.1294 -0.4521  0.4289
   44CHL1  H15A 3201   4.953   3.289   7.342  0.2625 -1.8150 -2.5568
   44CHL1  H15B 3202   4.820   3.167   7.356  1.1956 -2.0190 -2.1283
   44CHL1   C16 3203   4.945   3.216   7.541  0.3369  0.0965  0.2201
   44CHL1  H16A 3204   4.981   3.319   7.559  0.9227 -0.2619  1.1765
   44CHL1  H16B 3205   4.858   3.199   7.609 -0.2170  1.9448  0.0188
   44CHL1   C17 3206   5.071   3.126   7.577 -0.2331  0.0424  0.1343
   44CHL1   H17 3207   5.029   3.029   7.613 -0.2255  0.5397  1.5218
   44CHL1   C13 3208   5.145   3.094   7.436 -0.3078 -0.2720  0.3906
   44CHL1   C18 3209   5.221   3.226   7.398 -0.2037 -0.1226  0.2119
   44CHL1  H18A 3210   5.150   3.310   7.380 -0.4506 -0.8959 -3.0875
   44CHL1  H18B 3211   5.295   3.256   7.476 -0.2113  1.9402 -0.5175
   44CHL1  H18C 3212   5.273   3.219   7.300  1.8376  0.8588  1.1582
   44CHL1   C12 3213   5.234   2.970   7.416 -0.4706  0.1961 -0.1930
   44CHL1  H12A 3214   5.326   2.988   7.475 -1.6739  1.4697  1.3858
   44CHL1  H12B 3215   5.186   2.875   7.448  0.2903 -0.0529  0.2160
   44CHL1   C11 3216   5.269   2.963   7.267  0.4304  0.7333 -0.2309
   44CHL1  H11A 3217   5.345   3.042   7.249  0.7858  0.5026  0.2098
   44CHL1  H11B 3218   5.333   2.873   7.251 -0.7753  0.1684 -2.1879
   44CHL1    C9 3219   5.157   2.963   7.167  0.5285 -0.0546  0.0028
   44CHL1    H9 3220   5.096   2.875   7.198  0.8024  0.1978  1.3294
   44CHL1   C10 3221   5.193   2.941   7.021  0.8194 -0.2279 -0.2913
   44CHL1   C19 3222   5.296   3.047   6.986 -0.8789 -0.4279  0.6377
   44CHL1  H19A 3223   5.266   3.144   7.032 -2.1274 -0.9013  0.8746
   44CHL1  H19B 3224   5.392   3.015   7.031 -1.0271 -0.4972  0.9127
   44CHL1  H19C 3225   5.312   3.059   6.877 -3.0124  0.2718  0.3465
   44CHL1    C1 3226   5.255   2.801   6.999 -0.1092  0.0594  0.3195
   44CHL1   H1A 3227   5.353   2.794   7.051 -1.0853  0.1591  2.2822
   44CHL1   H1B 3228   5.177   2.725   7.023 -1.3226  1.0116 -0.5263
   44CHL1    C2 3229   5.282   2.775   6.853 -0.4956  0.2179 -0.0786
   44CHL1   H2A 3230   5.332   2.676   6.851 -1.2670 -0.5944  5.0799
   44CHL1   H2B 3231   5.354   2.851   6.816  0.1857  0.4879  1.7001
   44CHL1   C20 3232   5.156   3.182   7.699  0.2238  0.6653 -0.0781
   44CHL1   H20 3233   5.189   3.287   7.680  0.9918  0.4800  0.1746
   44CHL1   C21 3234   5.279   3.094   7.710 -0.5153 -0.0899 -0.3647
   44CHL1  H21A 3235   5.252   2.987   7.717  0.6675 -0.3808 -0.1006
   44CHL1  H21B 3236   5.335   3.119   7.803 -1.3284  2.3285 -0.4424
   44CHL1  H21C 3237   5.354   3.109   7.630 -0.3711  0.8162 -0.0767
   44CHL1   C22 3238   5.074   3.178   7.835 -0.3913 -0.3686 -0.5276
   44CHL1  H22A 3239   4.976   3.227   7.821 -0.7471 -1.8470 -4.1616
   44CHL1  H22B 3240   5.051   3.071   7.858 -1.9091 -0.0072 -0.3007
   44CHL1   C23 3241   5.135   3.249   7.956  0.0976  0.0167  0.4518
   44CHL1  H23A 3242   5.233   3.197   7.970 -0.4166 -1.0697  0.1751
   44CHL1  H23B 3243   5.153   3.354   7.924 -0.2771 -0.9106 -3.2606
   44CHL1   C24 3244   5.050   3.232   8.079 -0.7449  0.3551 -0.1247
   44CHL1  H24A 3245   4.952   3.282   8.062 -2.4701 -3.1352 -1.6160
   44CHL1  H24B 3246   5.024   3.124   8.087 -3.2848  0.9520  0.5499
   44CHL1   C25 3247   5.112   3.279   8.215 -0.1300  0.6330 -0.1740
   44CHL1   H25 3248   5.203   3.219   8.235 -0.5756 -0.3508 -1.0087
   44CHL1   C26 3249   5.146   3.427   8.217 -0.1024 -0.1328 -0.1180
   44CHL1  H26A 3250   5.200   3.454   8.310  0.3312  0.6351 -0.5768
   44CHL1  H26B 3251   5.213   3.449   8.131  0.4983 -1.7562 -0.0928
   44CHL1  H26C 3252   5.053   3.488   8.211  0.0348  0.0982  0.0675
   44CHL1   C27 3253   5.017   3.250   8.337 -0.6944 -0.1786  0.3534
   44CHL1  H27A 3254   4.985   3.144   8.332  1.0365 -0.8061  1.5739
   44CHL1  H27B 3255   5.070   3.252   8.435 -0.0413 -1.2999  0.0285
   44CHL1  H27C 3256   4.934   3.324   8.334  0.8126  1.5693 -1.4902
   45CHL1    C3 3257   5.636   0.768   6.776 -0.2489 -0.6133  0.1653
   45CHL1    H3 3258   5.613   0.876   6.764 -3.8222 -1.2764 -0.0893
   45CHL1    O3 3259   5.629   0.706   6.653  0.3843  0.1945  0.0062
   45CHL1   H3' 3260   5.638   0.611   6.663 -0.6884 -0.0399 -0.9472
   45CHL1    C4 3261   5.788   0.747   6.815  0.4811  0.4147 -0.2275
   45CHL1   H4A 3262   5.811   0.639   6.815  1.0217  0.4529  2.6453
   45CHL1   H4B 3263   5.863   0.787   6.742  0.0738 -0.9719 -1.4401
   45CHL1    C5 3264   5.821   0.815   6.945  0.6851 -0.6637  0.2989
   45CHL1    C6 3265   5.917   0.911   6.969  0.0580 -0.4458 -0.3622
   45CHL1    H6 3266   5.994   0.934   6.893  1.1912 -0.1453  0.8275
   45CHL1    C7 3267   5.931   0.971   7.104 -0.2046  0.0162 -0.2220
   45CHL1   H7A 3268   6.038   0.988   7.130 -0.3814  0.5750  0.1558
   45CHL1   H7B 3269   5.880   1.070   7.098 -0.2593 -0.0361 -0.6803
   45CHL1    C8 3270   5.870   0.891   7.225  0.6387 -0.2227 -0.8359
   45CHL1    H8 3271   5.933   0.801   7.241 -1.7192 -1.8749 -0.1032
   45CHL1   C14 3272   5.872   0.977   7.347 -0.1195  0.6257 -0.3616
   45CHL1   H14 3273   5.806   1.063   7.327  0.4446  1.8313  2.4694
   45CHL1   C15 3274   6.013   1.036   7.400 -0.1479 -0.4418  0.6810
   45CHL1  H15A 3275   6.088   0.956   7.381 -0.4949 -1.3192  2.8108
   45CHL1  H15B 3276   6.019   1.129   7.339  1.3165 -2.3130 -2.3099
   45CHL1   C16 3277   5.998   1.068   7.544  0.3049  0.2983  0.1445
   45CHL1  H16A 3278   6.082   1.028   7.605  0.0912 -0.8453 -0.2892
   45CHL1  H16B 3279   6.006   1.177   7.562  0.6467 -0.0014  2.0836
   45CHL1   C17 3280   5.857   1.004   7.576 -0.3053 -0.4246  0.9567
   45CHL1   H17 3281   5.782   1.086   7.570  0.3853  0.1121 -1.2147
   45CHL1   C13 3282   5.817   0.908   7.466 -0.0918  0.2148  0.2749
   45CHL1   C18 3283   5.910   0.785   7.484 -0.6571  0.4905 -0.1010
   45CHL1  H18A 3284   5.914   0.713   7.400  1.1459 -2.1423  2.0621
   45CHL1  H18B 3285   6.014   0.805   7.518 -1.5623 -0.4971  3.7872
   45CHL1  H18C 3286   5.870   0.710   7.556  0.4427 -0.2792 -0.2879
   45CHL1   C12 3287   5.675   0.864   7.444  0.0441  0.4339 -0.4151
   45CHL1  H12A 3288   5.638   0.805   7.531 -1.6137 -1.2971 -2.1692
   45CHL1  H12B 3289   5.610   0.953   7.444 -1.2640 -0.4863  0.3539
   45CHL1   C11 3290   5.656   0.790   7.311  0.4485 -0.0360 -0.6119
   45CHL1  H11A 3291   5.689   0.686   7.331 -1.3554 -1.0148 -2.3925
   45CHL1  H11B 3292   5.546   0.776   7.301  0.0957  1.8727  0.0759
   45CHL1    C9 3293   5.722   0.851   7.191 -0.6303 -0.6482  1.0147
   45CHL1    H9 3294   5.663   0.944   7.177 -0.6409 -0.4836  2.0356
   45CHL1   C10 3295   5.725   0.765   7.053  0.1997 -0.0979  0.5993
   45CHL1   C19 3296   5.784   0.629   7.081 -0.1274 -0.3870 -0.4025
   45CHL1  H19A 3297   5.729   0.572   7.159 -0.3421  0.3539 -0.0016
   45CHL1  H19B 3298   5.782   0.559   6.995  1.3605  0.4906 -1.2000
   45CHL1  H19C 3299   5.890   0.632   7.115 -0.5311 -1.5187  1.0631
   45CHL1    C1 3300   5.578   0.763   7.005 -0.0309 -0.1673 -0.4694
   45CHL1   H1A 3301   5.526   0.697   7.078  0.7451 -1.8621 -1.3928
   45CHL1   H1B 3302   5.542   0.868   7.015  0.5607  0.0226 -0.2138
   45CHL1    C2 3303   5.552   0.701   6.874  0.7710  0.4306 -0.6161
   45CHL1   H2A 3304   5.443   0.706   6.853  0.2322  0.5619  1.9843
   45CHL1   H2B 3305   5.583   0.594   6.880  0.6107  0.4727  2.2073
   45CHL1   C20 3306   5.836   0.959   7.723  0.0022 -0.0296 -0.0167
   45CHL1   H20 3307   5.781   0.863   7.715 -2.0516  1.1288 -0.5148
   45CHL1   C21 3308   5.761   1.055   7.806  0.5966 -0.4778 -0.1952
   45CHL1  H21A 3309   5.805   1.157   7.808  2.5114 -1.2601  0.0561
   45CHL1  H21B 3310   5.754   1.030   7.914 -1.6033  3.4752  0.7751
   45CHL1  H21C 3311   5.657   1.066   7.769  1.0897  2.4045 -0.9690
   45CHL1   C22 3312   5.967   0.923   7.794  0.5697 -0.3605  0.3956
   45CHL1  H22A 3313   6.019   0.856   7.723 -0.7312 -0.6086 -0.3520
   45CHL1  H22B 3314   6.023   1.019   7.803 -0.7257  0.4921 -0.4450
   45CHL1   C23 3315   5.953   0.853   7.926 -0.1768 -0.3609  0.7088
   45CHL1  H23A 3316   5.895   0.911   8.001  1.4660  0.5876  1.2937
   45CHL1  H23B 3317   5.887   0.764   7.915 -0.3512 -0.2713  0.9998
   45CHL1   C24 3318   6.079   0.795   7.994 -0.2708  0.4443  0.0978
   45CHL1  H24A 3319   6.135   0.729   7.924  0.3846  3.2018 -2.1856
   45CHL1  H24B 3320   6.152   0.876   8.011 -0.7956  0.6946  1.2822
   45CHL1   C25 3321   6.059   0.723   8.127  0.4181  0.4460 -0.2540
   45CHL1   H25 3322   6.030   0.619   8.100 -1.1354  0.7361  0.2173
   45CHL1   C26 3323   6.191   0.712   8.206  0.9876 -0.2852 -0.1474
   45CHL1  H26A 3324   6.178   0.630   8.281  0.5241 -1.8882 -1.9063
   45CHL1  H26B 3325   6.269   0.692   8.130 -1.4928  2.5060 -3.7477
   45CHL1  H26C 3326   6.214   0.799   8.270  0.0028  0.1512 -0.3807
   45CHL1   C27 3327   5.947   0.780   8.213 -0.0254 -0.4502 -0.5255
   45CHL1  H27A 3328   5.941   0.890   8.229 -2.1365 -0.5432 -0.4213
   45CHL1  H27B 3329   5.847   0.752   8.174 -0.8683  0.1923  1.0990
   45CHL1  H27C 3330   5.962   0.733   8.312 -0.9868 -0.8222 -0.5465
   46CHL1    C3 3331   6.229   1.778   6.980  0.0962 -0.4744 -0.1587
   46CHL1    H3 3332   6.208   1.671   7.002 -1.2260 -0.3693 -0.8338
   46CHL1    O3 3333   6.215   1.790   6.836  0.2471 -0.1941  0.2962
   46CHL1   H3' 3334   6.210   1.886   6.828  1.0090 -0.2542 -1.3310
   46CHL1    C4 3335   6.128   1.864   7.049  0.5133 -0.4180 -0.7770
   46CHL1   H4A 3336   6.123   1.969   7.010 -1.1277  0.1853  0.9352
   46CHL1   H4B 3337   6.026   1.834   7.017 -0.2263  0.5603  0.5361
   46CHL1    C5 3338   6.139   1.865   7.204  0.0189 -0.2081  0.1460
   46CHL1    C6 3339   6.033   1.821   7.282 -0.6988 -0.3061 -0.0913
   46CHL1    H6 3340   5.937   1.800   7.233 -2.3440  0.6715  2.5614
   46CHL1    C7 3341   6.038   1.805   7.427  0.4182 -0.0716 -0.0418
   46CHL1   H7A 3342   5.940   1.834   7.469 -0.2958 -1.8476 -0.4097
   46CHL1   H7B 3343   6.046   1.694   7.432 -0.3903 -0.2786 -2.2002
   46CHL1    C8 3344   6.164   1.869   7.484 -0.0858  0.1146  0.2685
   46CHL1    H8 3345   6.148   1.979   7.482  1.5734  0.3828  0.0576
   46CHL1   C14 3346   6.186   1.822   7.624  0.2528  0.4033 -0.1953
   46CHL1   H14 3347   6.202   1.712   7.624 -0.2482  0.2465 -3.1934
   46CHL1   C15 3348   6.063   1.838   7.722 -0.2453 -0.1678  0.1447
   46CHL1  H15A 3349   6.019   1.939   7.709  0.5310  0.0975 -0.4653
   46CHL1  H15B 3350   5.988   1.760   7.702  0.3361  0.0685 -3.5721
   46CHL1   C16 3351   6.127   1.830   7.862 -0.7981  0.3420  0.2542
   46CHL1  H16A 3352   6.095   1.922   7.917 -0.6761 -0.0445  0.9846
   46CHL1  H16B 3353   6.101   1.735   7.913 -0.0405  1.0477  2.0408
   46CHL1   C17 3354   6.282   1.837   7.842  0.3915 -0.5040  0.8331
   46CHL1   H17 3355   6.321   1.733   7.838  0.7471 -0.3377 -2.2345
   46CHL1   C13 3356   6.305   1.885   7.694  0.2254 -0.7663 -0.0093
   46CHL1   C18 3357   6.289   2.038   7.690  0.1341  1.1659 -0.3555
   46CHL1  H18A 3358   6.362   2.092   7.753  1.2019  0.2235 -0.7487
   46CHL1  H18B 3359   6.296   2.093   7.593  0.5538  1.4876 -0.1422
   46CHL1  H18C 3360   6.189   2.051   7.736  0.5010  1.2863  0.4175
   46CHL1   C12 3361   6.435   1.855   7.629  0.0067  0.3534  0.2534
   46CHL1  H12A 3362   6.521   1.911   7.671 -0.2242  0.4303  0.6251
   46CHL1  H12B 3363   6.455   1.748   7.651 -2.1310 -0.0678  0.3780
   46CHL1   C11 3364   6.427   1.888   7.480  0.5683  0.1101  0.8112
   46CHL1  H11A 3365   6.451   1.995   7.464 -0.6314  0.1207 -1.2237
   46CHL1  H11B 3366   6.508   1.824   7.438  0.1130 -0.1686  0.3515
   46CHL1    C9 3367   6.294   1.839   7.404  0.3318 -0.1996  0.0712
   46CHL1    H9 3368   6.297   1.728   7.409  0.1974 -0.2410 -0.7034
   46CHL1   C10 3369   6.285   1.892   7.259 -0.1927  0.4313 -1.0050
   46CHL1   C19 3370   6.325   2.047   7.243  0.2202  0.0020 -0.5521
   46CHL1  H19A 3371   6.283   2.086   7.148  3.9054  0.6113 -2.1024
   46CHL1  H19B 3372   6.277   2.103   7.326 -2.8499  1.3745 -3.0565
   46CHL1  H19C 3373   6.433   2.071   7.228  0.4195 -0.3582  0.2366
   46CHL1    C1 3374   6.384   1.812   7.173 -0.4101 -0.2701  0.5371
   46CHL1   H1A 3375   6.493   1.825   7.193 -0.4291  1.1011 -0.1262
   46CHL1   H1B 3376   6.371   1.707   7.206  1.5387 -0.1094  1.9953
   46CHL1    C2 3377   6.372   1.811   7.024 -0.1798  0.4051  0.2438
   46CHL1   H2A 3378   6.450   1.750   6.973  1.0159  1.1250  1.1689
   46CHL1   H2B 3379   6.396   1.912   6.987  1.9972 -0.5410 -1.1163
   46CHL1   C20 3380   6.353   1.903   7.964  0.1385  0.8074  0.4862
   46CHL1   H20 3381   6.307   2.004   7.972 -1.0951  0.1541  2.0007
   46CHL1   C21 3382   6.514   1.910   7.957  0.6912  0.4754  0.3085
   46CHL1  H21A 3383   6.543   1.805   7.931 -2.4437 -0.2457 -0.7627
   46CHL1  H21B 3384   6.558   1.937   8.055 -1.1033  2.0454  0.7439
   46CHL1  H21C 3385   6.537   1.984   7.877 -2.6760  1.2809 -0.0829
   46CHL1   C22 3386   6.316   1.825   8.097 -0.2939  0.5357 -0.1998
   46CHL1  H22A 3387   6.205   1.825   8.093 -0.6617  0.6785  4.6996
   46CHL1  H22B 3388   6.347   1.718   8.095  0.5987  0.7527  0.9597
   46CHL1   C23 3389   6.332   1.887   8.241  0.4496 -0.3904 -0.5911
   46CHL1  H23A 3390   6.441   1.899   8.258  0.6030 -0.7287 -1.3088
   46CHL1  H23B 3391   6.280   1.985   8.237 -1.4327 -1.3831 -2.3664
   46CHL1   C24 3392   6.261   1.796   8.354 -0.2333  0.2079  0.2482
   46CHL1  H24A 3393   6.239   1.856   8.444 -2.0119 -3.7269  2.6966
   46CHL1  H24B 3394   6.161   1.762   8.318 -0.2008  0.0145  0.3336
   46CHL1   C25 3395   6.342   1.668   8.395  0.3066  0.4158 -0.1555
   46CHL1   H25 3396   6.376   1.613   8.304 -1.1090 -0.9598  0.1021
   46CHL1   C26 3397   6.464   1.706   8.476 -0.8299  0.1621 -0.2443
   46CHL1  H26A 3398   6.531   1.618   8.488  1.2824  1.5209 -1.4669
   46CHL1  H26B 3399   6.522   1.784   8.423  1.0571  1.2770  3.1330
   46CHL1  H26C 3400   6.425   1.746   8.572 -0.6216 -0.0527 -0.0696
   46CHL1   C27 3401   6.241   1.569   8.470 -0.0096 -0.9013 -0.0750
   46CHL1  H27A 3402   6.144   1.566   8.415  0.3085 -2.6158 -0.6116
   46CHL1  H27B 3403   6.279   1.464   8.473  1.0957 -0.4998  1.8843
   46CHL1  H27C 3404   6.222   1.601   8.575 -1.5759  0.7026 -0.7971
   47CHL1    C3 3405   5.644   1.854   6.738 -0.0895 -0.0189 -0.1801
   47CHL1    H3 3406   5.659   1.744   6.740  1.4657  0.1270  3.1403
   47CHL1    O3 3407   5.662   1.889   6.606  0.5452  0.2344 -0.5058
   47CHL1   H3' 3408   5.678   1.983   6.618 -1.6182  0.4896  1.0145
   47CHL1    C4 3409   5.505   1.886   6.783  0.4944  0.5063  0.7649
   47CHL1   H4A 3410   5.487   1.993   6.756  0.9139  0.4471  0.2342
   47CHL1   H4B 3411   5.425   1.842   6.720  1.4645  2.3221 -1.9217
   47CHL1    C5 3412   5.479   1.871   6.932 -0.1266  0.2687 -0.6470
   47CHL1    C6 3413   5.379   1.789   6.979  0.2961  0.1107  0.8077
   47CHL1    H6 3414   5.320   1.741   6.899 -0.1878  5.1049 -2.2962
   47CHL1    C7 3415   5.350   1.756   7.122  0.6734  1.2610 -0.3524
   47CHL1   H7A 3416   5.242   1.755   7.148  1.2065 -1.4135  2.1696
   47CHL1   H7B 3417   5.381   1.652   7.146 -1.8720 -0.0044 -2.1006
   47CHL1    C8 3418   5.419   1.856   7.218 -0.1529 -0.1893 -0.7402
   47CHL1    H8 3419   5.357   1.949   7.221 -0.2545 -0.2126 -1.8492
   47CHL1   C14 3420   5.424   1.792   7.359  0.0807  0.2426  0.3046
   47CHL1   H14 3421   5.500   1.712   7.364  0.0519  0.2224  0.4137
   47CHL1   C15 3422   5.293   1.735   7.421  0.2265  0.2231  0.7628
   47CHL1  H15A 3423   5.212   1.809   7.401  0.0601 -0.7518 -2.8286
   47CHL1  H15B 3424   5.260   1.640   7.374  0.2199  0.4799  0.2404
   47CHL1   C16 3425   5.313   1.724   7.576 -0.1883  0.4161 -0.1018
   47CHL1  H16A 3426   5.224   1.759   7.632 -0.8892  0.3993 -1.1639
   47CHL1  H16B 3427   5.326   1.615   7.590  1.4123  0.6779  0.6268
   47CHL1   C17 3428   5.452   1.791   7.591  0.5544 -0.1509  0.6374
   47CHL1   H17 3429   5.522   1.709   7.565 -0.0552 -0.0046 -1.6866
   47CHL1   C13 3430   5.481   1.887   7.468  0.0254 -0.4738 -0.0212
   47CHL1   C18 3431   5.397   2.018   7.498 -0.6126  0.1887  0.0603
   47CHL1  H18A 3432   5.385   2.076   7.404 -0.9287 -2.2094 -1.4750
   47CHL1  H18B 3433   5.296   1.983   7.530 -1.1544 -0.4239 -2.0899
   47CHL1  H18C 3434   5.447   2.089   7.567 -1.9391  2.2941 -1.0201
   47CHL1   C12 3435   5.627   1.912   7.433  0.7929 -0.9400 -0.2705
   47CHL1  H12A 3436   5.670   1.991   7.499 -1.3464  1.4694 -1.5591
   47CHL1  H12B 3437   5.696   1.826   7.447 -0.6713 -1.6790  3.6263
   47CHL1   C11 3438   5.633   1.975   7.287 -0.2853 -0.4519 -0.2018
   47CHL1  H11A 3439   5.606   2.082   7.299  0.2639 -0.3229 -0.0829
   47CHL1  H11B 3440   5.738   1.984   7.252  1.4643 -1.2575  4.1585
   47CHL1    C9 3441   5.560   1.892   7.178 -0.6466 -0.0747  0.3652
   47CHL1    H9 3442   5.611   1.793   7.178  0.7983  0.6324 -0.2164
   47CHL1   C10 3443   5.577   1.938   7.031 -0.6088 -0.1046 -0.3880
   47CHL1   C19 3444   5.555   2.090   7.028  0.2463 -0.7702  0.4464
   47CHL1  H19A 3445   5.462   2.112   7.085  1.4080 -0.9036  2.4862
   47CHL1  H19B 3446   5.627   2.148   7.091 -3.2647  2.4422  1.9314
   47CHL1  H19C 3447   5.560   2.137   6.928 -1.2635  1.7311  1.4508
   47CHL1    C1 3448   5.724   1.909   6.977  0.4053 -0.2117 -0.3872
   47CHL1   H1A 3449   5.797   1.973   7.032  0.2222 -1.9036  1.9558
   47CHL1   H1B 3450   5.751   1.802   6.991  0.8796  0.1332  1.6814
   47CHL1    C2 3451   5.749   1.935   6.823  0.0122 -0.3801 -0.9875
   47CHL1   H2A 3452   5.853   1.902   6.801 -0.2428 -0.3751 -2.2678
   47CHL1   H2B 3453   5.722   2.041   6.809 -1.0398 -0.5858 -0.6062
   47CHL1   C20 3454   5.484   1.839   7.735 -0.4557  0.1669  0.3984
   47CHL1   H20 3455   5.479   1.950   7.742  3.2089  0.3596  3.5007
   47CHL1   C21 3456   5.632   1.799   7.760  0.1286  0.0217 -0.4678
   47CHL1  H21A 3457   5.665   1.841   7.858  0.4797  0.6088 -0.8342
   47CHL1  H21B 3458   5.702   1.838   7.683  1.9554 -1.4142  0.3511
   47CHL1  H21C 3459   5.644   1.688   7.758  0.9774  0.1043 -0.4643
   47CHL1   C22 3460   5.390   1.787   7.856 -0.1889  0.9406 -0.6911
   47CHL1  H22A 3461   5.283   1.815   7.856 -0.0718  1.4346  0.3730
   47CHL1  H22B 3462   5.381   1.676   7.855 -0.7966  0.9905 -1.0995
   47CHL1   C23 3463   5.445   1.820   7.998  0.9451  0.3934 -0.6387
   47CHL1  H23A 3464   5.550   1.789   8.018  2.0061  2.4712 -2.6215
   47CHL1  H23B 3465   5.453   1.930   8.013 -1.8507  0.6077 -0.2543
   47CHL1   C24 3466   5.353   1.749   8.105 -0.7669  0.0612  0.0021
   47CHL1  H24A 3467   5.253   1.795   8.117 -0.6210 -0.3702  4.3717
   47CHL1  H24B 3468   5.336   1.641   8.084 -0.8837  0.1621 -0.4322
   47CHL1   C25 3469   5.425   1.743   8.248  0.2010 -0.3428  0.0123
   47CHL1   H25 3470   5.515   1.682   8.227 -0.4092 -1.0722 -0.4982
   47CHL1   C26 3471   5.480   1.885   8.285 -0.0862  0.0515  0.1948
   47CHL1  H26A 3472   5.533   1.870   8.381  1.4285 -0.3321 -0.6686
   47CHL1  H26B 3473   5.548   1.922   8.205 -0.8592  0.3046 -0.3582
   47CHL1  H26C 3474   5.407   1.969   8.290 -1.0491 -0.3625 -3.6558
   47CHL1   C27 3475   5.348   1.668   8.360  0.5393  0.3514  0.0714
   47CHL1  H27A 3476   5.243   1.653   8.325  0.5174 -1.6379  0.8373
   47CHL1  H27B 3477   5.381   1.564   8.383  1.5790  0.5277 -0.5683
   47CHL1  H27C 3478   5.343   1.736   8.447 -1.0109  1.1465 -0.6070
   48CHL1    C3 3479   3.487   4.473   6.614  0.2637  0.2914  0.0843
   48CHL1    H3 3480   3.527   4.370   6.625 -0.6929 -0.2654 -1.3615
   48CHL1    O3 3481   3.448   4.495   6.482 -0.0941  0.2758 -0.1167
   48CHL1   H3' 3482   3.468   4.587   6.464  0.2973 -0.0299 -1.3606
   48CHL1    C4 3483   3.368   4.494   6.710 -0.4723  0.0218 -0.0229
   48CHL1   H4A 3484   3.318   4.592   6.695 -1.6897 -0.2441  2.0096
   48CHL1   H4B 3485   3.297   4.414   6.681 -0.3602  0.2183 -0.8860
   48CHL1    C5 3486   3.400   4.489   6.860 -0.1248 -0.6239 -0.0030
   48CHL1    C6 3487   3.333   4.414   6.943 -0.0575  0.6812  0.0490
   48CHL1    H6 3488   3.247   4.357   6.903 -0.6016  1.2335  0.4117
   48CHL1    C7 3489   3.353   4.410   7.095  0.4238  0.0354  0.0386
   48CHL1   H7A 3490   3.257   4.423   7.148  1.4869  1.9135  1.6411
   48CHL1   H7B 3491   3.392   4.309   7.119  2.4555  0.9105  0.6436
   48CHL1    C8 3492   3.450   4.521   7.142  0.2742 -0.4043  1.4092
   48CHL1    H8 3493   3.380   4.607   7.149 -0.9588 -1.3358  1.1063
   48CHL1   C14 3494   3.507   4.494   7.280 -0.0539  0.2992 -0.3331
   48CHL1   H14 3495   3.591   4.423   7.258  2.2143  3.1961 -1.6725
   48CHL1   C15 3496   3.418   4.429   7.386  0.8348  0.6177  0.4014
   48CHL1  H15A 3497   3.316   4.469   7.368  1.1737  0.8706 -1.1027
   48CHL1  H15B 3498   3.424   4.318   7.374  1.7113  0.4184  2.3147
   48CHL1   C16 3499   3.495   4.461   7.520  0.4792 -0.0902  0.7907
   48CHL1  H16A 3500   3.428   4.525   7.582 -1.7382  1.9959 -3.3700
   48CHL1  H16B 3501   3.514   4.372   7.585 -0.3632 -0.7545  0.1582
   48CHL1   C17 3502   3.623   4.538   7.478 -0.1105  0.3263  0.4697
   48CHL1   H17 3503   3.703   4.464   7.457  0.9922  1.6818 -0.2253
   48CHL1   C13 3504   3.591   4.607   7.343 -0.1434  0.1501 -0.1092
   48CHL1   C18 3505   3.496   4.731   7.382 -0.5796  0.1295  0.1832
   48CHL1  H18A 3506   3.445   4.776   7.294 -1.1236 -0.6204  0.1096
   48CHL1  H18B 3507   3.418   4.707   7.457 -1.5521 -1.4012 -1.2299
   48CHL1  H18C 3508   3.563   4.809   7.423  1.2453 -2.4242  2.3904
   48CHL1   C12 3509   3.703   4.639   7.244 -0.3150 -0.0440  0.8013
   48CHL1  H12A 3510   3.754   4.737   7.258 -2.4812  1.0945  1.1849
   48CHL1  H12B 3511   3.778   4.558   7.255 -0.3719  0.1501  3.0651
   48CHL1   C11 3512   3.659   4.652   7.100  0.0520  0.0789  0.2076
   48CHL1  H11A 3513   3.626   4.754   7.072  1.0646  0.3992  0.1264
   48CHL1  H11B 3514   3.749   4.643   7.036 -0.1754  1.5385 -0.3595
   48CHL1    C9 3515   3.557   4.551   7.045 -0.0866  0.4751  0.0332
   48CHL1    H9 3516   3.608   4.453   7.036  1.2927  1.2356 -0.9142
   48CHL1   C10 3517   3.513   4.582   6.900 -0.1946  0.2402 -0.7748
   48CHL1   C19 3518   3.472   4.728   6.890  0.6417 -0.5887  0.0898
   48CHL1  H19A 3519   3.431   4.753   6.790  0.2718  1.8032  0.7623
   48CHL1  H19B 3520   3.390   4.752   6.962  1.0859  0.7798  0.1863
   48CHL1  H19C 3521   3.549   4.809   6.900 -0.3118  0.2330  1.0750
   48CHL1    C1 3522   3.630   4.549   6.810  0.3438 -0.2524  0.2124
   48CHL1   H1A 3523   3.714   4.620   6.828 -0.2481  0.7201 -0.7653
   48CHL1   H1B 3524   3.659   4.442   6.820  0.4198 -0.3210 -0.7023
   48CHL1    C2 3525   3.601   4.573   6.660 -0.3806  0.0164  0.5653
   48CHL1   H2A 3526   3.695   4.549   6.605  0.3550 -0.2539  1.9083
   48CHL1   H2B 3527   3.564   4.675   6.633  0.4641  0.3962  0.8170
   48CHL1   C20 3528   3.688   4.628   7.584 -0.0847 -0.0907  0.3624
   48CHL1   H20 3529   3.605   4.693   7.618  1.1689  1.3714  0.7947
   48CHL1   C21 3530   3.806   4.712   7.529 -0.4151 -0.2940 -0.5621
   48CHL1  H21A 3531   3.875   4.652   7.466  2.4711  0.5598  1.5716
   48CHL1  H21B 3532   3.872   4.743   7.613  0.1831 -0.5173 -0.9466
   48CHL1  H21C 3533   3.768   4.801   7.475  2.8520  0.7916 -1.3187
   48CHL1   C22 3534   3.729   4.543   7.710 -0.1451 -0.5622 -0.4768
   48CHL1  H22A 3535   3.692   4.438   7.701 -0.6803 -0.4214  0.0656
   48CHL1  H22B 3536   3.838   4.552   7.733 -0.6962  0.5400  1.9774
   48CHL1   C23 3537   3.664   4.606   7.838  0.0654  0.9047  0.2167
   48CHL1  H23A 3538   3.702   4.710   7.848  2.8972 -0.0196 -0.1251
   48CHL1  H23B 3539   3.555   4.619   7.820 -1.1023 -1.8169  3.9768
   48CHL1   C24 3540   3.698   4.542   7.971  0.7888  0.4391 -0.8386
   48CHL1  H24A 3541   3.639   4.449   7.985 -2.2593  2.2224 -0.9756
   48CHL1  H24B 3542   3.806   4.516   7.976  1.0724  1.7166  1.5236
   48CHL1   C25 3543   3.659   4.639   8.090 -0.7485 -0.7619  0.8971
   48CHL1   H25 3544   3.702   4.736   8.057 -2.2894 -0.5632 -0.6853
   48CHL1   C26 3545   3.502   4.647   8.102  0.6635 -0.1427  0.7960
   48CHL1  H26A 3546   3.454   4.546   8.101  3.8887 -1.8441 -0.9385
   48CHL1  H26B 3547   3.468   4.718   8.180  0.7582 -0.2708  0.9546
   48CHL1  H26C 3548   3.459   4.683   8.006 -1.3268 -4.4955 -0.1949
   48CHL1   C27 3549   3.725   4.596   8.221  0.1915  0.0480  0.1009
   48CHL1  H27A 3550   3.832   4.565   8.215 -0.3345 -1.5687 -3.0507
   48CHL1  H27B 3551   3.720   4.671   8.303  0.8414  0.7507 -0.4854
   48CHL1  H27C 3552   3.673   4.505   8.258  0.0265  0.1517  0.1190
   49CHL1    C3 3553   0.837   5.508   6.695 -0.0685 -0.6333 -0.1254
   49CHL1    H3 3554   0.872   5.613   6.699 -0.5349 -0.3626 -2.1459
   49CHL1    O3 3555   0.832   5.475   6.559 -0.6255  0.1508 -0.0309
   49CHL1   H3' 3556   0.744   5.440   6.548 -1.5296  1.5356  1.9952
   49CHL1    C4 3557   0.936   5.413   6.763 -0.2171 -0.1538 -0.0037
   49CHL1   H4A 3558   0.897   5.311   6.740 -2.0068  0.5441 -0.1852
   49CHL1   H4B 3559   1.034   5.432   6.714 -0.4512  0.3298 -0.2840
   49CHL1    C5 3560   0.944   5.440   6.915  0.6189  0.4012  0.1474
   49CHL1    C6 3561   1.060   5.467   6.977 -0.6875  0.4768 -0.3616
   49CHL1    H6 3562   1.150   5.470   6.914  2.1227  0.7658  3.3435
   49CHL1    C7 3563   1.078   5.491   7.124 -0.7879  0.0950 -0.0227
   49CHL1   H7A 3564   1.167   5.449   7.176 -0.1727 -0.3126 -1.3831
   49CHL1   H7B 3565   1.081   5.602   7.136  0.6940  0.3010 -1.9091
   49CHL1    C8 3566   0.949   5.452   7.197 -0.4111  0.3042  0.1345
   49CHL1    H8 3567   0.952   5.342   7.208 -0.3908  0.2036 -0.7534
   49CHL1   C14 3568   0.956   5.512   7.336  0.7711  0.3941  0.0169
   49CHL1   H14 3569   0.931   5.618   7.311  0.2081 -0.7366 -5.3056
   49CHL1   C15 3570   1.078   5.492   7.428  0.1448 -0.0055  0.5938
   49CHL1  H15A 3571   1.101   5.384   7.436 -0.8229 -0.5839 -2.9054
   49CHL1  H15B 3572   1.167   5.551   7.397 -0.2721  1.0445  1.2961
   49CHL1   C16 3573   1.038   5.538   7.569  0.1763 -0.0368 -0.4898
   49CHL1  H16A 3574   1.085   5.480   7.650 -0.2356  1.9542  1.2659
   49CHL1  H16B 3575   1.064   5.644   7.590  0.5191 -0.6297  2.5046
   49CHL1   C17 3576   0.879   5.544   7.565  0.0022 -0.3899  0.3452
   49CHL1   H17 3577   0.842   5.649   7.560 -2.0073 -0.9597  1.7489
   49CHL1   C13 3578   0.839   5.476   7.429  0.1945  0.1630  0.1970
   49CHL1   C18 3579   0.827   5.323   7.446  0.6336 -0.4354 -0.1264
   49CHL1  H18A 3580   0.915   5.285   7.503  0.3908  0.0677  0.6006
   49CHL1  H18B 3581   0.739   5.303   7.510  0.5991 -1.9066 -0.6005
   49CHL1  H18C 3582   0.816   5.268   7.350  3.1631  1.6881 -1.7764
   49CHL1   C12 3583   0.717   5.535   7.360  0.1502  0.2060  0.1535
   49CHL1  H12A 3584   0.630   5.506   7.422 -0.7781  1.9957 -0.2177
   49CHL1  H12B 3585   0.719   5.646   7.359 -0.8968  0.2330 -0.2185
   49CHL1   C11 3586   0.687   5.470   7.220 -0.1793  0.1664  0.3008
   49CHL1  H11A 3587   0.675   5.359   7.227  0.8432  0.1568  2.5091
   49CHL1  H11B 3588   0.602   5.513   7.163  0.6628  1.9768  0.3407
   49CHL1    C9 3589   0.814   5.490   7.129 -0.4597 -0.2345  0.2297
   49CHL1    H9 3590   0.823   5.599   7.111  1.3970 -0.6849 -2.1609
   49CHL1   C10 3591   0.801   5.433   6.989  0.0243  0.0889  0.0969
   49CHL1   C19 3592   0.746   5.289   6.996  0.1686  0.3547 -0.3044
   49CHL1  H19A 3593   0.653   5.278   7.057  0.4382  1.9398  0.4258
   49CHL1  H19B 3594   0.730   5.240   6.897  1.7196 -0.0894 -0.3573
   49CHL1  H19C 3595   0.828   5.224   7.032  0.2517  1.0943  0.8655
   49CHL1    C1 3596   0.693   5.519   6.910  0.8742 -0.0734 -0.6243
   49CHL1   H1A 3597   0.593   5.521   6.957  1.6308 -2.5970  1.2971
   49CHL1   H1B 3598   0.724   5.625   6.917 -0.7388  0.3686  0.2236
   49CHL1    C2 3599   0.695   5.499   6.758  0.6365  0.9233  0.6761
   49CHL1   H2A 3600   0.610   5.553   6.710 -1.2115 -1.1199  1.4661
   49CHL1   H2B 3601   0.664   5.392   6.750 -2.3074  1.8366 -1.9990
   49CHL1   C20 3602   0.820   5.496   7.701  0.5794 -0.8720  0.4771
   49CHL1   H20 3603   0.851   5.390   7.714 -1.3472 -1.2969  2.2220
   49CHL1   C21 3604   0.664   5.506   7.698 -0.2740  0.5413 -0.0666
   49CHL1  H21A 3605   0.619   5.440   7.620 -1.9517  0.1352  1.1876
   49CHL1  H21B 3606   0.634   5.611   7.680  0.0098  0.2337 -2.6718
   49CHL1  H21C 3607   0.622   5.465   7.792 -0.9816  2.3075  0.4275
   49CHL1   C22 3608   0.874   5.595   7.810 -0.0716  0.0463  0.1094
   49CHL1  H22A 3609   0.985   5.594   7.802 -0.0330  0.1238  0.6325
   49CHL1  H22B 3610   0.831   5.696   7.788  0.0555  0.4673  1.7053
   49CHL1   C23 3611   0.835   5.546   7.946 -0.5110  0.0662  0.2693
   49CHL1  H23A 3612   0.845   5.625   8.023 -0.8851 -1.9609  2.5426
   49CHL1  H23B 3613   0.730   5.510   7.949 -0.6911  0.5446 -0.1120
   49CHL1   C24 3614   0.930   5.435   7.990  0.3763 -0.4851 -0.1916
   49CHL1  H24A 3615   0.933   5.353   7.916  0.4287 -0.3634 -0.3242
   49CHL1  H24B 3616   1.028   5.486   7.994 -0.1011  0.4067  0.4961
   49CHL1   C25 3617   0.908   5.382   8.134  0.2758 -0.0876 -0.6018
   49CHL1   H25 3618   0.984   5.310   8.168  1.4131  2.2364  2.1062
   49CHL1   C26 3619   0.931   5.491   8.242 -0.3171 -0.5161 -0.0202
   49CHL1  H26A 3620   1.040   5.513   8.234 -0.6122  0.6374 -1.0885
   49CHL1  H26B 3621   0.872   5.582   8.220  3.5969  2.0373 -1.1203
   49CHL1  H26C 3622   0.898   5.459   8.344  0.1969  0.9041  0.6203
   49CHL1   C27 3623   0.759   5.325   8.143  0.2927 -0.6242 -0.0522
   49CHL1  H27A 3624   0.693   5.412   8.120  0.4910 -0.7969 -1.3449
   49CHL1  H27B 3625   0.726   5.231   8.095 -0.0328 -0.7811  0.4642
   49CHL1  H27C 3626   0.742   5.310   8.252 -0.7069  0.1340 -0.0895
   50CHL1    C3 3627   0.588   0.570   6.958  0.6012 -0.0198 -0.2423
   50CHL1    H3 3628   0.698   0.551   6.964  0.4403 -0.6014  1.1067
   50CHL1    O3 3629   0.561   0.591   6.820  0.3376 -0.6846 -0.1370
   50CHL1   H3' 3630   0.639   0.633   6.783  0.3907 -0.9384 -0.3165
   50CHL1    C4 3631   0.518   0.444   7.008 -0.1446 -0.2212  0.9583
   50CHL1   H4A 3632   0.408   0.453   6.992 -0.6208 -1.5786  2.9621
   50CHL1   H4B 3633   0.558   0.358   6.950 -1.9022 -0.9379  0.7303
   50CHL1    C5 3634   0.526   0.421   7.156  0.1127  0.2570 -0.1185
   50CHL1    C6 3635   0.563   0.305   7.221 -0.1229  0.1057 -0.4556
   50CHL1    H6 3636   0.607   0.222   7.165  0.7044  1.2658 -1.5893
   50CHL1    C7 3637   0.558   0.272   7.370 -0.3637 -0.9230  0.6314
   50CHL1   H7A 3638   0.503   0.177   7.389 -0.5431 -0.5876  1.9403
   50CHL1   H7B 3639   0.665   0.266   7.398 -0.2107 -0.2555  0.2093
   50CHL1    C8 3640   0.491   0.387   7.452 -0.5870 -0.4934  0.2916
   50CHL1    H8 3641   0.382   0.374   7.436 -0.1344 -2.4226 -1.7634
   50CHL1   C14 3642   0.525   0.378   7.595 -0.4034  0.3598 -0.0972
   50CHL1   H14 3643   0.635   0.392   7.598 -0.2747 -0.4237 -0.8786
   50CHL1   C15 3644   0.503   0.241   7.661 -0.3828  0.3507  0.5647
   50CHL1  H15A 3645   0.402   0.203   7.633 -0.9288  1.0362  1.5608
   50CHL1  H15B 3646   0.569   0.159   7.626  0.5774  0.7618  1.3818
   50CHL1   C16 3647   0.511   0.269   7.811 -0.1457  0.3120 -1.0115
   50CHL1  H16A 3648   0.429   0.211   7.857 -0.5302  0.5976 -1.3256
   50CHL1  H16B 3649   0.603   0.234   7.863  0.7278  3.9985  0.2969
   50CHL1   C17 3650   0.511   0.424   7.828  0.5892 -0.0035  0.5227
   50CHL1   H17 3651   0.613   0.465   7.839  0.0394  1.5805  0.0074
   50CHL1   C13 3652   0.464   0.479   7.690  0.9106 -0.3436  0.2105
   50CHL1   C18 3653   0.306   0.470   7.682  1.4409 -0.1142 -0.4255
   50CHL1  H18A 3654   0.263   0.533   7.762  0.0020 -2.5668  0.8627
   50CHL1  H18B 3655   0.267   0.496   7.582  0.3493 -2.1052 -0.5757
   50CHL1  H18C 3656   0.287   0.363   7.704  1.4147  0.0760  0.5139
   50CHL1   C12 3657   0.524   0.615   7.639  0.3971 -0.2589  0.5797
   50CHL1  H12A 3658   0.477   0.694   7.702  0.8533  1.3873 -1.0611
   50CHL1  H12B 3659   0.634   0.619   7.651  0.6392 -0.3075 -1.3829
   50CHL1   C11 3660   0.488   0.637   7.485 -0.0895  0.3784 -0.3418
   50CHL1  H11A 3661   0.378   0.646   7.484 -0.3459 -1.8695  0.6635
   50CHL1  H11B 3662   0.542   0.727   7.448  1.7352  1.0750  3.4336
   50CHL1    C9 3663   0.531   0.523   7.395  0.2951  0.2575  0.5434
   50CHL1    H9 3664   0.642   0.526   7.404  0.3125  2.1581  0.2586
   50CHL1   C10 3665   0.493   0.544   7.240  0.3841 -0.4933 -0.3621
   50CHL1   C19 3666   0.343   0.573   7.229  0.4537  0.3538 -0.4594
   50CHL1  H19A 3667   0.319   0.673   7.271 -0.0060 -0.1144  0.4197
   50CHL1  H19B 3668   0.307   0.571   7.124 -0.6166 -2.8729 -0.1514
   50CHL1  H19C 3669   0.277   0.495   7.274 -3.1003  2.3861 -1.7609
   50CHL1    C1 3670   0.569   0.670   7.189  0.3244 -1.2422 -1.1360
   50CHL1   H1A 3671   0.551   0.763   7.247 -2.9178 -2.5782  0.2710
   50CHL1   H1B 3672   0.676   0.660   7.215 -0.2122 -0.5110  1.7487
   50CHL1    C2 3673   0.556   0.692   7.039 -0.7874  0.1188  0.1587
   50CHL1   H2A 3674   0.630   0.766   7.002  0.4652 -0.9779  0.4146
   50CHL1   H2B 3675   0.453   0.730   7.023 -0.1908  1.0407 -1.7387
   50CHL1   C20 3676   0.436   0.470   7.956 -0.1771 -0.1825  0.0230
   50CHL1   H20 3677   0.333   0.430   7.948 -0.9036  1.9276 -2.3886
   50CHL1   C21 3678   0.435   0.626   7.953 -1.0285 -0.1514  0.0242
   50CHL1  H21A 3679   0.345   0.659   7.897 -0.3593  0.0737 -0.9511
   50CHL1  H21B 3680   0.524   0.677   7.911 -1.5432  0.7046 -0.0452
   50CHL1  H21C 3681   0.420   0.660   8.058  2.3988  0.1724  0.5105
   50CHL1   C22 3682   0.504   0.406   8.080  0.7149  0.5477  0.6066
   50CHL1  H22A 3683   0.500   0.296   8.068  0.5216  0.4898  1.1727
   50CHL1  H22B 3684   0.613   0.428   8.081  0.8910 -0.3008  0.4178
   50CHL1   C23 3685   0.427   0.430   8.212  0.6990 -0.5341  0.4719
   50CHL1  H23A 3686   0.461   0.528   8.254 -0.1605  0.1782 -0.4583
   50CHL1  H23B 3687   0.320   0.443   8.188  1.1965 -0.2259 -1.7384
   50CHL1   C24 3688   0.441   0.314   8.310 -0.5875 -0.1277 -0.7737
   50CHL1  H24A 3689   0.420   0.217   8.260  2.6807 -0.7557 -1.1366
   50CHL1  H24B 3690   0.539   0.319   8.363  0.8907 -0.5785 -3.3227
   50CHL1   C25 3691   0.343   0.320   8.437 -1.0724 -0.0162  0.5455
   50CHL1   H25 3692   0.237   0.318   8.404 -2.2398 -1.5766  3.9315
   50CHL1   C26 3693   0.355   0.179   8.507  0.0248 -0.1885 -0.1823
   50CHL1  H26A 3694   0.282   0.163   8.589  1.3530 -0.9656  0.9071
   50CHL1  H26B 3695   0.342   0.096   8.435 -2.4443  1.4451 -1.7484
   50CHL1  H26C 3696   0.456   0.178   8.554 -1.1130 -1.5127  2.4632
   50CHL1   C27 3697   0.367   0.431   8.541  0.3703  0.0310 -0.1150
   50CHL1  H27A 3698   0.476   0.427   8.562  0.1418 -0.0548  1.1132
   50CHL1  H27B 3699   0.335   0.528   8.498  3.3252  0.8693 -0.6936
   50CHL1  H27C 3700   0.324   0.399   8.638 -0.3402 -1.2906 -0.8419
   51CHL1    C3 3701   1.117   6.310   7.040  0.1634 -0.0226  0.4543
   51CHL1    H3 3702   1.077   6.214   7.078  1.1738 -1.6748 -2.3574
   51CHL1    O3 3703   1.074   6.331   6.905 -0.3160 -0.0109  0.6706
   51CHL1   H3' 3704   1.093   6.249   6.860  0.1883  0.7377 -0.5179
   51CHL1    C4 3705   1.080   6.433   7.127 -0.6972  0.1508 -0.0807
   51CHL1   H4A 3706   1.128   6.514   7.068 -0.1020  0.3567  0.6700
   51CHL1   H4B 3707   0.971   6.452   7.131 -0.5231  1.7439 -1.6804
   51CHL1    C5 3708   1.140   6.427   7.264  0.3465  0.1827  0.1046
   51CHL1    C6 3709   1.048   6.440   7.361 -0.2317  0.0991 -0.3047
   51CHL1    H6 3710   0.952   6.490   7.339  0.4835  0.8272 -1.9403
   51CHL1    C7 3711   1.076   6.423   7.507 -0.3021  0.1152  0.0819
   51CHL1   H7A 3712   1.029   6.503   7.568  0.7933  1.3446 -0.6412
   51CHL1   H7B 3713   1.033   6.326   7.539 -2.0552  1.1531  1.0748
   51CHL1    C8 3714   1.228   6.431   7.537  0.4714 -0.2506 -0.1970
   51CHL1    H8 3715   1.269   6.531   7.512 -0.5828  0.6323  1.4644
   51CHL1   C14 3716   1.248   6.366   7.676  0.4662  0.3553  0.3895
   51CHL1   H14 3717   1.211   6.261   7.677  0.5084  0.3400  0.7266
   51CHL1   C15 3718   1.183   6.442   7.797 -0.0595  0.9626  0.8436
   51CHL1  H15A 3719   1.216   6.547   7.786  0.9940  0.4898 -0.8985
   51CHL1  H15B 3720   1.072   6.432   7.799  0.0627 -0.6334  1.5571
   51CHL1   C16 3721   1.259   6.388   7.922  0.1689  0.0553 -0.2521
   51CHL1  H16A 3722   1.293   6.470   7.988 -0.2438  0.4534 -0.5304
   51CHL1  H16B 3723   1.189   6.328   7.984 -0.9009  1.7512  0.2413
   51CHL1   C17 3724   1.384   6.302   7.866  0.7968  0.0981 -0.1615
   51CHL1   H17 3725   1.344   6.199   7.856  2.1742 -0.5857  0.9391
   51CHL1   C13 3726   1.399   6.348   7.712 -0.3055  0.1393 -0.1520
   51CHL1   C18 3727   1.469   6.482   7.709 -0.7322  0.2095  0.2976
   51CHL1  H18A 3728   1.477   6.528   7.608  2.5902  2.7310  1.4961
   51CHL1  H18B 3729   1.421   6.556   7.777 -2.2741 -1.3499  0.9665
   51CHL1  H18C 3730   1.574   6.472   7.744 -0.4205  1.7547 -0.1222
   51CHL1   C12 3731   1.457   6.239   7.614 -0.1083 -0.6837  0.2066
   51CHL1  H12A 3732   1.567   6.225   7.625  0.2812  1.6853 -0.0799
   51CHL1  H12B 3733   1.405   6.142   7.628 -1.1487 -0.2172 -0.3381
   51CHL1   C11 3734   1.437   6.287   7.470 -0.2443 -0.3341  0.3482
   51CHL1  H11A 3735   1.502   6.375   7.455 -2.5855  1.2963 -0.7694
   51CHL1  H11B 3736   1.473   6.212   7.396 -1.4475  1.4934 -2.2525
   51CHL1    C9 3737   1.296   6.330   7.436  0.3749 -1.0398  0.1423
   51CHL1    H9 3738   1.233   6.239   7.440 -2.4625  0.8555  1.1176
   51CHL1   C10 3739   1.278   6.372   7.285  0.8638  0.0472 -1.5375
   51CHL1   C19 3740   1.381   6.482   7.251  0.0821  0.4202 -0.2048
   51CHL1  H19A 3741   1.383   6.570   7.318  0.3691 -0.4749  0.9842
   51CHL1  H19B 3742   1.485   6.442   7.249  1.1651  3.0525 -0.7334
   51CHL1  H19C 3743   1.373   6.516   7.145  1.3429  1.9835  0.1629
   51CHL1    C1 3744   1.314   6.255   7.190 -0.2734 -1.1140  1.4282
   51CHL1   H1A 3745   1.424   6.240   7.190 -0.1703 -0.4512  0.5948
   51CHL1   H1B 3746   1.268   6.159   7.217  0.5625 -2.9855 -2.8704
   51CHL1    C2 3747   1.276   6.282   7.044  0.2298 -0.0820  0.0518
   51CHL1   H2A 3748   1.304   6.191   6.987  0.2970 -0.2605  0.3719
   51CHL1   H2B 3749   1.327   6.370   6.998 -3.0577  2.0036  0.1010
   51CHL1   C20 3750   1.510   6.305   7.957  0.4739  0.2881  0.4691
   51CHL1   H20 3751   1.549   6.409   7.958  2.3988 -0.3605 -0.6351
   51CHL1   C21 3752   1.630   6.221   7.898  0.2993  0.1043 -0.2496
   51CHL1  H21A 3753   1.676   6.274   7.812 -0.5949 -0.1345 -0.8840
   51CHL1  H21B 3754   1.576   6.130   7.865  0.4301 -0.2300  0.4385
   51CHL1  H21C 3755   1.707   6.200   7.975  1.7210 -3.4121 -2.3747
   51CHL1   C22 3756   1.485   6.275   8.108 -0.1536 -0.2941 -0.1580
   51CHL1  H22A 3757   1.398   6.332   8.148 -1.2049 -3.1428  1.9822
   51CHL1  H22B 3758   1.451   6.170   8.106  2.3447 -1.1588 -0.9962
   51CHL1   C23 3759   1.608   6.299   8.202 -0.5134  1.0997  0.4360
   51CHL1  H23A 3760   1.675   6.211   8.187 -2.1871 -0.1134 -0.4009
   51CHL1  H23B 3761   1.664   6.390   8.174  1.1412  0.1741  0.6044
   51CHL1   C24 3762   1.566   6.306   8.349  0.2443 -0.0568 -0.3061
   51CHL1  H24A 3763   1.508   6.398   8.375  0.5809  0.1176 -0.1569
   51CHL1  H24B 3764   1.519   6.215   8.393  1.4024 -0.8425 -0.6559
   51CHL1   C25 3765   1.679   6.325   8.459  0.5133 -0.4040  0.0119
   51CHL1   H25 3766   1.644   6.306   8.562  1.6228  1.0325  0.6878
   51CHL1   C26 3767   1.791   6.226   8.434  0.8340 -0.7264  0.4166
   51CHL1  H26A 3768   1.754   6.124   8.454 -1.1258 -0.3100 -0.8120
   51CHL1  H26B 3769   1.828   6.245   8.331 -2.9786  0.0631 -0.9923
   51CHL1  H26C 3770   1.874   6.253   8.503  1.8082  2.5433 -1.7878
   51CHL1   C27 3771   1.746   6.472   8.454 -0.1114  0.7387  1.0680
   51CHL1  H27A 3772   1.677   6.546   8.501  0.3090  0.2732  2.4524
   51CHL1  H27B 3773   1.849   6.477   8.495  0.5542  0.7972 -0.5487
   51CHL1  H27C 3774   1.745   6.502   8.347 -0.8014 -3.3481 -0.2536
   52CHL1    C3 3775   2.197   6.367   6.904  0.1715 -0.0559 -0.3297
   52CHL1    H3 3776   2.105   6.310   6.933 -0.7960  2.1393  1.1862
   52CHL1    O3 3777   2.165   6.424   6.779  0.1247 -0.0094  0.3010
   52CHL1   H3' 3778   2.126   6.348   6.736 -1.6687  0.5138  0.9143
   52CHL1    C4 3779   2.225   6.479   6.997 -0.7990  0.7354 -0.1700
   52CHL1   H4A 3780   2.311   6.545   6.973 -0.4388  2.5066  4.8110
   52CHL1   H4B 3781   2.132   6.539   6.990 -1.9972 -1.0684 -0.5386
   52CHL1    C5 3782   2.252   6.434   7.138  0.0317  0.1260 -0.4138
   52CHL1    C6 3783   2.186   6.480   7.251 -0.5853  0.0040 -0.3445
   52CHL1    H6 3784   2.112   6.561   7.247  1.0176  1.4936 -1.4507
   52CHL1    C7 3785   2.216   6.429   7.387  0.3150 -0.3163 -0.1922
   52CHL1   H7A 3786   2.216   6.515   7.457 -1.8808  1.1465 -1.8262
   52CHL1   H7B 3787   2.142   6.352   7.419  1.6085 -0.4264  2.7980
   52CHL1    C8 3788   2.352   6.358   7.393  0.0358  0.5255 -0.7651
   52CHL1    H8 3789   2.441   6.424   7.381 -0.4971  1.3610 -0.2008
   52CHL1   C14 3790   2.359   6.285   7.527  0.7817 -0.6036 -0.2805
   52CHL1   H14 3791   2.275   6.212   7.529  1.4856 -1.5108 -1.9536
   52CHL1   C15 3792   2.346   6.371   7.650  0.3598 -0.5174 -0.3549
   52CHL1  H15A 3793   2.409   6.462   7.641 -1.1195  0.8585  2.1414
   52CHL1  H15B 3794   2.238   6.395   7.659  0.6754  1.6612 -1.6492
   52CHL1   C16 3795   2.386   6.286   7.773  0.3517 -0.1544  0.4365
   52CHL1  H16A 3796   2.459   6.350   7.828 -0.3151 -0.1085  1.2892
   52CHL1  H16B 3797   2.300   6.254   7.835 -1.7570  0.0685 -2.1964
   52CHL1   C17 3798   2.455   6.158   7.706 -0.6326 -0.2721  0.2893
   52CHL1   H17 3799   2.370   6.086   7.699 -1.0991  0.2141  0.7949
   52CHL1   C13 3800   2.481   6.199   7.556  0.0967  0.5349  0.4007
   52CHL1   C18 3801   2.607   6.279   7.559  0.2563 -0.1331  0.1712
   52CHL1  H18A 3802   2.607   6.340   7.466  1.0641 -0.9638 -0.3784
   52CHL1  H18B 3803   2.622   6.339   7.652 -0.7986  0.7000 -0.1605
   52CHL1  H18C 3804   2.695   6.214   7.544 -0.6444 -0.9593 -1.9229
   52CHL1   C12 3805   2.483   6.089   7.449 -0.0392 -1.1296 -0.0374
   52CHL1  H12A 3806   2.572   6.025   7.468  0.7626 -0.3072 -0.9207
   52CHL1  H12B 3807   2.391   6.027   7.458  0.9132 -2.3537  2.3618
   52CHL1   C11 3808   2.483   6.152   7.302  0.6068 -0.0962  0.1473
   52CHL1  H11A 3809   2.582   6.202   7.292  0.4522 -0.0054 -0.9590
   52CHL1  H11B 3810   2.478   6.071   7.227  2.1424  0.2291 -0.3522
   52CHL1    C9 3811   2.365   6.255   7.279  0.2276 -0.6466 -0.4659
   52CHL1    H9 3812   2.273   6.194   7.295 -0.3863  0.5713  0.8424
   52CHL1   C10 3813   2.361   6.320   7.144 -0.2115  0.2833  0.8003
   52CHL1   C19 3814   2.498   6.385   7.127 -0.5901  0.0433  0.0784
   52CHL1  H19A 3815   2.523   6.456   7.208 -1.2826  0.4146 -0.0237
   52CHL1  H19B 3816   2.586   6.322   7.105  0.9809  2.2079 -0.1646
   52CHL1  H19C 3817   2.488   6.452   7.038 -0.2680 -1.9577 -1.5524
   52CHL1    C1 3818   2.344   6.211   7.025  0.7918  0.9386 -0.1633
   52CHL1   H1A 3819   2.438   6.152   7.032 -0.7614 -1.5030  4.7552
   52CHL1   H1B 3820   2.267   6.137   7.057  0.9255 -0.2226 -2.3539
   52CHL1    C2 3821   2.314   6.270   6.889  0.3970  0.2549 -0.7001
   52CHL1   H2A 3822   2.290   6.182   6.826  2.7032 -0.0693 -1.2149
   52CHL1   H2B 3823   2.409   6.314   6.851  0.8981  0.1763  0.4240
   52CHL1   C20 3824   2.570   6.100   7.790  0.6060  0.1035  0.1293
   52CHL1   H20 3825   2.650   6.176   7.797  1.0414 -0.0607 -2.2502
   52CHL1   C21 3826   2.634   5.972   7.735 -0.3453  0.5715 -0.3888
   52CHL1  H21A 3827   2.710   5.924   7.801 -0.4808  0.6087 -0.2052
   52CHL1  H21B 3828   2.674   6.000   7.635 -0.0196 -0.0522 -0.4392
   52CHL1  H21C 3829   2.548   5.904   7.717  1.9414 -2.1245 -1.8998
   52CHL1   C22 3830   2.526   6.079   7.942 -0.1127  0.2318  0.1274
   52CHL1  H22A 3831   2.487   6.169   7.994  1.3413  0.4057  0.9678
   52CHL1  H22B 3832   2.453   5.996   7.934 -1.9337  1.8904 -1.6364
   52CHL1   C23 3833   2.636   6.023   8.029  0.2044 -0.0574  0.1513
   52CHL1  H23A 3834   2.643   5.913   8.018 -1.2101 -0.4239  2.2842
   52CHL1  H23B 3835   2.733   6.069   8.000  0.4666 -1.0398 -0.5598
   52CHL1   C24 3836   2.594   6.048   8.171  0.6476 -0.1674 -0.1514
   52CHL1  H24A 3837   2.573   6.157   8.181 -0.1344 -0.2477 -0.8836
   52CHL1  H24B 3838   2.503   5.987   8.189  1.3391 -0.6956  1.8255
   52CHL1   C25 3839   2.693   6.013   8.287 -0.4296  0.7859  0.0673
   52CHL1   H25 3840   2.695   5.902   8.290 -2.5038  0.6941 -0.4606
   52CHL1   C26 3841   2.835   6.068   8.274 -0.5495  0.4766  0.1314
   52CHL1  H26A 3842   2.896   6.039   8.362 -0.0722 -0.6985 -0.5738
   52CHL1  H26B 3843   2.882   6.040   8.177 -0.1070  4.6356 -1.0603
   52CHL1  H26C 3844   2.813   6.177   8.264 -0.8748  0.4558  0.5753
   52CHL1   C27 3845   2.628   6.064   8.420  0.7511  0.0862 -0.1525
   52CHL1  H27A 3846   2.616   6.173   8.402 -2.7400  0.3885  2.8905
   52CHL1  H27B 3847   2.530   6.012   8.433  0.7532  0.6509  2.7394
   52CHL1  H27C 3848   2.697   6.040   8.503 -0.3139 -2.6295  0.0415
   53CHL1    C3 3849   6.610   3.694   7.162  0.1502 -0.1069 -0.0597
   53CHL1    H3 3850   6.585   3.791   7.210 -0.6949 -0.0334 -0.6355
   53CHL1    O3 3851   6.629   3.720   7.024  0.1897 -0.2157  0.7452
   53CHL1   H3' 3852   6.651   3.634   6.987  2.1963 -0.3943  2.2100
   53CHL1    C4 3853   6.735   3.628   7.210 -0.6232  0.9731 -0.3875
   53CHL1   H4A 3854   6.756   3.532   7.158  0.4296  1.0761 -0.1794
   53CHL1   H4B 3855   6.821   3.694   7.184 -0.4604 -0.4754 -4.3065
   53CHL1    C5 3856   6.716   3.607   7.360 -0.2519  0.0323  0.5701
   53CHL1    C6 3857   6.803   3.659   7.445  0.2234 -0.0777 -0.2167
   53CHL1    H6 3858   6.881   3.727   7.406 -2.6533  1.8934 -3.0206
   53CHL1    C7 3859   6.795   3.639   7.594 -0.5070 -0.2427  0.8008
   53CHL1   H7A 3860   6.899   3.625   7.632  0.3896  3.0320 -0.1028
   53CHL1   H7B 3861   6.749   3.728   7.642 -0.8932  1.1363 -1.8884
   53CHL1    C8 3862   6.720   3.512   7.628  0.1162  0.5175 -0.5892
   53CHL1    H8 3863   6.774   3.419   7.601  0.5284 -0.6653  3.5509
   53CHL1   C14 3864   6.693   3.513   7.781  0.2539 -0.3341  0.1328
   53CHL1   H14 3865   6.636   3.605   7.806 -0.7134 -0.8872  0.0192
   53CHL1   C15 3866   6.816   3.518   7.877 -0.0997 -0.1672  0.6074
   53CHL1  H15A 3867   6.883   3.438   7.839  1.3541  1.9149 -1.4667
   53CHL1  H15B 3868   6.875   3.612   7.873  2.3397 -1.6535 -1.7418
   53CHL1   C16 3869   6.754   3.494   8.014 -0.3650 -0.2085 -0.2914
   53CHL1  H16A 3870   6.809   3.408   8.057 -0.7997 -0.8135 -0.9153
   53CHL1  H16B 3871   6.753   3.578   8.087 -1.5702 -1.8247  1.6448
   53CHL1   C17 3872   6.605   3.449   7.997 -0.0634 -0.2347  0.2512
   53CHL1   H17 3873   6.532   3.532   7.997 -0.1313 -0.2927 -0.0593
   53CHL1   C13 3874   6.603   3.405   7.846  0.0009  0.1037 -0.2316
   53CHL1   C18 3875   6.654   3.260   7.831 -0.0257  0.0774 -0.1468
   53CHL1  H18A 3876   6.570   3.188   7.822  0.4244 -0.3439 -1.2871
   53CHL1  H18B 3877   6.686   3.249   7.725 -0.6298  0.7102 -0.4033
   53CHL1  H18C 3878   6.747   3.229   7.883  0.0627  0.4312 -0.0884
   53CHL1   C12 3879   6.466   3.420   7.772 -0.2199 -0.2129  0.3012
   53CHL1  H12A 3880   6.410   3.326   7.793  2.4967 -1.5736  1.9099
   53CHL1  H12B 3881   6.409   3.507   7.811  0.6510  0.5760 -0.1229
   53CHL1   C11 3882   6.482   3.416   7.617 -0.4934 -0.0911  0.2752
   53CHL1  H11A 3883   6.514   3.314   7.584 -0.4737 -0.4476  1.3580
   53CHL1  H11B 3884   6.382   3.432   7.572  0.3066 -0.6265 -1.8417
   53CHL1    C9 3885   6.577   3.523   7.561 -0.2291 -0.2770 -0.2538
   53CHL1    H9 3886   6.529   3.620   7.588 -0.6790 -0.2233 -1.2134
   53CHL1   C10 3887   6.591   3.521   7.401 -0.2975 -0.5907 -0.4941
   53CHL1   C19 3888   6.622   3.374   7.355 -0.3534 -0.4252 -0.3106
   53CHL1  H19A 3889   6.646   3.385   7.247  2.5882 -0.3815  0.2574
   53CHL1  H19B 3890   6.710   3.342   7.414  1.9108  1.0188 -2.7019
   53CHL1  H19C 3891   6.531   3.314   7.378 -0.1238 -0.6340  0.0590
   53CHL1    C1 3892   6.467   3.575   7.324  0.4629  0.8769 -0.4674
   53CHL1   H1A 3893   6.386   3.500   7.334  0.8610  0.3480 -1.1379
   53CHL1   H1B 3894   6.431   3.672   7.363  0.0130  0.7668 -0.6046
   53CHL1    C2 3895   6.493   3.595   7.168  0.1188 -0.1540 -0.4303
   53CHL1   H2A 3896   6.401   3.633   7.119 -0.0204 -1.4237 -1.1965
   53CHL1   H2B 3897   6.514   3.498   7.118 -0.8123 -0.2603 -0.6265
   53CHL1   C20 3898   6.569   3.343   8.104  0.5392 -0.4560 -0.0432
   53CHL1   H20 3899   6.624   3.248   8.089 -1.2600 -1.3103 -1.5547
   53CHL1   C21 3900   6.416   3.321   8.096 -0.1368 -1.0571  0.0100
   53CHL1  H21A 3901   6.375   3.247   8.167 -1.4941 -3.4905 -3.0399
   53CHL1  H21B 3902   6.377   3.286   7.998  1.4259  0.4413 -1.2171
   53CHL1  H21C 3903   6.355   3.411   8.119 -2.0907 -2.3206  0.0365
   53CHL1   C22 3904   6.609   3.395   8.249 -0.6987  0.2702  0.5811
   53CHL1  H22A 3905   6.715   3.429   8.251 -0.5862  0.2495 -1.6280
   53CHL1  H22B 3906   6.539   3.478   8.272 -1.7214 -0.6626  0.9232
   53CHL1   C23 3907   6.604   3.288   8.360  0.4915 -0.5991  0.0057
   53CHL1  H23A 3908   6.497   3.261   8.361 -0.1160  1.4520  2.6883
   53CHL1  H23B 3909   6.669   3.202   8.334  1.5537  0.7173 -1.9455
   53CHL1   C24 3910   6.632   3.352   8.499  0.9859  0.4172 -0.3096
   53CHL1  H24A 3911   6.741   3.367   8.510  1.6654 -3.6596  0.3056
   53CHL1  H24B 3912   6.582   3.451   8.498 -1.4970 -0.7403 -0.8587
   53CHL1   C25 3913   6.583   3.266   8.618  0.3020 -0.2461  0.3913
   53CHL1   H25 3914   6.481   3.235   8.588  0.9607 -0.4393 -1.7946
   53CHL1   C26 3915   6.659   3.138   8.639  0.4440  0.7215 -0.3779
   53CHL1  H26A 3916   6.764   3.164   8.661  1.2858 -2.7425  0.3351
   53CHL1  H26B 3917   6.614   3.089   8.728  1.5633 -2.0474 -1.2219
   53CHL1  H26C 3918   6.655   3.071   8.550  0.5013 -0.7496  0.6929
   53CHL1   C27 3919   6.579   3.356   8.746  0.0490 -0.4214 -0.2047
   53CHL1  H27A 3920   6.545   3.459   8.725 -0.4915 -0.6264 -0.3399
   53CHL1  H27B 3921   6.513   3.304   8.819 -0.5372 -2.2810 -1.9496
   53CHL1  H27C 3922   6.678   3.372   8.795 -0.6036  3.2130  0.1605
   54CHL1    C3 3923   6.139   5.610   7.206  0.1656 -0.8502  0.2404
   54CHL1    H3 3924   6.103   5.714   7.221  1.3744 -0.1695 -1.1666
   54CHL1    O3 3925   6.144   5.579   7.069  0.0538  0.0443 -0.5520
   54CHL1   H3' 3926   6.052   5.575   7.041  0.3821 -0.4703 -1.5704
   54CHL1    C4 3927   6.275   5.591   7.280  0.0475  0.5546 -0.7888
   54CHL1   H4A 3928   6.313   5.492   7.249 -2.4033 -1.1305  1.1756
   54CHL1   H4B 3929   6.335   5.675   7.241  1.2604  0.0619 -0.0274
   54CHL1    C5 3930   6.275   5.591   7.436 -0.1242 -0.0379 -0.2856
   54CHL1    C6 3931   6.362   5.664   7.509 -1.0957 -0.4305  0.4024
   54CHL1    H6 3932   6.438   5.726   7.459  0.8132 -1.9496  1.2894
   54CHL1    C7 3933   6.363   5.669   7.654 -0.5097 -0.6251  0.3203
   54CHL1   H7A 3934   6.468   5.658   7.687 -0.3608 -0.8455 -0.2264
   54CHL1   H7B 3935   6.337   5.774   7.682  2.6754  0.3778 -0.0647
   54CHL1    C8 3936   6.262   5.577   7.718 -0.2644  0.2371  0.1052
   54CHL1    H8 3937   6.308   5.476   7.720 -0.8823 -0.0409  0.8880
   54CHL1   C14 3938   6.241   5.624   7.857  0.4053 -0.1055  0.1777
   54CHL1   H14 3939   6.191   5.723   7.848  1.2315  0.4516  1.4080
   54CHL1   C15 3940   6.364   5.651   7.939  0.1563 -0.1504 -0.0973
   54CHL1  H15A 3941   6.442   5.577   7.910 -2.2119 -2.4755 -0.9346
   54CHL1  H15B 3942   6.393   5.752   7.902 -0.8755 -0.4551 -1.8320
   54CHL1   C16 3943   6.310   5.650   8.081 -0.3222  0.8207  0.4882
   54CHL1  H16A 3944   6.356   5.561   8.130 -1.1707  1.8216  3.3014
   54CHL1  H16B 3945   6.332   5.742   8.139 -1.6245  1.7188 -0.3942
   54CHL1   C17 3946   6.158   5.614   8.075 -1.1978 -0.4075  0.1412
   54CHL1   H17 3947   6.114   5.714   8.055 -0.1662 -0.0967 -0.6614
   54CHL1   C13 3948   6.152   5.534   7.938  0.0206 -0.6839  0.0576
   54CHL1   C18 3949   6.210   5.397   7.960 -0.8772  0.1651 -0.7213
   54CHL1  H18A 3950   6.313   5.401   8.001 -1.5371 -0.5606  1.1336
   54CHL1  H18B 3951   6.152   5.346   8.040 -0.2860 -0.1988 -0.5185
   54CHL1  H18C 3952   6.205   5.339   7.865  2.0893 -0.1417 -0.7825
   54CHL1   C12 3953   6.016   5.524   7.871  0.6611 -0.2294  0.3868
   54CHL1  H12A 3954   5.947   5.451   7.919 -1.7722  0.5953 -1.6270
   54CHL1  H12B 3955   5.953   5.614   7.888 -1.5918 -1.9632  1.8719
   54CHL1   C11 3956   6.030   5.487   7.720 -0.1941 -0.0068  0.1979
   54CHL1  H11A 3957   6.060   5.380   7.725 -1.2854 -0.3482 -0.1532
   54CHL1  H11B 3958   5.931   5.478   7.671 -0.0168 -0.5598 -0.0749
   54CHL1    C9 3959   6.128   5.571   7.641 -0.2198  0.1049 -0.4887
   54CHL1    H9 3960   6.077   5.670   7.637 -1.2597 -0.3904  0.2464
   54CHL1   C10 3961   6.149   5.521   7.494 -0.3322 -0.5071 -0.2162
   54CHL1   C19 3962   6.179   5.368   7.499 -0.2036  0.2416  0.1034
   54CHL1  H19A 3963   6.196   5.328   7.397  1.0165  3.2107 -0.9676
   54CHL1  H19B 3964   6.274   5.347   7.553 -0.2279 -0.1585 -0.0025
   54CHL1  H19C 3965   6.100   5.294   7.525 -0.4838  0.5064  0.0052
   54CHL1    C1 3966   6.021   5.547   7.411 -0.4539 -0.1666 -0.5011
   54CHL1   H1A 3967   5.956   5.464   7.446  0.0873 -0.4288 -0.0999
   54CHL1   H1B 3968   5.970   5.645   7.424  0.9714  0.7241 -1.3189
   54CHL1    C2 3969   6.032   5.525   7.261 -0.2949  0.3454  0.0905
   54CHL1   H2A 3970   5.929   5.550   7.227 -0.1262 -0.3666 -0.9900
   54CHL1   H2B 3971   6.045   5.416   7.247 -1.2289  0.4048 -1.5423
   54CHL1   C20 3972   6.104   5.558   8.209 -0.0422 -0.2477  0.4984
   54CHL1   H20 3973   6.160   5.472   8.250  0.3868  0.5116  1.5281
   54CHL1   C21 3974   5.954   5.513   8.189 -0.1226  0.2095 -0.0656
   54CHL1  H21A 3975   5.948   5.420   8.128  0.2468 -0.7496  1.3238
   54CHL1  H21B 3976   5.905   5.602   8.144 -0.9383 -0.2115 -0.0387
   54CHL1  H21C 3977   5.910   5.477   8.285  0.6882  1.1004  0.6452
   54CHL1   C22 3978   6.109   5.675   8.314  0.6505 -0.2736 -0.2782
   54CHL1  H22A 3979   6.211   5.718   8.323  0.6917 -0.6087  1.0811
   54CHL1  H22B 3980   6.037   5.753   8.283 -0.1430 -1.4620 -1.5440
   54CHL1   C23 3981   6.079   5.631   8.457  0.4342  1.1214  0.3193
   54CHL1  H23A 3982   5.978   5.586   8.461  0.0122  1.8473 -1.3633
   54CHL1  H23B 3983   6.148   5.548   8.486  0.6163  1.7070  1.6071
   54CHL1   C24 3984   6.093   5.738   8.573  0.2658  0.2128 -0.3407
   54CHL1  H24A 3985   6.201   5.761   8.587  0.0767  2.3019 -1.8828
   54CHL1  H24B 3986   6.049   5.839   8.560  0.0928  0.3448  1.0502
   54CHL1   C25 3987   6.014   5.684   8.692 -0.3234 -0.3781 -0.0792
   54CHL1   H25 3988   5.990   5.576   8.684 -3.2974  0.1546  0.6932
   54CHL1   C26 3989   6.066   5.716   8.829  0.3519  0.0428 -0.0174
   54CHL1  H26A 3990   6.151   5.645   8.844  1.1792  1.1982  0.9638
   54CHL1  H26B 3991   6.113   5.813   8.858 -0.0477  0.7574 -1.6352
   54CHL1  H26C 3992   5.985   5.701   8.903  0.1030 -1.2068 -0.5138
   54CHL1   C27 3993   5.870   5.745   8.677  0.2234  0.4459  0.7175
   54CHL1  H27A 3994   5.833   5.713   8.578 -1.7708  2.2977  0.7652
   54CHL1  H27B 3995   5.799   5.710   8.756  0.0272 -2.2192 -0.5356
   54CHL1  H27C 3996   5.866   5.855   8.662 -1.2799  0.3629  0.3707
   55CHL1    C3 3997   5.135   0.551   7.105 -0.8170  0.6403  0.7616
   55CHL1    H3 3998   5.096   0.447   7.104 -0.4909  0.5057 -0.8796
   55CHL1    O3 3999   5.135   0.588   6.970  0.3678  0.1871 -0.0291
   55CHL1   H3' 4000   5.198   0.528   6.928  0.8930  1.5368 -1.2274
   55CHL1    C4 4001   5.052   0.651   7.180  0.1125  0.4607  0.7327
   55CHL1   H4A 4002   5.060   0.756   7.145 -1.1352  0.7317  1.2295
   55CHL1   H4B 4003   4.949   0.622   7.150  0.9561 -0.6253 -1.2939
   55CHL1    C5 4004   5.069   0.645   7.335 -0.0144 -0.7477  0.6326
   55CHL1    C6 4005   4.965   0.625   7.414 -0.6640 -0.5279  0.7194
   55CHL1    H6 4006   4.861   0.627   7.376 -0.3322  3.0459 -0.4631
   55CHL1    C7 4007   4.982   0.628   7.561  0.0151  0.5820 -0.3379
   55CHL1   H7A 4008   4.903   0.695   7.604  0.7660  0.5199  1.2042
   55CHL1   H7B 4009   4.959   0.530   7.608  4.3349 -0.2377  0.4088
   55CHL1    C8 4010   5.115   0.683   7.605 -0.4979 -0.7343  0.1028
   55CHL1    H8 4011   5.113   0.792   7.581  0.1025 -0.6013  0.6344
   55CHL1   C14 4012   5.143   0.670   7.758 -0.1223 -0.1047 -0.6869
   55CHL1   H14 4013   5.142   0.560   7.774 -0.7153 -0.1158 -0.7922
   55CHL1   C15 4014   5.040   0.722   7.861  0.1429  0.0084 -0.2052
   55CHL1  H15A 4015   5.016   0.826   7.832  1.3782  0.3665 -0.0259
   55CHL1  H15B 4016   4.941   0.673   7.863 -0.4008  1.0201 -1.2936
   55CHL1   C16 4017   5.114   0.726   7.994 -0.4827 -0.3915 -0.2196
   55CHL1  H16A 4018   5.119   0.831   8.030 -1.7322 -0.2377 -0.4435
   55CHL1  H16B 4019   5.061   0.661   8.067 -0.0664 -0.1219  0.3246
   55CHL1   C17 4020   5.262   0.685   7.967  0.5032 -0.6362 -0.6525
   55CHL1   H17 4021   5.269   0.575   7.978  0.2318 -0.5174  1.0762
   55CHL1   C13 4022   5.275   0.723   7.816 -0.2521 -0.1440 -0.2890
   55CHL1   C18 4023   5.275   0.882   7.803 -0.3178  0.3776 -0.4579
   55CHL1  H18A 4024   5.379   0.919   7.787  0.2900 -1.1577 -0.2964
   55CHL1  H18B 4025   5.209   0.920   7.722  0.3819  0.4183 -1.0219
   55CHL1  H18C 4026   5.250   0.932   7.898  1.7791 -1.6129  1.2565
   55CHL1   C12 4027   5.385   0.654   7.735 -0.2549  0.6870 -0.2048
   55CHL1  H12A 4028   5.489   0.679   7.766  0.8150 -3.0609 -0.2378
   55CHL1  H12B 4029   5.380   0.544   7.753  1.3899  0.8452  1.4858
   55CHL1   C11 4030   5.369   0.682   7.590 -0.6401 -0.0830 -0.8153
   55CHL1  H11A 4031   5.387   0.791   7.577  2.9581 -0.5436 -0.7643
   55CHL1  H11B 4032   5.454   0.640   7.532 -1.0343  0.0883 -1.5285
   55CHL1    C9 4033   5.237   0.633   7.525  0.2120 -0.1760 -0.0376
   55CHL1    H9 4034   5.239   0.522   7.532 -2.6660 -0.3111 -0.1925
   55CHL1   C10 4035   5.212   0.668   7.382 -0.1920 -0.2679  0.8853
   55CHL1   C19 4036   5.265   0.806   7.354 -0.2198 -0.4270  0.0143
   55CHL1  H19A 4037   5.245   0.841   7.251  0.2168 -2.1763 -0.7022
   55CHL1  H19B 4038   5.229   0.874   7.435 -0.1367 -1.5447  1.0101
   55CHL1  H19C 4039   5.376   0.806   7.369 -0.3684 -0.8837  1.2056
   55CHL1    C1 4040   5.293   0.562   7.301  0.1810  0.5060  0.1140
   55CHL1   H1A 4041   5.397   0.580   7.333  1.2877 -0.7252 -2.5104
   55CHL1   H1B 4042   5.264   0.460   7.335  1.8364  0.3735  1.2058
   55CHL1    C2 4043   5.280   0.556   7.151  0.6595 -0.1491 -0.2705
   55CHL1   H2A 4044   5.341   0.475   7.107  1.2329 -1.0372  2.0045
   55CHL1   H2B 4045   5.326   0.643   7.099  0.6005  0.8688  1.3114
   55CHL1   C20 4046   5.359   0.741   8.077  0.2216  0.2951  0.0597
   55CHL1   H20 4047   5.332   0.844   8.109 -1.8752 -0.7853  2.0280
   55CHL1   C21 4048   5.509   0.738   8.027  0.5438 -0.3062  0.5254
   55CHL1  H21A 4049   5.540   0.635   7.998 -2.3141 -1.2146  0.4058
   55CHL1  H21B 4050   5.575   0.775   8.108  1.0794  1.9413 -0.8697
   55CHL1  H21C 4051   5.519   0.819   7.952  1.0671  0.6455  1.5986
   55CHL1   C22 4052   5.343   0.661   8.208  0.3553 -0.0934  0.3526
   55CHL1  H22A 4053   5.233   0.654   8.222 -0.1691  1.2472 -2.3485
   55CHL1  H22B 4054   5.386   0.561   8.183 -0.1206 -0.1183 -0.4302
   55CHL1   C23 4055   5.414   0.725   8.326  0.6669  0.1644 -0.1041
   55CHL1  H23A 4056   5.523   0.719   8.310  0.6602 -1.5431  0.3375
   55CHL1  H23B 4057   5.365   0.824   8.344 -2.3333 -1.0997 -0.7257
   55CHL1   C24 4058   5.387   0.635   8.448 -0.5526  0.5357  0.1854
   55CHL1  H24A 4059   5.277   0.617   8.441 -0.0897 -1.8734 -3.0446
   55CHL1  H24B 4060   5.432   0.533   8.439 -1.3929  0.3297 -2.2658
   55CHL1   C25 4061   5.422   0.691   8.587  0.5389  0.2659 -0.1654
   55CHL1   H25 4062   5.355   0.779   8.596  1.4551  0.8770  0.9889
   55CHL1   C26 4063   5.379   0.586   8.688  0.0532 -0.5593  0.3709
   55CHL1  H26A 4064   5.462   0.516   8.712  0.5648  0.7280  2.6617
   55CHL1  H26B 4065   5.348   0.636   8.782  2.4491 -0.7949  1.3691
   55CHL1  H26C 4066   5.290   0.530   8.652  0.7866 -0.1592 -2.2785
   55CHL1   C27 4067   5.564   0.733   8.595  0.2230 -0.3892 -0.8189
   55CHL1  H27A 4068   5.586   0.827   8.539  0.1293  0.9266  1.2660
   55CHL1  H27B 4069   5.586   0.743   8.703 -2.7634  1.8637 -0.2739
   55CHL1  H27C 4070   5.633   0.671   8.534  0.5053  0.1761 -1.0805
   56CHL1    C3 4071   5.816   6.500   7.003  0.5996 -0.4348 -0.7962
   56CHL1    H3 4072   5.742   6.416   7.004  0.2478 -0.1515  1.2477
   56CHL1    O3 4073   5.857   6.527   6.869 -0.6523 -0.2430 -0.2025
   56CHL1   H3' 4074   5.928   6.592   6.873  0.7511 -1.7822  0.9211
   56CHL1    C4 4075   5.762   6.633   7.069  0.6416  0.1776 -0.6213
   56CHL1   H4A 4076   5.838   6.713   7.060 -1.1019  2.2879  1.8335
   56CHL1   H4B 4077   5.680   6.677   7.008  1.1651  2.3437  0.1814
   56CHL1    C5 4078   5.724   6.620   7.216  0.0592 -0.1342  0.1903
   56CHL1    C6 4079   5.605   6.664   7.270 -0.2953 -0.0520 -0.0512
   56CHL1    H6 4080   5.531   6.715   7.206 -1.5224  1.4722  2.4610
   56CHL1    C7 4081   5.570   6.677   7.413 -0.0310 -0.1870 -0.0769
   56CHL1   H7A 4082   5.550   6.783   7.439  1.4971  0.8593 -2.7069
   56CHL1   H7B 4083   5.483   6.613   7.442 -0.4656  0.4061 -0.0629
   56CHL1    C8 4084   5.692   6.637   7.512  0.8098 -0.4971  0.1483
   56CHL1    H8 4085   5.753   6.729   7.520  1.0254 -0.5316 -0.9488
   56CHL1   C14 4086   5.630   6.593   7.637 -1.2495 -0.6212  0.5048
   56CHL1   H14 4087   5.569   6.503   7.613  0.9926 -2.0758 -0.0755
   56CHL1   C15 4088   5.528   6.690   7.700 -0.1542 -0.0871  0.0776
   56CHL1  H15A 4089   5.572   6.791   7.703  1.0349 -0.6082  1.9568
   56CHL1  H15B 4090   5.436   6.697   7.637  1.2752 -0.9296 -2.2096
   56CHL1   C16 4091   5.518   6.648   7.842 -0.0297  0.2704  0.4527
   56CHL1  H16A 4092   5.548   6.741   7.896  0.8547 -0.0298  0.4951
   56CHL1  H16B 4093   5.420   6.611   7.880  0.3788 -0.1934  1.0811
   56CHL1   C17 4094   5.625   6.538   7.863  0.2613 -0.1401 -0.3255
   56CHL1   H17 4095   5.582   6.436   7.854  0.7192 -0.7029  2.6452
   56CHL1   C13 4096   5.725   6.552   7.743  0.2343 -0.3435 -0.1726
   56CHL1   C18 4097   5.826   6.669   7.773 -1.5740  0.3327  0.4560
   56CHL1  H18A 4098   5.778   6.761   7.812 -0.3252  0.8853  0.7270
   56CHL1  H18B 4099   5.884   6.634   7.861 -3.4882  0.6352  1.9366
   56CHL1  H18C 4100   5.894   6.691   7.689 -0.2443 -0.5557  1.2638
   56CHL1   C12 4101   5.795   6.428   7.685  0.9912  0.8313  0.0724
   56CHL1  H12A 4102   5.877   6.405   7.757 -1.1656  0.5766  2.6222
   56CHL1  H12B 4103   5.726   6.341   7.683 -1.1650  2.3779  1.8046
   56CHL1   C11 4104   5.870   6.462   7.557 -0.7032 -0.5232  0.2605
   56CHL1  H11A 4105   5.946   6.539   7.582 -0.0249 -1.5381  1.3678
   56CHL1  H11B 4106   5.918   6.369   7.518 -0.5061  0.6323 -2.5338
   56CHL1    C9 4107   5.775   6.526   7.448  0.2870  1.5098 -0.1924
   56CHL1    H9 4108   5.702   6.442   7.440 -0.6046  2.1130  1.1811
   56CHL1   C10 4109   5.831   6.556   7.305  0.3081  0.2982  0.1773
   56CHL1   C19 4110   5.938   6.665   7.326 -0.0182 -0.4592  0.3218
   56CHL1  H19A 4111   5.998   6.687   7.235 -1.3436  0.2918 -0.4165
   56CHL1  H19B 4112   5.886   6.759   7.356 -3.1288 -2.1792  0.7488
   56CHL1  H19C 4113   6.003   6.626   7.406 -1.3408  1.4408  2.4779
   56CHL1    C1 4114   5.880   6.426   7.233  0.1778 -0.0640 -0.8921
   56CHL1   H1A 4115   5.971   6.389   7.285 -0.3151 -2.8215 -1.8350
   56CHL1   H1B 4116   5.798   6.352   7.243  1.7111 -1.5787  1.5510
   56CHL1    C2 4117   5.927   6.444   7.086  0.5524  0.1396 -0.6840
   56CHL1   H2A 4118   5.963   6.350   7.038  2.1166  0.5977 -0.4818
   56CHL1   H2B 4119   6.012   6.515   7.098 -0.0969  1.0295 -1.2361
   56CHL1   C20 4120   5.694   6.536   8.001  0.1196  0.6564  0.5065
   56CHL1   H20 4121   5.765   6.620   8.018  0.9157 -0.3114  2.2926
   56CHL1   C21 4122   5.781   6.399   8.010  0.3736 -0.9509  0.4226
   56CHL1  H21A 4123   5.733   6.305   7.974  0.3267 -1.0920  0.8438
   56CHL1  H21B 4124   5.814   6.397   8.116 -1.0669 -0.9220  0.8994
   56CHL1  H21C 4125   5.867   6.413   7.941 -1.5064  0.0718 -1.8689
   56CHL1   C22 4126   5.591   6.524   8.113 -0.2098 -0.6569 -0.1152
   56CHL1  H22A 4127   5.524   6.613   8.121 -2.5894 -2.5005  1.9735
   56CHL1  H22B 4128   5.523   6.439   8.088 -1.1001  0.5030 -1.8842
   56CHL1   C23 4129   5.647   6.506   8.260  0.0954 -0.1731 -0.1547
   56CHL1  H23A 4130   5.680   6.402   8.284 -1.9008 -0.5431  1.2445
   56CHL1  H23B 4131   5.729   6.578   8.277 -0.2562  0.1191  0.3267
   56CHL1   C24 4132   5.547   6.537   8.374  0.4847 -0.4398  0.7150
   56CHL1  H24A 4133   5.486   6.628   8.352  1.8713  0.1773 -0.7363
   56CHL1  H24B 4134   5.472   6.455   8.372  0.2173 -0.1876 -0.0641
   56CHL1   C25 4135   5.605   6.545   8.511  0.1010 -0.6260  0.4430
   56CHL1   H25 4136   5.707   6.590   8.506  0.5986 -1.8556 -1.6088
   56CHL1   C26 4137   5.521   6.635   8.607 -0.8279 -0.5078  0.2709
   56CHL1  H26A 4138   5.424   6.583   8.598 -0.5144 -1.8305  3.2707
   56CHL1  H26B 4139   5.511   6.744   8.587  1.2235 -0.3792 -0.3926
   56CHL1  H26C 4140   5.563   6.639   8.710  0.3208  0.6770 -0.2058
   56CHL1   C27 4141   5.622   6.405   8.572 -0.4984 -0.1202  0.8506
   56CHL1  H27A 4142   5.681   6.341   8.503 -0.3846  0.5164  0.3441
   56CHL1  H27B 4143   5.686   6.408   8.663 -1.6145 -1.0388  1.6947
   56CHL1  H27C 4144   5.521   6.376   8.607 -0.6273 -0.1779  0.4383
   57SAPC     N 4145   5.279   2.236  10.920 -0.3233  0.1291 -0.1350
   57SAPC   C12 4146   5.311   2.264  10.778 -0.2604  0.5634 -0.0908
   57SAPC  H12A 4147   5.297   2.370  10.761  1.8460  0.4978 -2.7839
   57SAPC  H12B 4148   5.236   2.211  10.721 -0.5920  0.2694  0.6025
   57SAPC   C13 4149   5.144   2.300  10.944 -0.3243 -0.1378  0.0850
   57SAPC  H13A 4150   5.097   2.259  11.033 -1.1648  1.3798  0.3781
   57SAPC  H13B 4151   5.162   2.405  10.956 -0.0948 -0.2701  0.9165
   57SAPC  H13C 4152   5.076   2.284  10.861  1.2599 -0.9020 -1.1057
   57SAPC   C14 4153   5.259   2.086  10.934 -0.2299  0.0376 -0.5041
   57SAPC  H14A 4154   5.228   2.061  11.034  1.3131 -0.6917 -0.1803
   57SAPC  H14B 4155   5.190   2.036  10.867 -0.3465 -0.7579  0.1950
   57SAPC  H14C 4156   5.354   2.042  10.906  0.2822  1.7336 -1.5311
   57SAPC   C15 4157   5.376   2.286  11.024 -0.1609 -0.6669 -0.1843
   57SAPC  H15A 4158   5.388   2.392  11.008  0.7260 -1.1458 -3.1068
   57SAPC  H15B 4159   5.342   2.256  11.122  1.0040  0.9912  0.7930
   57SAPC  H15C 4160   5.472   2.246  10.996 -0.0097  0.9744 -2.1733
   57SAPC   C11 4161   5.456   2.227  10.742 -0.5755 -0.0944  0.1655
   57SAPC  H11A 4162   5.525   2.299  10.792 -0.4144 -0.4041  0.3939
   57SAPC  H11B 4163   5.480   2.241  10.635  0.5976 -1.3500  0.2343
   57SAPC     P 4164   5.497   1.957  10.686  0.0602 -0.3852  0.4236
   57SAPC   O13 4165   5.619   1.879  10.722  0.6598  0.1550 -0.3116
   57SAPC   O14 4166   5.364   1.887  10.667 -0.0908 -0.8287 -0.2195
   57SAPC   O12 4167   5.496   2.092  10.780 -0.2325  0.0410  0.1674
   57SAPC   O11 4168   5.531   2.033  10.543 -0.2935  0.3797 -0.6704
   57SAPC    C1 4169   5.669   2.067  10.518 -0.0485 -0.1289  0.3030
   57SAPC    HA 4170   5.711   2.128  10.601  0.8964  0.6848 -0.7401
   57SAPC    HB 4171   5.729   1.973  10.515 -0.5254 -0.4943  1.5633
   57SAPC    C2 4172   5.680   2.134  10.381  0.1809 -0.8686  0.5951
   57SAPC    HS 4173   5.595   2.206  10.372 -0.9177 -2.1732  0.1712
   57SAPC   O21 4174   5.685   2.042  10.271  0.1512  0.3373  0.6199
   57SAPC   C21 4175   5.620   2.063  10.155 -0.2825  0.1872 -0.4191
   57SAPC   O22 4176   5.538   2.155  10.140 -0.4131  0.7247  0.1337
   57SAPC   C22 4177   5.647   1.948  10.057 -0.4666 -0.3558  0.1006
   57SAPC   H2R 4178   5.739   1.891  10.082 -1.0672 -1.4815 -0.1781
   57SAPC   H2S 4179   5.564   1.879  10.081 -3.1094  2.8695  1.0051
   57SAPC    C3 4180   5.813   2.221  10.374 -0.1558 -0.1949 -0.0167
   57SAPC    HX 4181   5.901   2.160  10.406  0.0636 -0.9511 -1.9419
   57SAPC    HY 4182   5.798   2.298  10.452 -1.7485 -0.8579  0.3793
   57SAPC   O31 4183   5.843   2.274  10.239  0.2349  0.1874  0.5572
   57SAPC   C31 4184   5.810   2.403  10.206  0.2655  0.6927  0.3465
   57SAPC   O32 4185   5.744   2.474  10.278 -0.1018  0.5719 -0.0619
   57SAPC   C32 4186   5.837   2.439  10.063  0.5329 -0.4403 -0.5646
   57SAPC   H2X 4187   5.840   2.351   9.996 -2.7998  0.4757 -2.1094
   57SAPC   H2Y 4188   5.934   2.494  10.065 -0.6467  1.7703  0.0591
   57SAPC   C23 4189   5.634   1.985   9.908 -0.1580 -0.3621  0.4934
   57SAPC   H3R 4190   5.550   2.058   9.901 -1.0806 -1.1706  2.3532
   57SAPC   H3S 4191   5.608   1.893   9.850  0.8019  0.4453 -1.2718
   57SAPC   C24 4192   5.759   2.044   9.841  0.4715  0.4397 -0.8671
   57SAPC   H4R 4193   5.844   1.977   9.867 -0.8383 -0.9045  0.1155
   57SAPC   H4S 4194   5.790   2.143   9.881 -1.4482  1.0236 -0.7250
   57SAPC   C25 4195   5.744   2.061   9.695  0.1096  0.2464  0.3842
   57SAPC   H5R 4196   5.671   2.140   9.672  0.9778  1.0599  0.3587
   57SAPC   C26 4197   5.811   2.002   9.591 -0.0034  0.0467 -0.2042
   57SAPC   H6R 4198   5.787   2.035   9.489 -2.9575 -0.2818  0.2926
   57SAPC   C27 4199   5.921   1.895   9.609 -0.0111  0.5724 -0.1572
   57SAPC   H7R 4200   5.863   1.803   9.633 -0.1579  0.3023 -1.4855
   57SAPC   H7S 4201   5.986   1.911   9.698  1.5327 -1.6720 -0.7893
   57SAPC   C28 4202   6.001   1.846   9.490 -0.1505 -0.3902  0.4331
   57SAPC   H8R 4203   6.103   1.888   9.488  0.3653 -1.4231  2.4251
   57SAPC   C29 4204   5.966   1.768   9.389  0.3370 -0.4260  0.0833
   57SAPC   H9R 4205   6.038   1.753   9.308 -0.3512  2.5919 -1.2401
   57SAPC  C210 4206   5.831   1.701   9.365  0.4894  0.3696  0.5039
   57SAPC  H10R 4207   5.791   1.734   9.267  0.3074  3.4626  1.5122
   57SAPC  H10S 4208   5.750   1.727   9.436 -1.5132  0.7951 -1.8276
   57SAPC  C211 4209   5.843   1.552   9.375  0.2099 -0.6444  0.2376
   57SAPC  H11R 4210   5.842   1.512   9.478 -1.9300  0.3886  0.6724
   57SAPC  C212 4211   5.882   1.475   9.268  0.8188 -0.6181 -0.9251
   57SAPC  H12R 4212   5.882   1.366   9.283 -1.1843 -0.4808  0.3475
   57SAPC  C213 4213   5.926   1.531   9.138  0.0974  0.2339  0.3413
   57SAPC  H13R 4214   6.033   1.510   9.116 -0.0967 -1.9828  1.3291
   57SAPC  H13S 4215   5.921   1.642   9.132  1.0559  0.2545 -0.2634
   57SAPC  C214 4216   5.839   1.464   9.030  0.1276 -0.5804 -0.5034
   57SAPC  H14R 4217   5.745   1.421   9.067 -1.5600  1.2282 -2.4601
   57SAPC  C215 4218   5.863   1.450   8.901 -0.5555  0.4450  0.6319
   57SAPC  H15R 4219   5.795   1.377   8.853 -0.9189 -0.2356  2.1223
   57SAPC  C216 4220   5.981   1.498   8.831  0.9519  0.4627  0.1401
   57SAPC  H16R 4221   6.043   1.410   8.803 -0.1959 -0.2085 -0.3848
   57SAPC  H16S 4222   6.055   1.564   8.881  0.6097  1.8738 -1.1507
   57SAPC  C217 4223   5.931   1.559   8.700 -0.1710 -0.9056  0.7691
   57SAPC  H17R 4224   6.014   1.623   8.664 -1.4284  0.1672 -0.3359
   57SAPC  H17S 4225   5.844   1.627   8.712 -0.3975 -0.7726 -1.2513
   57SAPC  C218 4226   5.900   1.457   8.584  0.2651 -0.6657 -0.0641
   57SAPC  H18R 4227   5.816   1.387   8.600 -0.9949  0.7252 -0.3449
   57SAPC  H18S 4228   5.990   1.393   8.575  0.8343  0.2579 -1.1982
   57SAPC  C219 4229   5.872   1.528   8.451 -0.4615  0.1132 -0.1985
   57SAPC  H19R 4230   5.880   1.459   8.365 -1.9081 -1.8869  1.1564
   57SAPC  H19S 4231   5.947   1.610   8.448 -0.9332  0.5265 -1.6047
   57SAPC  C220 4232   5.737   1.594   8.437 -0.5210  0.0413 -0.2482
   57SAPC  H20R 4233   5.656   1.522   8.461  0.4496 -1.7286 -2.0025
   57SAPC  H20S 4234   5.709   1.638   8.339  2.0250  0.3913 -0.8793
   57SAPC  H20T 4235   5.726   1.668   8.519  0.7206 -0.3296  0.2711
   57SAPC   C33 4236   5.745   2.539   9.996  0.1570 -0.3156  0.1610
   57SAPC   H3X 4237   5.741   2.628  10.062 -1.2018 -0.6246  0.5330
   57SAPC   H3Y 4238   5.643   2.501   9.976 -0.1851  0.4195  0.4904
   57SAPC   C34 4239   5.788   2.574   9.854 -0.0468  0.3078  0.1915
   57SAPC   H4X 4240   5.898   2.572   9.837 -0.4219  1.9970 -3.1430
   57SAPC   H4Y 4241   5.753   2.677   9.835 -1.8435 -0.2048  0.4504
   57SAPC   C35 4242   5.729   2.478   9.749  0.2502 -0.2634  0.4842
   57SAPC   H5X 4243   5.623   2.461   9.778 -0.4122 -2.2756 -2.6388
   57SAPC   H5Y 4244   5.774   2.376   9.749 -1.9779 -1.3153 -0.5860
   57SAPC   C36 4245   5.740   2.524   9.601  0.5996  0.4960  0.7114
   57SAPC   H6X 4246   5.847   2.529   9.571 -0.1179 -0.1969 -2.2901
   57SAPC   H6Y 4247   5.709   2.628   9.581  1.6082  0.6073 -0.3914
   57SAPC   C37 4248   5.660   2.426   9.514  0.0751  0.6955  0.3840
   57SAPC   H7X 4249   5.551   2.428   9.536  0.2292  1.6332  1.1667
   57SAPC   H7Y 4250   5.702   2.325   9.532 -0.0610 -0.0726 -3.0302
   57SAPC   C38 4251   5.680   2.451   9.369 -0.3826 -0.8074  0.2431
   57SAPC   H8X 4252   5.776   2.412   9.329  0.5334 -1.0267  2.5109
   57SAPC   H8Y 4253   5.669   2.561   9.360 -0.5642 -0.8095  0.4411
   57SAPC   C39 4254   5.574   2.384   9.282  0.0714 -0.4018  0.5511
   57SAPC   H9X 4255   5.479   2.397   9.338 -0.5296  2.1471 -0.8948
   57SAPC   H9Y 4256   5.603   2.278   9.271  0.7572 -0.5140  2.9390
   57SAPC  C310 4257   5.552   2.443   9.141  1.1538 -0.1142  0.0655
   57SAPC  H10X 4258   5.648   2.487   9.104  1.3731 -2.2252 -2.0768
   57SAPC  H10Y 4259   5.473   2.519   9.126 -0.2001 -1.4314  0.3639
   57SAPC  C311 4260   5.491   2.337   9.040  0.0346 -0.0233  0.0747
   57SAPC  H11X 4261   5.391   2.303   9.077 -0.7653  1.8527 -0.2781
   57SAPC  H11Y 4262   5.559   2.249   9.050  0.7939  0.4254 -1.0781
   57SAPC  C312 4263   5.481   2.390   8.897  0.6022 -0.5235  1.0977
   57SAPC  H12X 4264   5.584   2.385   8.855 -0.2463  0.9641 -1.3696
   57SAPC  H12Y 4265   5.442   2.494   8.888  1.5306 -0.2117  0.5448
   57SAPC  C313 4266   5.379   2.311   8.806  0.2305 -0.2531  0.1328
   57SAPC  H13X 4267   5.367   2.356   8.704  0.1517  1.5460  0.8901
   57SAPC  H13Y 4268   5.279   2.316   8.854  0.2194 -0.3621  0.1212
   57SAPC  C314 4269   5.397   2.166   8.795 -0.1713  0.2513  0.3141
   57SAPC  H14X 4270   5.399   2.135   8.901 -3.9301  0.6037  0.5992
   57SAPC  H14Y 4271   5.495   2.142   8.747  0.0087 -2.8760  1.9563
   57SAPC  C315 4272   5.273   2.087   8.743  0.1152  0.4584  0.1711
   57SAPC  H15X 4273   5.233   2.123   8.646  0.4147  3.1446  0.9657
   57SAPC  H15Y 4274   5.194   2.096   8.820 -1.7327  1.9300 -1.7860
   57SAPC  C316 4275   5.306   1.941   8.730 -0.4857 -0.7768  0.5093
   57SAPC  H16X 4276   5.349   1.915   8.828  1.8088  0.4904 -0.0924
   57SAPC  H16Y 4277   5.385   1.932   8.652 -0.3211 -1.4903  0.7486
   57SAPC  C317 4278   5.185   1.855   8.688  0.2047  0.7045  0.2710
   57SAPC  H17X 4279   5.127   1.844   8.782  0.5525 -0.4479  0.3627
   57SAPC  H17Y 4280   5.224   1.754   8.665 -0.4137  0.3614  0.7086
   57SAPC  C318 4281   5.110   1.906   8.563  0.4547 -0.1036  0.2858
   57SAPC  H18X 4282   5.032   1.837   8.524  1.1051 -1.2278  0.9100
   57SAPC  H18Y 4283   5.179   1.916   8.477  1.4773 -0.9766  0.9811
   57SAPC  H18Z 4284   5.072   2.009   8.579  2.7464  0.4795  2.5453
   58SAPC     N 4285   2.141   6.489  10.661  0.4205 -0.0148 -0.0858
   58SAPC   C12 4286   2.067   6.426  10.544 -0.6483  0.3035 -0.3948
   58SAPC  H12A 4287   2.096   6.322  10.532  0.5099  0.4707  0.7866
   58SAPC  H12B 4288   2.094   6.488  10.459  0.9834  2.2964  1.4565
   58SAPC   C13 4289   2.287   6.452  10.660 -0.0451  0.1611  0.1070
   58SAPC  H13A 4290   2.303   6.345  10.654 -0.6463  0.0730 -0.0075
   58SAPC  H13B 4291   2.335   6.483  10.569  2.4244 -0.6394  1.0428
   58SAPC  H13C 4292   2.335   6.488  10.750 -0.8325 -2.3689  1.6494
   58SAPC   C14 4293   2.117   6.638  10.664 -0.1234 -0.1974 -0.1797
   58SAPC  H14A 4294   2.013   6.657  10.646 -0.0487 -1.8196 -3.0005
   58SAPC  H14B 4295   2.144   6.685  10.758  0.1388  0.3448 -0.5184
   58SAPC  H14C 4296   2.168   6.686  10.582 -0.9114  0.2931 -0.3861
   58SAPC   C15 4297   2.082   6.431  10.789  0.0024  0.2416  0.0547
   58SAPC  H15A 4298   1.977   6.457  10.789  0.3302  1.9544  2.8269
   58SAPC  H15B 4299   2.079   6.323  10.788 -2.5913  0.2180 -1.4597
   58SAPC  H15C 4300   2.122   6.475  10.878  0.7837 -1.7564  0.7473
   58SAPC   C11 4301   1.908   6.434  10.551  0.0912  0.3642 -0.1946
   58SAPC  H11A 4302   1.855   6.390  10.637 -1.3243  2.6775  0.2041
   58SAPC  H11B 4303   1.869   6.379  10.463  0.3686  1.1963 -0.8625
   58SAPC     P 4304   1.724   6.624  10.606 -0.0401  0.3932 -0.0045
   58SAPC   O13 4305   1.620   6.514  10.589 -0.2992 -0.4415  0.4465
   58SAPC   O14 4306   1.730   6.688  10.739 -0.2893  0.2650  0.1575
   58SAPC   O12 4307   1.860   6.570  10.553 -0.2577  0.5718 -0.7600
   58SAPC   O11 4308   1.690   6.738  10.506 -0.9331  0.0644 -0.8399
   58SAPC    C1 4309   1.779   6.832  10.451 -0.2458  0.0981  0.0315
   58SAPC    HA 4310   1.769   6.926  10.509  0.0817 -1.3761  2.6614
   58SAPC    HB 4311   1.886   6.804  10.462 -0.2072  1.0338  2.7176
   58SAPC    C2 4312   1.743   6.855  10.302  0.3776  0.4579  0.4613
   58SAPC    HS 4313   1.633   6.868  10.301  0.0282 -1.9420  0.0590
   58SAPC   O21 4314   1.771   6.727  10.235  0.6434 -0.1551  0.3815
   58SAPC   C21 4315   1.671   6.639  10.226 -0.0147  0.3009 -0.0625
   58SAPC   O22 4316   1.555   6.664  10.248  0.3371  0.6485  0.2425
   58SAPC   C22 4317   1.718   6.515  10.144  0.6789 -0.5477  0.2249
   58SAPC   H2R 4318   1.785   6.452  10.207 -0.2792 -1.7100  0.1146
   58SAPC   H2S 4319   1.624   6.458  10.129 -0.2566  0.9964 -0.0227
   58SAPC    C3 4320   1.825   6.965  10.241  0.1558  1.1171 -0.3294
   58SAPC    HX 4321   1.928   6.932  10.268 -0.6236 -1.0561  0.2187
   58SAPC    HY 4322   1.803   7.049  10.309 -3.9851  0.5130 -0.6660
   58SAPC   O31 4323   1.799   6.983  10.104  0.5723  0.1928  0.0044
   58SAPC   C31 4324   1.894   6.960  10.016  0.5491  0.3481 -0.4564
   58SAPC   O32 4325   2.006   6.918  10.039  0.3799 -0.1938  0.0987
   58SAPC   C32 4326   1.841   6.986   9.868  0.7573 -0.5718 -0.0513
   58SAPC   H2X 4327   1.824   7.095   9.861 -0.0308 -0.6694  0.2842
   58SAPC   H2Y 4328   1.751   6.921   9.869 -0.5827  1.1918 -0.8099
   58SAPC   C23 4329   1.787   6.558  10.019  0.6957 -0.3135 -0.4060
   58SAPC   H3R 4330   1.834   6.465   9.981  1.4319 -0.0773 -0.0942
   58SAPC   H3S 4331   1.874   6.626  10.036  0.4095 -0.0906  0.1664
   58SAPC   C24 4332   1.696   6.622   9.910 -0.0968  0.2181  0.4039
   58SAPC   H4R 4333   1.757   6.646   9.820 -2.0115 -1.7223 -1.5589
   58SAPC   H4S 4334   1.654   6.712   9.960 -2.7500  0.0420 -1.3323
   58SAPC   C25 4335   1.569   6.554   9.874 -0.0407  0.3653 -0.4267
   58SAPC   H5R 4336   1.484   6.571   9.942  0.4566  1.9795 -0.1551
   58SAPC   C26 4337   1.547   6.483   9.765 -1.2993 -0.4758 -0.1842
   58SAPC   H6R 4338   1.447   6.437   9.758 -1.1478 -0.6512 -1.3884
   58SAPC   C27 4339   1.650   6.467   9.652  0.0996  0.6488 -0.2557
   58SAPC   H7R 4340   1.671   6.359   9.638 -0.2121  0.6555 -0.8163
   58SAPC   H7S 4341   1.753   6.497   9.681  0.6601 -0.1926 -1.3016
   58SAPC   C28 4342   1.604   6.525   9.524 -0.6484 -0.6077  0.2708
   58SAPC   H8R 4343   1.591   6.634   9.527  2.3644 -0.1581 -0.0258
   58SAPC   C29 4344   1.595   6.460   9.409 -0.0500 -0.2835 -0.1232
   58SAPC   H9R 4345   1.565   6.522   9.323  0.9552  0.5972  0.1373
   58SAPC  C210 4346   1.618   6.319   9.370 -0.8849  0.1584  0.4407
   58SAPC  H10R 4347   1.523   6.265   9.390 -0.3977 -1.5959 -1.6268
   58SAPC  H10S 4348   1.683   6.267   9.445 -1.7424  2.8883  3.3201
   58SAPC  C211 4349   1.672   6.308   9.231 -0.5513  0.0286  0.4253
   58SAPC  H11R 4350   1.695   6.402   9.179  1.0209  1.4722  3.4908
   58SAPC  C212 4351   1.683   6.187   9.170 -0.0416 -0.1343  0.1189
   58SAPC  H12R 4352   1.726   6.169   9.070  0.4896  1.3113  0.0570
   58SAPC  C213 4353   1.640   6.067   9.247 -1.1586 -0.0616 -0.2411
   58SAPC  H13R 4354   1.534   6.045   9.222 -1.7588  0.4366  1.7349
   58SAPC  H13S 4355   1.641   6.073   9.358  0.2688 -0.9748 -0.1759
   58SAPC  C214 4356   1.731   5.950   9.216 -0.3730  0.0820 -0.7954
   58SAPC  H14R 4357   1.835   5.961   9.250 -0.4158 -0.3126 -0.5326
   58SAPC  C215 4358   1.694   5.833   9.156  0.9384 -0.5796  0.2936
   58SAPC  H15R 4359   1.768   5.753   9.143  0.1518 -1.0562 -1.5918
   58SAPC  C216 4360   1.554   5.810   9.103  0.3290  0.2646 -0.4095
   58SAPC  H16R 4361   1.476   5.863   9.161 -0.3728 -0.8755 -0.2717
   58SAPC  H16S 4362   1.526   5.703   9.117  0.7352  0.2537  0.3370
   58SAPC  C217 4363   1.534   5.826   8.947 -0.2408 -0.0200 -0.1328
   58SAPC  H17R 4364   1.601   5.907   8.912 -0.0368  0.7615  1.9311
   58SAPC  H17S 4365   1.430   5.851   8.919  0.5260  0.8113 -2.4533
   58SAPC  C218 4366   1.582   5.711   8.856 -0.7061 -0.2493 -0.6177
   58SAPC  H18R 4367   1.597   5.623   8.921  0.3335 -0.1964 -0.7644
   58SAPC  H18S 4368   1.681   5.736   8.812  0.8354 -0.0332  2.6756
   58SAPC  C219 4369   1.481   5.660   8.745 -0.0608 -0.1713 -0.6960
   58SAPC  H19R 4370   1.389   5.618   8.791  1.9104 -5.2254 -0.6832
   58SAPC  H19S 4371   1.531   5.581   8.685  1.0590 -0.1593  0.1912
   58SAPC  C220 4372   1.433   5.771   8.657  0.1235  0.3820  0.5030
   58SAPC  H20R 4373   1.363   5.740   8.577 -1.9987  0.8529  2.0689
   58SAPC  H20S 4374   1.519   5.823   8.610  2.2701 -0.6012  3.0651
   58SAPC  H20T 4375   1.370   5.838   8.720 -2.2118  1.3639 -2.6562
   58SAPC   C33 4376   1.931   6.951   9.751 -0.5635  0.9494  0.4622
   58SAPC   H3X 4377   1.955   6.845   9.773  0.0183  0.8168 -0.7654
   58SAPC   H3Y 4378   2.021   7.016   9.742  0.3635 -0.5942 -3.1783
   58SAPC   C34 4379   1.861   6.957   9.614  0.3944 -0.1375  0.5607
   58SAPC   H4X 4380   1.832   7.062   9.590 -2.1548 -0.6417  1.0968
   58SAPC   H4Y 4381   1.761   6.912   9.626 -0.6335  1.3337 -1.7754
   58SAPC   C35 4382   1.935   6.888   9.499 -0.6231  0.2704  0.9000
   58SAPC   H5X 4383   1.968   6.787   9.533 -0.3473 -0.4625 -1.3687
   58SAPC   H5Y 4384   2.015   6.962   9.478 -0.1781 -0.4995 -0.2498
   58SAPC   C36 4385   1.845   6.870   9.373  0.4812 -0.0945 -0.8442
   58SAPC   H6X 4386   1.803   6.971   9.355  1.2647  0.2782 -0.6341
   58SAPC   H6Y 4387   1.767   6.796   9.403 -0.6051  1.5111  0.4378
   58SAPC   C37 4388   1.918   6.828   9.255 -0.0856 -0.8309  0.3735
   58SAPC   H7X 4389   1.943   6.721   9.271 -1.7719 -0.8061  4.8551
   58SAPC   H7Y 4390   2.006   6.895   9.254 -0.6408 -0.0753  0.7920
   58SAPC   C38 4391   1.818   6.843   9.131 -0.4264  0.5398  0.2876
   58SAPC   H8X 4392   1.767   6.942   9.131 -1.1989  0.1653 -0.7921
   58SAPC   H8Y 4393   1.750   6.755   9.132  0.1112  0.1110  1.6043
   58SAPC   C39 4394   1.905   6.833   9.010 -0.1968 -0.0066  0.5061
   58SAPC   H9X 4395   1.960   6.736   9.012  1.6883  1.0225  1.6842
   58SAPC   H9Y 4396   1.992   6.902   9.007 -1.0858  1.1577  0.8435
   58SAPC  C310 4397   1.809   6.843   8.889  0.2850  0.1449 -0.0450
   58SAPC  H10X 4398   1.777   6.949   8.894 -0.1149 -0.0045  0.9317
   58SAPC  H10Y 4399   1.725   6.775   8.912 -1.2330  2.6218  2.4360
   58SAPC  C311 4400   1.882   6.807   8.766  0.0319 -0.7026  0.3997
   58SAPC  H11X 4401   1.915   6.701   8.764  1.1541 -0.3866  1.3396
   58SAPC  H11Y 4402   1.970   6.872   8.750 -0.2810 -0.5884 -0.9820
   58SAPC  C312 4403   1.786   6.818   8.648  0.0696 -0.3203 -0.4723
   58SAPC  H12X 4404   1.755   6.925   8.656 -2.0599 -0.9796  1.0291
   58SAPC  H12Y 4405   1.699   6.754   8.673 -0.9005  0.8721 -0.6957
   58SAPC  C313 4406   1.872   6.796   8.523  0.1641  0.1441  0.0538
   58SAPC  H13X 4407   1.901   6.688   8.516 -0.5063 -0.0009 -0.4803
   58SAPC  H13Y 4408   1.963   6.856   8.545  0.4791 -0.9454  1.9493
   58SAPC  C314 4409   1.795   6.839   8.399  0.4160 -0.5123 -0.0080
   58SAPC  H14X 4410   1.791   6.950   8.395  0.3036 -0.5415 -1.5605
   58SAPC  H14Y 4411   1.698   6.788   8.382  0.8170 -0.8038 -1.6461
   58SAPC  C315 4412   1.878   6.803   8.277 -0.1590  0.6162  0.6947
   58SAPC  H15X 4413   1.890   6.693   8.288 -1.2550  0.3475 -0.5294
   58SAPC  H15Y 4414   1.971   6.862   8.270  0.7620 -0.9554 -2.0563
   58SAPC  C316 4415   1.813   6.823   8.137  0.5801 -1.0207 -0.2518
   58SAPC  H16X 4416   1.890   6.794   8.062 -0.1810 -1.1144 -1.0124
   58SAPC  H16Y 4417   1.789   6.931   8.136  0.6356 -0.8760  2.8634
   58SAPC  C317 4418   1.690   6.742   8.114  0.1207  0.1971  0.4554
   58SAPC  H17X 4419   1.621   6.759   8.200  0.6264  3.4569  0.3564
   58SAPC  H17Y 4420   1.708   6.633   8.111 -1.8197 -0.1533 -0.2235
   58SAPC  C318 4421   1.616   6.785   7.991 -0.0976 -0.0125 -0.0941
   58SAPC  H18X 4422   1.531   6.715   7.975  1.2225 -2.4807  2.6232
   58SAPC  H18Y 4423   1.684   6.782   7.903 -0.2109  0.5413 -0.2025
   58SAPC  H18Z 4424   1.578   6.888   8.004  0.6472  0.5823 -2.1934
   59SAPC     N 4425   3.018   2.514  11.200  0.2630 -0.3170 -0.2223
   59SAPC   C12 4426   2.880   2.458  11.188 -0.2390 -1.1061  0.1827
   59SAPC  H12A 4427   2.822   2.510  11.263 -0.0939  1.0694 -1.1109
   59SAPC  H12B 4428   2.884   2.359  11.229 -1.5373 -1.5786 -0.7400
   59SAPC   C13 4429   3.037   2.644  11.128 -0.0849  0.1044 -0.7864
   59SAPC  H13A 4430   2.971   2.721  11.166 -0.2072 -0.4292  0.1166
   59SAPC  H13B 4431   3.140   2.672  11.144  0.0671  0.0553 -1.6514
   59SAPC  H13C 4432   3.028   2.648  11.021 -1.2333  1.7771 -0.6786
   59SAPC   C14 4433   3.049   2.531  11.346  0.2953 -0.7816 -0.6211
   59SAPC  H14A 4434   3.000   2.619  11.385  0.0277 -1.2476  0.1195
   59SAPC  H14B 4435   3.019   2.452  11.413  2.7600 -0.3978  1.0708
   59SAPC  H14C 4436   3.155   2.543  11.363 -0.0305 -1.6990  2.9002
   59SAPC   C15 4437   3.118   2.407  11.147  0.0271  0.0786 -0.3803
   59SAPC  H15A 4438   3.123   2.394  11.040  1.0467  1.1942 -0.4986
   59SAPC  H15B 4439   3.218   2.443  11.167  0.2590 -0.1434 -1.1325
   59SAPC  H15C 4440   3.113   2.311  11.197  2.2732  0.8719  1.5784
   59SAPC   C11 4441   2.802   2.452  11.053 -0.5761  1.7976 -0.1298
   59SAPC  H11A 4442   2.801   2.555  11.012 -1.2779  1.8198 -0.0750
   59SAPC  H11B 4443   2.696   2.424  11.072 -0.1803 -0.3904 -0.9353
   59SAPC     P 4444   2.845   2.205  10.967  0.0304  0.4808  0.2848
   59SAPC   O13 4445   2.973   2.132  10.938  0.1937 -0.1105  0.6189
   59SAPC   O14 4446   2.797   2.180  11.108  0.4100  0.6244  0.5522
   59SAPC   O12 4447   2.865   2.365  10.959 -0.1538 -0.5672 -0.0243
   59SAPC   O11 4448   2.740   2.167  10.855 -0.0144  0.5250  0.5832
   59SAPC    C1 4449   2.682   2.038  10.846 -0.7152 -0.0343 -0.3783
   59SAPC    HA 4450   2.648   2.001  10.945  0.7562 -0.5051 -0.0262
   59SAPC    HB 4451   2.583   2.040  10.797 -1.5305  0.2257  1.2250
   59SAPC    C2 4452   2.769   1.942  10.764 -0.1123 -0.1336  0.1664
   59SAPC    HS 4453   2.867   1.937  10.816 -1.7006 -0.8429  3.3189
   59SAPC   O21 4454   2.777   1.988  10.633 -0.1626 -0.5536  0.0257
   59SAPC   C21 4455   2.890   1.952  10.572  0.5525 -1.0390  0.6650
   59SAPC   O22 4456   2.988   1.894  10.620  0.0662 -0.5208 -0.0996
   59SAPC   C22 4457   2.877   2.002  10.429  0.4816 -0.7438  0.0651
   59SAPC   H2R 4458   2.799   1.946  10.373 -2.2526  1.4507  1.4312
   59SAPC   H2S 4459   2.843   2.108  10.433  1.2725 -0.2496 -3.2874
   59SAPC    C3 4460   2.717   1.787  10.773 -0.4336 -0.2993  0.4405
   59SAPC    HX 4461   2.616   1.798  10.727  1.0939  1.3848 -2.8558
   59SAPC    HY 4462   2.698   1.754  10.877  1.8765  0.3794  1.1254
   59SAPC   O31 4463   2.800   1.689  10.697 -0.4443 -0.1029  0.8935
   59SAPC   C31 4464   2.727   1.578  10.678 -0.9060 -0.5672 -0.2314
   59SAPC   O32 4465   2.616   1.560  10.722 -0.0496  0.5637 -0.8443
   59SAPC   C32 4466   2.816   1.476  10.605  0.3386  0.1926  0.1084
   59SAPC   H2X 4467   2.750   1.399  10.558  0.8043 -0.5009  0.5837
   59SAPC   H2Y 4468   2.886   1.434  10.681  2.1494 -3.0784 -3.0188
   59SAPC   C23 4469   3.018   2.004  10.370 -0.0572  0.4093 -0.1569
   59SAPC   H3R 4470   3.021   1.999  10.259  1.2822  0.5638 -0.1491
   59SAPC   H3S 4471   3.080   1.915  10.395  1.6232  1.2655 -1.0766
   59SAPC   C24 4472   3.092   2.133  10.409 -0.2872 -0.7294 -0.4931
   59SAPC   H4R 4473   3.201   2.122  10.391 -0.2343  1.0268 -1.4755
   59SAPC   H4S 4474   3.072   2.148  10.517  1.4776 -3.4894  0.3205
   59SAPC   C25 4475   3.052   2.262  10.341  0.4800 -0.9719  0.0603
   59SAPC   H5R 4476   2.997   2.327  10.411  1.9375 -2.0709  2.3469
   59SAPC   C26 4477   3.068   2.302  10.211 -0.1381 -0.3780 -0.7672
   59SAPC   H6R 4478   3.044   2.403  10.176 -0.3856  0.4166  1.4927
   59SAPC   C27 4479   3.132   2.213  10.110 -0.0929  1.0772  0.0086
   59SAPC   H7R 4480   3.199   2.139  10.159 -0.8382  0.4241  0.0572
   59SAPC   H7S 4481   3.204   2.274  10.051  1.6279  1.6376  2.5384
   59SAPC   C28 4482   3.029   2.139  10.028 -0.4329 -0.2701 -0.1858
   59SAPC   H8R 4483   2.930   2.131  10.076 -0.6704 -2.2079 -0.8917
   59SAPC   C29 4484   3.045   2.083   9.909 -0.0485  0.3079 -0.3050
   59SAPC   H9R 4485   2.959   2.034   9.862  1.4384 -2.0089 -0.8037
   59SAPC  C210 4486   3.170   2.077   9.825  0.3621  0.3589  0.4849
   59SAPC  H10R 4487   3.185   1.979   9.774 -1.2009 -0.2649  1.1408
   59SAPC  H10S 4488   3.259   2.092   9.889  0.6563  0.5328  0.0393
   59SAPC  C211 4489   3.171   2.180   9.716  0.4017  0.0437 -0.4221
   59SAPC  H11R 4490   3.250   2.256   9.725  0.2134  0.2309 -0.3545
   59SAPC  C212 4491   3.116   2.173   9.594 -0.1627  0.0005 -0.3581
   59SAPC  H12R 4492   3.121   2.256   9.523  0.7941  0.9704  0.7958
   59SAPC  C213 4493   3.049   2.056   9.541  0.1116  0.0684 -0.0708
   59SAPC  H13R 4494   2.948   2.050   9.588  0.3981  1.1230  0.7035
   59SAPC  H13S 4495   3.104   1.960   9.554  0.0716 -0.1398 -1.3593
   59SAPC  C214 4496   3.026   2.055   9.393  0.2228  0.2097  0.2076
   59SAPC  H14R 4497   2.942   2.123   9.371  0.1137  0.1591  0.4575
   59SAPC  C215 4498   3.089   1.983   9.293  0.1858 -0.1235 -0.3250
   59SAPC  H15R 4499   3.061   1.996   9.187 -1.5013 -2.0494 -0.1741
   59SAPC  C216 4500   3.210   1.888   9.304  0.2675 -0.1071  0.8086
   59SAPC  H16R 4501   3.171   1.786   9.284  1.9275 -1.2931  3.1559
   59SAPC  H16S 4502   3.257   1.893   9.405  2.2817  1.0673 -0.1181
   59SAPC  C217 4503   3.322   1.942   9.207  0.4206 -0.3461 -0.0265
   59SAPC  H17R 4504   3.422   1.915   9.247 -0.4376 -1.5898  1.4061
   59SAPC  H17S 4505   3.326   2.053   9.208 -0.3466 -0.2757 -1.8748
   59SAPC  C218 4506   3.313   1.901   9.060  0.2868  0.0129 -0.3864
   59SAPC  H18R 4507   3.220   1.941   9.013  0.1177  0.5337  0.3687
   59SAPC  H18S 4508   3.304   1.790   9.060  1.2872 -0.0715 -0.7822
   59SAPC  C219 4509   3.439   1.922   8.974 -0.0076 -0.0446  0.0145
   59SAPC  H19R 4510   3.440   1.847   8.892 -0.0532 -0.4044  0.3423
   59SAPC  H19S 4511   3.530   1.925   9.038  0.5063  0.9929 -0.7301
   59SAPC  C220 4512   3.436   2.070   8.914 -0.1183 -0.0427 -0.4129
   59SAPC  H20R 4513   3.428   2.150   8.990 -1.7068 -0.2864 -0.2886
   59SAPC  H20S 4514   3.352   2.081   8.841 -0.8410  1.0256  0.5524
   59SAPC  H20T 4515   3.534   2.089   8.864  0.5605 -2.2800 -0.0437
   59SAPC   C33 4516   2.895   1.538  10.490  0.9566  0.3967  0.2716
   59SAPC   H3X 4517   2.944   1.462  10.425 -0.9354  0.4885 -1.3721
   59SAPC   H3Y 4518   2.964   1.613  10.533  0.2110  1.6695 -0.6691
   59SAPC   C34 4519   2.811   1.611  10.381  1.0676  0.4711 -0.5467
   59SAPC   H4X 4520   2.764   1.703  10.422 -3.1156 -2.0429  0.9678
   59SAPC   H4Y 4521   2.725   1.544  10.360  1.4396 -1.0311  2.2033
   59SAPC   C35 4522   2.893   1.653  10.261 -0.2766 -0.5618 -0.3652
   59SAPC   H5X 4523   2.946   1.566  10.217 -0.2361  0.2481 -2.0282
   59SAPC   H5Y 4524   2.970   1.725  10.296 -0.7844 -0.5813  0.8234
   59SAPC   C36 4525   2.809   1.690  10.139 -0.1277  0.5661  0.2971
   59SAPC   H6X 4526   2.785   1.798  10.154 -1.9469  0.3298 -0.6117
   59SAPC   H6Y 4527   2.717   1.628  10.138  1.2689 -1.6036  0.3037
   59SAPC   C37 4528   2.883   1.665  10.012  0.3528 -0.8466  0.1262
   59SAPC   H7X 4529   2.902   1.556  10.000 -3.0227 -1.6688  1.1921
   59SAPC   H7Y 4530   2.979   1.721  10.012 -0.0717 -0.1157  0.5013
   59SAPC   C38 4531   2.801   1.714   9.891 -0.6208  0.4403  0.3398
   59SAPC   H8X 4532   2.796   1.825   9.906  3.2112  0.9044 -0.8189
   59SAPC   H8Y 4533   2.703   1.663   9.878 -1.3947  2.4573 -3.1789
   59SAPC   C39 4534   2.876   1.696   9.768 -1.3021 -0.2625  0.3478
   59SAPC   H9X 4535   2.899   1.590   9.744  1.4400  0.7053 -1.8577
   59SAPC   H9Y 4536   2.978   1.740   9.767 -1.0407 -0.7777 -2.3144
   59SAPC  C310 4537   2.816   1.747   9.635  0.1078 -0.6282 -0.2664
   59SAPC  H10X 4538   2.820   1.858   9.638  0.8243 -0.6680  0.9230
   59SAPC  H10Y 4539   2.715   1.702   9.643  0.5069 -1.5326 -0.2111
   59SAPC  C311 4540   2.879   1.675   9.513 -0.2528  0.1369 -0.1853
   59SAPC  H11X 4541   2.883   1.565   9.521  0.0619  0.1437 -0.2576
   59SAPC  H11Y 4542   2.985   1.709   9.509 -0.6585  1.8212  1.6232
   59SAPC  C312 4543   2.811   1.712   9.385 -0.2704 -0.3524 -0.7147
   59SAPC  H12X 4544   2.810   1.822   9.369  2.1365 -0.2079 -0.2208
   59SAPC  H12Y 4545   2.702   1.691   9.394 -0.5686  1.0881 -0.7160
   59SAPC  C313 4546   2.854   1.629   9.267 -0.3192  0.4141  0.2572
   59SAPC  H13X 4547   2.846   1.519   9.278 -0.8194  0.4215  0.0199
   59SAPC  H13Y 4548   2.963   1.648   9.254 -0.3373 -0.0550 -0.6788
   59SAPC  C314 4549   2.782   1.674   9.132  0.2404  0.0660 -0.6849
   59SAPC  H14X 4550   2.808   1.775   9.093 -0.9576 -0.6733 -3.6536
   59SAPC  H14Y 4551   2.676   1.676   9.165  0.1121  1.6107 -1.0824
   59SAPC  C315 4552   2.799   1.577   9.019  0.3335  0.2892 -0.1056
   59SAPC  H15X 4553   2.781   1.478   9.067 -0.0708 -0.3333 -1.4838
   59SAPC  H15Y 4554   2.901   1.583   8.977 -0.0737  3.1783 -0.8558
   59SAPC  C316 4555   2.686   1.593   8.915 -0.5531  0.4484  0.5242
   59SAPC  H16X 4556   2.689   1.690   8.861 -3.3908  0.7178  0.6597
   59SAPC  H16Y 4557   2.594   1.582   8.976 -0.6442  0.0873  0.3239
   59SAPC  C317 4558   2.674   1.475   8.818 -0.3517 -0.1935  0.1791
   59SAPC  H17X 4559   2.682   1.373   8.862 -1.0324 -0.2413  0.1995
   59SAPC  H17Y 4560   2.765   1.479   8.754 -0.7222 -0.3928 -0.3688
   59SAPC  C318 4561   2.557   1.492   8.725 -0.4926  0.0950  0.2470
   59SAPC  H18X 4562   2.578   1.585   8.669  2.0634  0.0607  1.0207
   59SAPC  H18Y 4563   2.460   1.495   8.779 -1.0528  1.4600 -0.7790
   59SAPC  H18Z 4564   2.548   1.417   8.644  5.3990 -0.8093  0.0168
   60SAPC     N 4565   5.573   6.583  10.700 -0.3540  0.7162  0.0388
   60SAPC   C12 4566   5.535   6.717  10.778  0.1343  0.6903  0.2895
   60SAPC  H12A 4567   5.576   6.799  10.721  2.0485 -0.3335  0.0935
   60SAPC  H12B 4568   5.594   6.708  10.868 -0.7390 -0.1852  0.7864
   60SAPC   C13 4569   5.723   6.588  10.672 -0.6386 -0.6754  0.3041
   60SAPC  H13A 4570   5.780   6.572  10.763 -0.9332 -1.8227  0.2954
   60SAPC  H13B 4571   5.747   6.504  10.608 -1.0993 -1.1202  0.7142
   60SAPC  H13C 4572   5.757   6.681  10.627 -0.9796 -0.9116 -0.4535
   60SAPC   C14 4573   5.547   6.461  10.782 -0.1299  0.0247 -0.0245
   60SAPC  H14A 4574   5.610   6.380  10.750  0.5534  0.3606  0.4571
   60SAPC  H14B 4575   5.548   6.469  10.889 -2.5022  1.6760 -0.0398
   60SAPC  H14C 4576   5.444   6.434  10.762 -0.2901 -1.0317  1.9483
   60SAPC   C15 4577   5.496   6.572  10.575  0.3395  0.2475 -0.5172
   60SAPC  H15A 4578   5.526   6.494  10.507  3.4821  1.7075 -0.9794
   60SAPC  H15B 4579   5.389   6.573  10.590  0.5556 -0.0693  1.2971
   60SAPC  H15C 4580   5.515   6.665  10.523  1.0576  0.4385  0.0801
   60SAPC   C11 4581   5.389   6.753  10.820 -0.1786  0.6960  0.1005
   60SAPC  H11A 4582   5.331   6.784  10.731 -0.1805  1.4809  0.3643
   60SAPC  H11B 4583   5.415   6.842  10.882  3.6139  0.6574 -1.1790
   60SAPC     P 4584   5.169   6.618  10.880  0.2850  0.0792  0.4474
   60SAPC   O13 4585   5.147   6.501  10.967  1.0184 -0.3382 -0.0182
   60SAPC   O14 4586   5.100   6.753  10.916 -0.3110  0.3530 -0.3504
   60SAPC   O12 4587   5.323   6.646  10.881 -0.1990 -0.2885 -0.7119
   60SAPC   O11 4588   5.144   6.587  10.730 -0.2959 -0.1767 -0.2434
   60SAPC    C1 4589   5.114   6.457  10.681  0.4804 -1.0348  0.2594
   60SAPC    HA 4590   5.188   6.435  10.601 -0.8732  0.9031 -1.6549
   60SAPC    HB 4591   5.124   6.377  10.757  2.5497 -1.4902 -0.4361
   60SAPC    C2 4592   4.965   6.453  10.626  0.5395 -0.9182  0.0719
   60SAPC    HS 4593   4.929   6.348  10.619 -0.8750 -0.5204  1.1513
   60SAPC   O21 4594   4.978   6.518  10.499  0.0880 -0.3251  0.2744
   60SAPC   C21 4595   5.013   6.434  10.396 -0.7004  0.3072 -0.3961
   60SAPC   O22 4596   5.035   6.319  10.421 -0.6655  0.5086  0.2303
   60SAPC   C22 4597   5.017   6.500  10.263 -0.3268  0.2762 -0.0007
   60SAPC   H2R 4598   4.914   6.541  10.258  0.3459  1.9350 -0.7551
   60SAPC   H2S 4599   5.089   6.584  10.269 -2.4518  2.2728 -1.0709
   60SAPC    C3 4600   4.874   6.537  10.719 -0.9138 -0.0703  0.0579
   60SAPC    HX 4601   4.917   6.637  10.744 -0.6778 -0.2493  0.3852
   60SAPC    HY 4602   4.871   6.484  10.816  0.1916 -0.7625 -0.2627
   60SAPC   O31 4603   4.744   6.573  10.662 -0.4054  0.0352 -0.2114
   60SAPC   C31 4604   4.658   6.469  10.664  0.1135 -0.0914 -0.4844
   60SAPC   O32 4605   4.673   6.359  10.709  0.1744  0.0593  0.2365
   60SAPC   C32 4606   4.530   6.523  10.595  0.0263  0.6684  0.1536
   60SAPC   H2X 4607   4.502   6.620  10.642  1.0247  0.5697  1.0096
   60SAPC   H2Y 4608   4.449   6.448  10.607  0.1830  0.2035 -1.5216
   60SAPC   C23 4609   5.040   6.397  10.154  0.1111 -0.3432 -0.5151
   60SAPC   H3R 4610   4.960   6.322  10.168 -0.6089 -0.0972 -2.8065
   60SAPC   H3S 4611   5.134   6.337  10.145 -0.6627 -1.5838 -0.5451
   60SAPC   C24 4612   4.999   6.455  10.020 -1.0179  0.3426  0.6480
   60SAPC   H4R 4613   4.893   6.481  10.038 -0.8990  0.7348  0.8053
   60SAPC   H4S 4614   4.995   6.372   9.947 -0.3218  0.0813  0.8940
   60SAPC   C25 4615   5.089   6.565   9.974  0.2811  1.0558 -0.2457
   60SAPC   H5R 4616   5.117   6.631  10.057 -1.7431  1.8114 -0.1075
   60SAPC   C26 4617   5.143   6.577   9.849  0.7895  0.4956  0.9450
   60SAPC   H6R 4618   5.209   6.664   9.833 -1.5237  2.3551  0.8657
   60SAPC   C27 4619   5.113   6.494   9.723 -0.1947 -0.5684 -0.1560
   60SAPC   H7R 4620   5.025   6.542   9.675 -0.9232 -0.5727  1.1321
   60SAPC   H7S 4621   5.079   6.390   9.743 -2.0770  0.3933  2.1845
   60SAPC   C28 4622   5.218   6.499   9.620 -0.7843  0.4505  0.3670
   60SAPC   H8R 4623   5.318   6.480   9.659 -2.1039 -3.9818  2.1152
   60SAPC   C29 4624   5.203   6.495   9.488  0.3184 -0.9943 -0.2534
   60SAPC   H9R 4625   5.295   6.486   9.428 -0.5277  0.0511 -1.7796
   60SAPC  C210 4626   5.073   6.504   9.416 -0.0092 -0.3365  0.3494
   60SAPC  H10R 4627   5.020   6.600   9.434  0.9145 -0.1477  2.3474
   60SAPC  H10S 4628   5.008   6.429   9.467 -0.3864  0.1019  0.5158
   60SAPC  C211 4629   5.090   6.483   9.267 -0.3738  0.6081 -0.0127
   60SAPC  H11R 4630   5.193   6.458   9.237 -1.0067 -1.3682 -0.6793
   60SAPC  C212 4631   4.989   6.477   9.178 -0.0644  0.1960 -0.3115
   60SAPC  H12R 4632   5.028   6.465   9.075  0.9286  0.7549 -0.0121
   60SAPC  C213 4633   4.839   6.505   9.191 -0.4244 -0.3142 -0.6608
   60SAPC  H13R 4634   4.830   6.596   9.254  2.4261  0.7188 -1.5645
   60SAPC  H13S 4635   4.791   6.419   9.242  0.2192  0.2679  0.9848
   60SAPC  C214 4636   4.775   6.520   9.056  0.4364 -1.0409  0.2430
   60SAPC  H14R 4637   4.839   6.522   8.967 -0.3901 -1.4087 -0.3760
   60SAPC  C215 4638   4.641   6.535   9.047 -0.6021 -0.3227  0.9978
   60SAPC  H15R 4639   4.606   6.569   8.948  0.2199  1.0091  1.1464
   60SAPC  C216 4640   4.543   6.542   9.156  0.1883  0.0328 -0.4678
   60SAPC  H16R 4641   4.573   6.487   9.248  1.2224 -0.2869 -0.9883
   60SAPC  H16S 4642   4.451   6.481   9.140 -0.2522  0.1726  1.2537
   60SAPC  C217 4643   4.493   6.691   9.187 -0.1120  0.7980 -0.1611
   60SAPC  H17R 4644   4.422   6.718   9.107 -0.6742 -0.4524 -0.0995
   60SAPC  H17S 4645   4.584   6.755   9.185 -0.3449  1.1004 -2.1760
   60SAPC  C218 4646   4.416   6.693   9.318  0.3599 -0.5288  0.4883
   60SAPC  H18R 4647   4.334   6.619   9.320 -0.5333  0.4264  1.7742
   60SAPC  H18S 4648   4.374   6.796   9.326  1.9414  0.2671 -0.7904
   60SAPC  C219 4649   4.473   6.676   9.455 -0.9187 -0.3527 -0.2652
   60SAPC  H19R 4650   4.556   6.748   9.469 -0.4335 -1.3016  2.3269
   60SAPC  H19S 4651   4.523   6.577   9.461 -1.6873 -0.6458  2.4057
   60SAPC  C220 4652   4.378   6.695   9.576 -0.5015 -0.5264  0.0489
   60SAPC  H20R 4653   4.302   6.615   9.563  0.0922 -0.9891 -0.5969
   60SAPC  H20S 4654   4.345   6.800   9.585  0.5956 -0.0846 -0.9555
   60SAPC  H20T 4655   4.437   6.677   9.669  0.0607 -0.3949 -0.2819
   60SAPC   C33 4656   4.544   6.523  10.440  0.3319  0.1747 -0.0581
   60SAPC   H3X 4657   4.604   6.611  10.411  1.0515 -0.0679  0.6585
   60SAPC   H3Y 4658   4.443   6.535  10.396 -0.3568 -0.5576  1.2703
   60SAPC   C34 4659   4.599   6.399  10.381  0.4916  0.3599 -0.0920
   60SAPC   H4X 4660   4.584   6.314  10.451  1.3810  0.4734  0.2496
   60SAPC   H4Y 4661   4.708   6.404  10.361  0.3815  1.8322 -0.4236
   60SAPC   C35 4662   4.530   6.356  10.246  0.1313  0.3307 -0.6668
   60SAPC   H5X 4663   4.542   6.435  10.169  0.9120 -0.6149 -1.5419
   60SAPC   H5Y 4664   4.423   6.331  10.264  0.6143 -2.0487 -0.7234
   60SAPC   C36 4665   4.601   6.228  10.205  0.0475  0.5210  0.5085
   60SAPC   H6X 4666   4.583   6.155  10.287  1.6939  0.3188  0.7157
   60SAPC   H6Y 4667   4.709   6.254  10.199 -0.3421  2.5313  1.2303
   60SAPC   C37 4668   4.552   6.170  10.069  0.0069  0.1019  1.5916
   60SAPC   H7X 4669   4.632   6.096  10.048 -0.7637 -0.1660 -0.7333
   60SAPC   H7Y 4670   4.572   6.242   9.986 -1.1756 -0.6420  0.6263
   60SAPC   C38 4671   4.417   6.110  10.070  0.3736 -0.3152 -0.4392
   60SAPC   H8X 4672   4.347   6.191  10.038  1.8317  1.9382  1.7305
   60SAPC   H8Y 4673   4.396   6.080  10.175  0.3185 -3.1392 -1.1698
   60SAPC   C39 4674   4.396   5.980   9.993  0.5023 -0.3050  0.2742
   60SAPC   H9X 4675   4.288   5.957   9.981  0.1121  1.5735 -0.2016
   60SAPC   H9Y 4676   4.452   5.907  10.055 -0.1366 -0.1924  0.9846
   60SAPC  C310 4677   4.455   5.976   9.849 -0.6610 -0.1489  0.7574
   60SAPC  H10X 4678   4.565   5.987   9.856 -0.2427 -3.0824 -0.1507
   60SAPC  H10Y 4679   4.422   6.055   9.778  2.4532  0.5758 -0.0097
   60SAPC  C311 4680   4.445   5.829   9.797  0.3177 -0.2966  0.0414
   60SAPC  H11X 4681   4.340   5.798   9.779  0.9211 -2.8396  0.5146
   60SAPC  H11Y 4682   4.503   5.763   9.866  1.3328  0.5079 -0.0124
   60SAPC  C312 4683   4.513   5.821   9.658  0.0034  0.0244 -0.0965
   60SAPC  H12X 4684   4.618   5.855   9.660 -0.3783  1.7392 -2.9694
   60SAPC  H12Y 4685   4.457   5.906   9.611  1.5538  0.4365 -1.2622
   60SAPC  C313 4686   4.500   5.692   9.580 -1.0373  0.3051  1.0945
   60SAPC  H13X 4687   4.393   5.664   9.576 -1.0016  0.2637  0.3676
   60SAPC  H13Y 4688   4.562   5.617   9.634  1.0585  0.1974 -1.2479
   60SAPC  C314 4689   4.560   5.705   9.439 -0.1031 -0.3819  0.2563
   60SAPC  H14X 4690   4.670   5.717   9.441  0.0967 -1.7687 -0.9277
   60SAPC  H14Y 4691   4.511   5.794   9.392 -1.8934 -1.0063  0.8763
   60SAPC  C315 4692   4.532   5.595   9.342  0.0097  0.7193 -0.4863
   60SAPC  H15X 4693   4.423   5.578   9.347 -0.0964  1.6203  0.7365
   60SAPC  H15Y 4694   4.584   5.502   9.373 -1.2894  0.5084  1.1918
   60SAPC  C316 4695   4.587   5.629   9.202 -0.8314  0.4891  0.2715
   60SAPC  H16X 4696   4.688   5.672   9.215 -0.2706 -1.6640  5.2873
   60SAPC  H16Y 4697   4.528   5.712   9.157  1.8043  1.1900 -2.1384
   60SAPC  C317 4698   4.585   5.515   9.098 -0.3508 -0.7079 -0.3648
   60SAPC  H17X 4699   4.627   5.425   9.148 -1.5565 -0.7364  0.6675
   60SAPC  H17Y 4700   4.656   5.539   9.016  0.6923  0.2613  0.7814
   60SAPC  C318 4701   4.454   5.466   9.036 -0.0865  0.1232  0.2217
   60SAPC  H18X 4702   4.455   5.364   8.993  1.9644 -0.0683  0.5765
   60SAPC  H18Y 4703   4.413   5.543   8.968 -1.4542 -1.7460 -1.1436
   60SAPC  H18Z 4704   4.377   5.456   9.116 -0.7329  0.8556 -0.2988
   61SAPC     N 4705   5.199   5.313  11.134 -0.0356  0.0721 -0.7244
   61SAPC   C12 4706   5.211   5.320  10.984 -0.7278 -0.2025 -0.0418
   61SAPC  H12A 4707   5.294   5.260  10.950 -1.1727  0.2557 -2.0919
   61SAPC  H12B 4708   5.237   5.421  10.958  1.3388 -0.4899  0.7253
   61SAPC   C13 4709   5.071   5.390  11.164  0.6563  0.0668  1.1807
   61SAPC  H13A 4710   4.987   5.355  11.106  0.6058 -1.2139  1.9803
   61SAPC  H13B 4711   5.062   5.380  11.271  2.2703  1.8308  1.5438
   61SAPC  H13C 4712   5.077   5.495  11.138  0.9356 -0.1586  0.2937
   61SAPC   C14 4713   5.186   5.168  11.172  0.2315  0.5541 -0.6138
   61SAPC  H14A 4714   5.112   5.121  11.109  0.3493  0.4318 -0.6611
   61SAPC  H14B 4715   5.284   5.128  11.155  0.7739  1.2159  0.8478
   61SAPC  H14C 4716   5.144   5.159  11.271 -1.3625 -0.4734 -1.3346
   61SAPC   C15 4717   5.305   5.376  11.212  0.0717 -0.1625 -0.3390
   61SAPC  H15A 4718   5.397   5.323  11.190 -0.3203 -0.6048 -0.9800
   61SAPC  H15B 4719   5.317   5.482  11.197  0.7785 -0.2212 -0.2241
   61SAPC  H15C 4720   5.282   5.349  11.314 -0.3005 -0.7148 -0.5573
   61SAPC   C11 4721   5.086   5.282  10.900  0.9929 -0.6585 -0.4796
   61SAPC  H11A 4722   5.118   5.312  10.798 -0.4584  1.8842 -0.2507
   61SAPC  H11B 4723   4.995   5.339  10.927  1.0247  0.3761 -2.4156
   61SAPC     P 4724   4.926   5.076  10.879  0.2497 -0.0510  0.2026
   61SAPC   O13 4725   4.941   4.929  10.893  0.0822  0.1233 -0.7891
   61SAPC   O14 4726   4.820   5.139  10.960 -0.1807 -0.1427  0.0680
   61SAPC   O12 4727   5.062   5.145  10.909  0.0412 -0.4667 -0.4656
   61SAPC   O11 4728   4.901   5.106  10.734 -0.2196  0.1244  1.2823
   61SAPC    C1 4729   4.888   5.238  10.682 -0.4283  0.1179 -0.0082
   61SAPC    HA 4730   4.873   5.315  10.760  0.6933  1.0741 -0.7184
   61SAPC    HB 4731   4.984   5.262  10.631  0.3535 -1.1850  0.7887
   61SAPC    C2 4732   4.774   5.243  10.576 -0.3934 -0.2849 -0.0012
   61SAPC    HS 4733   4.683   5.284  10.624 -1.5008 -2.3490 -0.2476
   61SAPC   O21 4734   4.762   5.112  10.515 -0.3889  0.2087  0.1493
   61SAPC   C21 4735   4.682   5.027  10.572 -0.3573 -0.9620  0.2540
   61SAPC   O22 4736   4.608   5.054  10.665  0.2725 -0.2166 -0.2329
   61SAPC   C22 4737   4.712   4.890  10.512  0.2896  0.7548  0.4582
   61SAPC   H2R 4738   4.713   4.890  10.401 -0.8442  0.4047  0.4268
   61SAPC   H2S 4739   4.816   4.870  10.546  1.1432  1.1908 -1.6950
   61SAPC    C3 4740   4.812   5.347  10.467 -0.4112 -0.3303  0.5464
   61SAPC    HX 4741   4.896   5.301  10.411 -2.2570 -1.1206 -1.7744
   61SAPC    HY 4742   4.847   5.445  10.506 -2.0194  0.9935 -1.1173
   61SAPC   O31 4743   4.709   5.369  10.373  0.5402 -0.2810 -0.4403
   61SAPC   C31 4744   4.730   5.466  10.280 -0.3986  0.0819 -0.3855
   61SAPC   O32 4745   4.838   5.521  10.267 -0.2543 -0.5059 -0.0210
   61SAPC   C32 4746   4.611   5.501  10.207 -0.1646  0.3293 -0.1137
   61SAPC   H2X 4747   4.583   5.607  10.227 -0.1961 -0.1706  2.9476
   61SAPC   H2Y 4748   4.522   5.441  10.236 -0.1941  0.4083 -0.0391
   61SAPC   C23 4749   4.606   4.784  10.555  0.8474 -0.0212  0.2952
   61SAPC   H3R 4750   4.564   4.805  10.656 -1.1473 -1.1053 -0.2494
   61SAPC   H3S 4751   4.653   4.685  10.568  2.0792  0.5080  0.0176
   61SAPC   C24 4752   4.490   4.765  10.460  0.1159 -0.0381 -0.0353
   61SAPC   H4R 4753   4.433   4.679  10.502  1.8401  0.7063  4.3907
   61SAPC   H4S 4754   4.523   4.728  10.361  1.9483 -1.7085  1.1288
   61SAPC   C25 4755   4.389   4.872  10.446 -0.6692 -0.1544 -0.0886
   61SAPC   H5R 4756   4.319   4.884  10.530  0.4551  0.2469  0.8198
   61SAPC   C26 4757   4.378   4.951  10.339 -0.2964 -0.5690 -0.3874
   61SAPC   H6R 4758   4.287   5.014  10.336 -1.3209 -1.7364  2.5783
   61SAPC   C27 4759   4.452   4.947  10.212 -0.3553  0.4037 -0.7736
   61SAPC   H7R 4760   4.423   4.858  10.152  0.8130  0.9690 -2.2658
   61SAPC   H7S 4761   4.561   4.942  10.234 -0.1958 -0.5393 -1.6644
   61SAPC   C28 4762   4.425   5.062  10.120  0.2547 -0.2391  0.0215
   61SAPC   H8R 4763   4.437   5.159  10.170  0.7930 -1.6881  2.8575
   61SAPC   C29 4764   4.405   5.053   9.991 -0.3236 -0.5764  0.5048
   61SAPC   H9R 4765   4.372   5.143   9.935  0.0461 -0.6851  0.1028
   61SAPC  C210 4766   4.390   4.934   9.900 -0.1316  0.0479  0.0649
   61SAPC  H10R 4767   4.414   4.845   9.961 -0.2078  0.1320  0.2178
   61SAPC  H10S 4768   4.467   4.929   9.819  1.5542  0.1562  1.5847
   61SAPC  C211 4769   4.253   4.931   9.844  0.7992 -0.2600  1.1063
   61SAPC  H11R 4770   4.182   4.980   9.913  0.6857  0.3940  0.5319
   61SAPC  C212 4771   4.201   4.874   9.734 -0.3791 -1.2622 -0.4812
   61SAPC  H12R 4772   4.092   4.881   9.721 -0.1985 -3.2345 -5.1906
   61SAPC  C213 4773   4.288   4.798   9.626 -0.3161 -0.0605  0.6640
   61SAPC  H13R 4774   4.320   4.695   9.654 -1.6749 -0.3929  1.0605
   61SAPC  H13S 4775   4.379   4.857   9.602 -2.0262  2.2684 -0.5671
   61SAPC  C214 4776   4.208   4.819   9.499  0.0899  0.2190  0.9991
   61SAPC  H14R 4777   4.112   4.870   9.518 -0.0192  0.2802  0.2997
   61SAPC  C215 4778   4.243   4.772   9.377  0.2898 -0.3064  0.4799
   61SAPC  H15R 4779   4.184   4.804   9.290 -1.6441 -0.1974  1.7772
   61SAPC  C216 4780   4.369   4.701   9.333 -0.2179  0.7532  0.1459
   61SAPC  H16R 4781   4.435   4.680   9.421  1.4182  1.2074 -0.9324
   61SAPC  H16S 4782   4.432   4.752   9.258 -0.6612  1.7439  0.4341
   61SAPC  C217 4783   4.341   4.556   9.286  0.0414  0.2590  0.3942
   61SAPC  H17R 4784   4.271   4.502   9.354  1.2352 -1.6571  0.1662
   61SAPC  H17S 4785   4.436   4.500   9.293  0.5760  0.6480 -2.4153
   61SAPC  C218 4786   4.290   4.538   9.137  0.2221 -0.2526  0.1236
   61SAPC  H18R 4787   4.184   4.570   9.145  0.5859  1.6111 -1.7871
   61SAPC  H18S 4788   4.290   4.430   9.110 -1.9784 -0.2574 -0.0564
   61SAPC  C219 4789   4.361   4.627   9.041  0.3271  0.8715 -0.3879
   61SAPC  H19R 4790   4.469   4.603   9.043  0.5277  1.7043 -0.5499
   61SAPC  H19S 4791   4.343   4.730   9.079  0.5869 -0.0223  2.3931
   61SAPC  C220 4792   4.290   4.604   8.904 -0.0126  0.8480  0.4184
   61SAPC  H20R 4793   4.311   4.507   8.855 -0.1474  0.5718  0.9053
   61SAPC  H20S 4794   4.331   4.681   8.835 -0.6758  0.8542  0.0150
   61SAPC  H20T 4795   4.179   4.610   8.902 -0.1582 -0.6885  1.7732
   61SAPC   C33 4796   4.639   5.484  10.056  1.1406 -0.0212 -0.0253
   61SAPC   H3X 4797   4.727   5.547  10.028 -0.4406  2.2917 -0.1015
   61SAPC   H3Y 4798   4.545   5.525  10.014  0.8808 -1.3187 -0.7635
   61SAPC   C34 4799   4.654   5.340  10.009 -0.7441 -0.0257 -0.0383
   61SAPC   H4X 4800   4.572   5.279  10.054 -1.1086  0.5622  0.1022
   61SAPC   H4Y 4801   4.748   5.310  10.061 -0.6352  2.0596  1.0636
   61SAPC   C35 4802   4.683   5.303   9.865  0.1834 -0.4401 -0.1162
   61SAPC   H5X 4803   4.702   5.193   9.864 -1.3473 -0.7297 -1.8761
   61SAPC   H5Y 4804   4.766   5.364   9.824 -0.6269  0.5677 -0.2683
   61SAPC   C36 4805   4.564   5.333   9.777  0.0022 -0.4265 -0.5414
   61SAPC   H6X 4806   4.533   5.439   9.783 -0.7311 -0.7102  1.3060
   61SAPC   H6Y 4807   4.481   5.269   9.815  1.1256 -1.6347 -0.0743
   61SAPC   C37 4808   4.579   5.299   9.628  0.1810  0.3617  0.2936
   61SAPC   H7X 4809   4.657   5.361   9.580 -0.7052  0.5495 -0.9748
   61SAPC   H7Y 4810   4.494   5.340   9.569  0.6382 -0.4239 -0.9748
   61SAPC   C38 4811   4.580   5.152   9.600  1.0704  0.2948  0.3020
   61SAPC   H8X 4812   4.489   5.094   9.624  0.3940 -0.0082 -2.6028
   61SAPC   H8Y 4813   4.666   5.108   9.655 -0.0288 -0.5391  1.4178
   61SAPC   C39 4814   4.623   5.105   9.455 -0.5312 -0.3706 -0.4495
   61SAPC   H9X 4815   4.617   4.994   9.457 -1.9637 -0.2971  0.9409
   61SAPC   H9Y 4816   4.733   5.119   9.454 -0.3406 -1.2372  1.7362
   61SAPC  C310 4817   4.543   5.178   9.348 -0.3628 -0.4182 -0.5558
   61SAPC  H10X 4818   4.581   5.162   9.245 -0.7827 -1.4305 -0.5584
   61SAPC  H10Y 4819   4.552   5.288   9.365 -1.9538 -0.2854 -0.4882
   61SAPC  C311 4820   4.396   5.121   9.344 -0.7977 -0.0419 -0.0696
   61SAPC  H11X 4821   4.356   5.135   9.446  0.7337 -1.3990  0.7648
   61SAPC  H11Y 4822   4.399   5.012   9.325 -0.5251  0.3711 -2.9336
   61SAPC  C312 4823   4.316   5.178   9.223  0.0661  0.3329  0.0388
   61SAPC  H12X 4824   4.368   5.143   9.131 -1.1296 -0.2235 -0.4580
   61SAPC  H12Y 4825   4.307   5.288   9.206 -2.0227  0.0622 -0.9752
   61SAPC  C313 4826   4.177   5.120   9.209 -0.3416  0.2783 -0.2401
   61SAPC  H13X 4827   4.122   5.172   9.291  0.9990  2.7285 -0.7908
   61SAPC  H13Y 4828   4.174   5.010   9.225 -2.4096 -0.0016 -2.0489
   61SAPC  C314 4829   4.110   5.152   9.084  0.6010  0.1014  0.3984
   61SAPC  H14X 4830   4.126   5.257   9.051 -2.0873  0.2148 -0.8513
   61SAPC  H14Y 4831   4.002   5.166   9.106  0.4875  1.1134 -0.7040
   61SAPC  C315 4832   4.117   5.049   8.970  0.4215  0.3002 -0.4017
   61SAPC  H15X 4833   4.103   4.949   9.015 -1.6054  0.9610  0.5503
   61SAPC  H15Y 4834   4.218   5.059   8.923  1.2743  3.8400  1.8266
   61SAPC  C316 4835   4.018   5.086   8.854 -0.9987  0.4213 -0.8446
   61SAPC  H16X 4836   3.917   5.081   8.899 -0.2517  1.0449  0.9773
   61SAPC  H16Y 4837   4.026   4.996   8.789  0.4752  0.2797 -0.5111
   61SAPC  C317 4838   4.033   5.220   8.781 -1.1139  0.0195 -0.3154
   61SAPC  H17X 4839   4.138   5.222   8.746 -0.3318 -0.0153  1.8660
   61SAPC  H17Y 4840   4.026   5.301   8.858 -0.1665  1.6898 -1.9051
   61SAPC  C318 4841   3.940   5.239   8.663  0.4437 -0.2247 -0.3799
   61SAPC  H18X 4842   3.950   5.149   8.599  1.3233  0.0970 -0.7082
   61SAPC  H18Y 4843   3.971   5.336   8.618  0.6896  1.0131  2.2588
   61SAPC  H18Z 4844   3.835   5.265   8.689  0.9470  0.2846  1.2258
   62SAPC     N 4845   4.365   3.176  10.839 -0.3004  0.1515 -0.2493
   62SAPC   C12 4846   4.360   3.246  10.703 -0.0443 -0.1548 -0.1860
   62SAPC  H12A 4847   4.269   3.303  10.694 -0.0401 -0.1690 -0.3248
   62SAPC  H12B 4848   4.345   3.170  10.628  1.1328  0.1354 -0.7352
   62SAPC   C13 4849   4.485   3.078  10.840  0.2802  0.2863  0.5520
   62SAPC  H13A 4850   4.581   3.124  10.821  0.8107 -0.2024  1.9088
   62SAPC  H13B 4851   4.500   3.011  10.923 -0.3132 -2.5164 -1.4487
   62SAPC  H13C 4852   4.468   3.014  10.755 -0.3198  0.6530  0.3931
   62SAPC   C14 4853   4.383   3.274  10.947  0.1420 -0.0197 -0.2806
   62SAPC  H14A 4854   4.471   3.332  10.922  2.2080 -3.3260 -1.3865
   62SAPC  H14B 4855   4.303   3.344  10.963 -0.5756 -1.2454  1.9186
   62SAPC  H14C 4856   4.416   3.229  11.040 -0.5024 -1.9275 -0.9247
   62SAPC   C15 4857   4.234   3.098  10.865  0.7086 -0.1062  0.5358
   62SAPC  H15A 4858   4.236   3.043  10.958 -2.8183  0.2093  0.9064
   62SAPC  H15B 4859   4.149   3.164  10.870 -0.4547 -1.5256  0.2273
   62SAPC  H15C 4860   4.218   3.029  10.783  0.4687  0.3963  0.1546
   62SAPC   C11 4861   4.484   3.333  10.660 -0.7513  0.2517  0.5365
   62SAPC  H11A 4862   4.492   3.336  10.549  0.1088 -1.0029  0.5404
   62SAPC  H11B 4863   4.571   3.273  10.693  0.8806  1.9481 -0.4583
   62SAPC     P 4864   4.373   3.559  10.706 -0.0742  0.0435  0.0421
   62SAPC   O13 4865   4.236   3.497  10.724 -0.3337 -0.2101  0.0202
   62SAPC   O14 4866   4.391   3.681  10.786  0.2910 -0.0732  0.6664
   62SAPC   O12 4867   4.499   3.463  10.730 -0.3165 -0.0641  0.6034
   62SAPC   O11 4868   4.397   3.588  10.551  0.6271 -0.5568 -0.6949
   62SAPC    C1 4869   4.516   3.665  10.518  0.2459  0.2088  0.2351
   62SAPC    HA 4870   4.526   3.761  10.573  0.2900 -0.0103  0.6080
   62SAPC    HB 4871   4.607   3.606  10.542  0.8820  0.4894 -1.3383
   62SAPC    C2 4872   4.515   3.696  10.366  0.3700  0.1303  0.3812
   62SAPC    HS 4873   4.619   3.713  10.331 -0.2802  0.6406 -1.3749
   62SAPC   O21 4874   4.423   3.802  10.329 -0.1573 -0.0463  0.2244
   62SAPC   C21 4875   4.483   3.919  10.367  0.6629  0.0253 -0.0708
   62SAPC   O22 4876   4.586   3.931  10.426  0.5110 -0.6284  0.8701
   62SAPC   C22 4877   4.376   4.025  10.337 -0.0801  0.0693 -0.3315
   62SAPC   H2R 4878   4.307   3.992  10.257 -1.3372  0.6829  0.4644
   62SAPC   H2S 4879   4.318   4.026  10.432  1.6958  1.9333  0.8279
   62SAPC    C3 4880   4.487   3.566  10.276 -0.2474 -1.0383  0.1199
   62SAPC    HX 4881   4.383   3.525  10.277 -0.2302 -1.2216 -1.8492
   62SAPC    HY 4882   4.558   3.494  10.322 -0.2511  0.8928  3.4580
   62SAPC   O31 4883   4.509   3.603  10.136 -0.2324  0.2005  0.4834
   62SAPC   C31 4884   4.617   3.560  10.082 -0.2520 -0.2211  0.3193
   62SAPC   O32 4885   4.709   3.506  10.144 -0.0359  0.2241  0.3468
   62SAPC   C32 4886   4.624   3.588   9.933  0.1188  0.4254 -0.5023
   62SAPC   H2X 4887   4.623   3.698   9.916  2.9306  0.5584 -0.2605
   62SAPC   H2Y 4888   4.532   3.548   9.885  0.5304 -0.6156 -0.4630
   62SAPC   C23 4889   4.439   4.163  10.308 -0.2680  0.2572 -0.4936
   62SAPC   H3R 4890   4.518   4.180  10.385 -1.8129  0.4437  1.1290
   62SAPC   H3S 4891   4.351   4.229  10.325  1.2954  2.0300  1.2895
   62SAPC   C24 4892   4.475   4.183  10.163 -0.0132  0.3590  0.2868
   62SAPC   H4R 4893   4.560   4.118  10.131 -1.8182 -2.1822  0.3197
   62SAPC   H4S 4894   4.513   4.286  10.176  1.1091 -0.0596  0.4009
   62SAPC   C25 4895   4.353   4.172  10.071 -0.1271  0.6219 -0.1890
   62SAPC   H5R 4896   4.284   4.257  10.079  0.7635  1.5247 -1.6322
   62SAPC   C26 4897   4.318   4.077   9.980  0.1466  0.0534  0.0176
   62SAPC   H6R 4898   4.229   4.087   9.917 -0.4306 -0.6025  0.7040
   62SAPC   C27 4899   4.414   3.963   9.952 -0.5677  0.2565 -0.2863
   62SAPC   H7R 4900   4.491   3.943  10.029 -3.3693  1.2836  3.0579
   62SAPC   H7S 4901   4.459   3.996   9.856 -1.3326 -3.2287 -2.0326
   62SAPC   C28 4902   4.352   3.827   9.930  0.4857 -0.1867 -1.0148
   62SAPC   H8R 4903   4.302   3.787  10.020  0.1108 -0.7431 -1.4624
   62SAPC   C29 4904   4.335   3.761   9.810 -0.4060  0.3330  0.0421
   62SAPC   H9R 4905   4.281   3.665   9.818 -0.8643  0.6711  1.2701
   62SAPC  C210 4906   4.370   3.798   9.667 -0.0875 -0.6550  0.1094
   62SAPC  H10R 4907   4.465   3.755   9.629 -0.4653  0.9209 -2.8514
   62SAPC  H10S 4908   4.387   3.907   9.664  0.1351 -0.6279  1.6348
   62SAPC  C211 4909   4.263   3.785   9.569 -0.2330  0.2254  0.5071
   62SAPC  H11R 4910   4.157   3.777   9.594 -0.6843 -1.7587 -1.6305
   62SAPC  C212 4911   4.300   3.772   9.437  1.0051  0.4323  0.0492
   62SAPC  H12R 4912   4.225   3.784   9.358  0.6427 -2.1049 -0.0749
   62SAPC  C213 4913   4.438   3.769   9.387  0.1206 -0.1568 -0.3720
   62SAPC  H13R 4914   4.519   3.812   9.449  0.1152 -1.6632  0.7282
   62SAPC  H13S 4915   4.451   3.823   9.291  1.3257  0.0468 -0.1071
   62SAPC  C214 4916   4.483   3.624   9.373 -0.1628  0.0443  0.0697
   62SAPC  H14R 4917   4.460   3.556   9.456 -3.3917  0.3313 -0.4593
   62SAPC  C215 4918   4.543   3.559   9.273  0.1974 -0.3551  0.1650
   62SAPC  H15R 4919   4.567   3.453   9.290  0.1497 -0.1636  1.4727
   62SAPC  C216 4920   4.583   3.625   9.143  0.1078  0.7544  0.0614
   62SAPC  H16R 4921   4.584   3.736   9.138 -1.0729  0.7884  0.2876
   62SAPC  H16S 4922   4.517   3.589   9.062 -0.8224  0.7973  0.7845
   62SAPC  C217 4923   4.723   3.571   9.112 -0.0822  0.3228 -0.0062
   62SAPC  H17R 4924   4.728   3.460   9.126 -1.3362  0.1760 -0.6501
   62SAPC  H17S 4925   4.809   3.609   9.171 -0.4303  0.4810  0.4031
   62SAPC  C218 4926   4.763   3.601   8.969 -0.1128 -0.2948 -0.3806
   62SAPC  H18R 4927   4.780   3.710   8.954  0.7508 -0.1928  1.1319
   62SAPC  H18S 4928   4.688   3.582   8.890 -0.2979  0.1695 -0.3232
   62SAPC  C219 4929   4.899   3.537   8.940 -0.3387 -0.1104 -0.1120
   62SAPC  H19R 4930   4.894   3.426   8.944  2.0676 -0.2479  1.0577
   62SAPC  H19S 4931   4.978   3.582   9.004 -1.9045  1.2394  0.9920
   62SAPC  C220 4932   4.940   3.573   8.802 -0.2095  0.2754  0.0054
   62SAPC  H20R 4933   4.942   3.683   8.793  0.1592  0.2399 -0.3802
   62SAPC  H20S 4934   4.870   3.521   8.732  0.7746 -1.6385  0.3612
   62SAPC  H20T 4935   5.045   3.553   8.773  0.0481  0.4640  0.7912
   62SAPC   C33 4936   4.747   3.530   9.859 -0.0635  0.5654  0.2916
   62SAPC   H3X 4937   4.776   3.429   9.894 -0.4365 -0.0905 -1.2118
   62SAPC   H3Y 4938   4.833   3.593   9.890 -0.0542 -0.1339  1.7823
   62SAPC   C34 4939   4.723   3.541   9.705  0.0971 -0.0671 -0.5665
   62SAPC   H4X 4940   4.700   3.646   9.680 -0.9631 -0.4268 -1.1734
   62SAPC   H4Y 4941   4.637   3.476   9.675  1.3177 -1.7158 -0.6519
   62SAPC   C35 4942   4.848   3.494   9.629  0.1032 -0.0393 -0.5135
   62SAPC   H5X 4943   4.875   3.388   9.645  0.1588 -0.0909 -0.9264
   62SAPC   H5Y 4944   4.938   3.548   9.665 -1.4792  1.4862  1.4329
   62SAPC   C36 4945   4.839   3.512   9.477 -0.0133 -0.7998  0.2319
   62SAPC   H6X 4946   4.805   3.616   9.459  0.1023 -0.1577  3.2569
   62SAPC   H6Y 4947   4.754   3.455   9.434 -1.9297  1.5493  0.6974
   62SAPC   C37 4948   4.967   3.492   9.398  0.4072 -0.6901 -0.2667
   62SAPC   H7X 4949   4.949   3.485   9.289 -1.3433 -0.2564 -0.0220
   62SAPC   H7Y 4950   5.006   3.396   9.440  0.1513 -0.1963  1.1516
   62SAPC   C38 4951   5.062   3.613   9.415 -0.5310  0.3000  0.8519
   62SAPC   H8X 4952   5.108   3.613   9.516  0.4020 -4.2662  0.6507
   62SAPC   H8Y 4953   5.003   3.700   9.379 -2.1907 -1.1190 -0.0184
   62SAPC   C39 4954   5.184   3.591   9.329 -0.7717 -0.5372  0.1481
   62SAPC   H9X 4955   5.145   3.571   9.227 -1.4211  1.8485 -0.1391
   62SAPC   H9Y 4956   5.236   3.505   9.375  1.1379 -0.2023 -1.2535
   62SAPC  C310 4957   5.266   3.710   9.310 -0.7221 -0.3457  0.0472
   62SAPC  H10X 4958   5.320   3.737   9.403 -1.8117 -3.5747  1.7907
   62SAPC  H10Y 4959   5.211   3.805   9.297  1.2132  0.8212  0.0878
   62SAPC  C311 4960   5.361   3.699   9.189 -0.4790  0.1207 -0.2932
   62SAPC  H11X 4961   5.310   3.667   9.096  2.0157 -2.1706 -1.0253
   62SAPC  H11Y 4962   5.433   3.616   9.210  0.9238  1.4799  0.5321
   62SAPC  C312 4963   5.438   3.834   9.157  0.3021 -0.0620 -0.4341
   62SAPC  H12X 4964   5.525   3.841   9.226 -0.3013 -0.3605  0.3870
   62SAPC  H12Y 4965   5.365   3.915   9.176  0.0964 -0.4069  0.3007
   62SAPC  C313 4966   5.490   3.827   9.009 -0.2904 -0.2837 -0.1441
   62SAPC  H13X 4967   5.403   3.829   8.940 -0.5622  1.4645  0.2111
   62SAPC  H13Y 4968   5.542   3.729   9.008  1.3197  0.3848  3.2751
   62SAPC  C314 4969   5.580   3.945   8.963  0.5425  0.8280 -0.0108
   62SAPC  H14X 4970   5.604   3.933   8.855 -2.7152 -1.0644 -0.6469
   62SAPC  H14Y 4971   5.674   3.940   9.022 -0.0180  0.5825  0.8867
   62SAPC  C315 4972   5.513   4.082   8.969 -0.2344  0.1840  0.2799
   62SAPC  H15X 4973   5.476   4.110   9.070 -3.1955  0.8554 -0.8825
   62SAPC  H15Y 4974   5.415   4.083   8.918 -0.5733  1.5022  0.8979
   62SAPC  C316 4975   5.593   4.191   8.904  0.1050 -0.2316  0.8416
   62SAPC  H16X 4976   5.618   4.164   8.799  1.5541 -0.5257  1.2381
   62SAPC  H16Y 4977   5.692   4.207   8.952  0.4865 -1.9007  0.6912
   62SAPC  C317 4978   5.523   4.327   8.898 -0.4717 -0.2490  0.3097
   62SAPC  H17X 4979   5.488   4.355   9.000 -1.0693 -1.0401  0.3313
   62SAPC  H17Y 4980   5.437   4.313   8.830  0.3473 -2.6898 -0.3469
   62SAPC  C318 4981   5.605   4.441   8.844 -0.1160  0.4502  0.7984
   62SAPC  H18X 4982   5.688   4.472   8.911 -1.2324  0.5805  2.1770
   62SAPC  H18Y 4983   5.536   4.528   8.839 -2.0509 -0.9502  1.6449
   62SAPC  H18Z 4984   5.630   4.414   8.739 -1.6793 -0.2830  0.5858
   63SAPC     N 4985   2.343   2.544   6.283 -0.7341  0.0060 -0.0305
   63SAPC   C12 4986   2.446   2.558   6.396 -0.2376 -0.1691  0.0416
   63SAPC  H12A 4987   2.493   2.461   6.400  0.6015  0.0950 -2.0349
   63SAPC  H12B 4988   2.393   2.570   6.489 -1.1348 -2.4237 -0.1077
   63SAPC   C13 4989   2.407   2.540   6.143  0.0969 -0.7335 -0.3311
   63SAPC  H13A 4990   2.455   2.634   6.120 -0.8783  0.0584  0.7674
   63SAPC  H13B 4991   2.476   2.457   6.135 -1.1185 -1.6821 -1.6785
   63SAPC  H13C 4992   2.326   2.523   6.073 -2.4820  1.4577  1.8900
   63SAPC   C14 4993   2.261   2.426   6.319 -1.1809  0.2126 -0.1728
   63SAPC  H14A 4994   2.193   2.395   6.242  0.6026 -3.2143 -0.6144
   63SAPC  H14B 4995   2.334   2.346   6.325 -0.1673  0.8819 -2.4944
   63SAPC  H14C 4996   2.208   2.436   6.413  0.5938  1.8321  0.7282
   63SAPC   C15 4997   2.249   2.663   6.280 -0.1867  0.3610 -0.4703
   63SAPC  H15A 4998   2.301   2.756   6.264  0.6724  0.0267  0.3171
   63SAPC  H15B 4999   2.171   2.652   6.206 -0.3511 -1.4876 -0.0679
   63SAPC  H15C 5000   2.190   2.664   6.371 -0.7555 -3.1417 -0.6468
   63SAPC   C11 5001   2.557   2.665   6.379  0.2216  0.0081 -0.0345
   63SAPC  H11A 5002   2.620   2.643   6.291 -0.6059 -1.6528 -0.2465
   63SAPC  H11B 5003   2.625   2.643   6.465  1.1395 -4.0749 -1.5628
   63SAPC     P 5004   2.574   2.925   6.382  0.2434  0.4094  0.1911
   63SAPC   O13 5005   2.716   2.886   6.390 -0.0776  0.0724  0.7133
   63SAPC   O14 5006   2.525   3.017   6.274 -0.3958 -0.4756 -0.0622
   63SAPC   O12 5007   2.494   2.790   6.376 -0.1312 -0.5465 -0.7046
   63SAPC   O11 5008   2.520   2.980   6.521  0.5071 -0.6513  0.1645
   63SAPC    C1 5009   2.434   2.905   6.607  0.0735 -0.1290 -0.8702
   63SAPC    HA 5010   2.346   2.969   6.630  1.0904  1.2568 -0.7026
   63SAPC    HB 5011   2.395   2.808   6.568  1.0125 -1.1694  0.6741
   63SAPC    C2 5012   2.496   2.876   6.746 -0.1315  0.3270  0.1255
   63SAPC    HS 5013   2.422   2.825   6.811 -0.5472 -0.7516 -1.1517
   63SAPC   O21 5014   2.566   2.989   6.790 -0.1527 -0.2975  0.0468
   63SAPC   C21 5015   2.504   3.051   6.890 -0.0719 -0.2280  0.6255
   63SAPC   O22 5016   2.393   3.019   6.932  0.0733  0.5143  0.1768
   63SAPC   C22 5017   2.571   3.174   6.943  0.0434 -0.0240  0.7873
   63SAPC   H2R 5018   2.680   3.152   6.940  0.0652  0.2218 -1.2132
   63SAPC   H2S 5019   2.545   3.262   6.881  0.1785 -0.3340  0.2902
   63SAPC    C3 5020   2.601   2.759   6.727  0.6568 -0.0971 -0.1156
   63SAPC    HX 5021   2.682   2.801   6.664  0.2740  1.0342  0.1193
   63SAPC    HY 5022   2.544   2.686   6.666  2.6266 -0.5733 -1.4882
   63SAPC   O31 5023   2.641   2.705   6.856  0.4319 -0.0315  0.2588
   63SAPC   C31 5024   2.751   2.759   6.908 -0.6576 -0.2936 -0.2520
   63SAPC   O32 5025   2.819   2.849   6.857 -0.8910  0.9768  0.2092
   63SAPC   C32 5026   2.770   2.706   7.047  1.1295  0.1826 -0.1055
   63SAPC   H2X 5027   2.818   2.607   7.038  1.5492  0.2877  0.7717
   63SAPC   H2Y 5028   2.673   2.678   7.093  0.4276  1.6327 -0.6179
   63SAPC   C23 5029   2.527   3.213   7.080  0.6376 -0.0621 -0.3684
   63SAPC   H3R 5030   2.417   3.198   7.094  0.3418  1.9816 -0.1056
   63SAPC   H3S 5031   2.559   3.319   7.091  0.6339 -0.0207 -0.7326
   63SAPC   C24 5032   2.578   3.125   7.197 -0.1405  0.3824 -0.2344
   63SAPC   H4R 5033   2.687   3.143   7.184  0.3296 -0.2886  2.2723
   63SAPC   H4S 5034   2.560   3.019   7.172 -2.7225  1.3750 -3.3166
   63SAPC   C25 5035   2.527   3.160   7.336  0.0150 -0.2104  0.6806
   63SAPC   H5R 5036   2.420   3.135   7.344  0.2612 -1.2047  0.9471
   63SAPC   C26 5037   2.591   3.216   7.433  0.0455  0.5951 -0.4940
   63SAPC   H6R 5038   2.551   3.224   7.535  3.0024 -1.7681  1.0183
   63SAPC   C27 5039   2.742   3.245   7.435  0.1668 -0.0830 -0.7776
   63SAPC   H7R 5040   2.759   3.331   7.503  1.8986 -2.1941  1.6621
   63SAPC   H7S 5041   2.771   3.286   7.336 -1.1008 -0.5117 -1.3563
   63SAPC   C28 5042   2.819   3.116   7.475  1.1484 -0.0361 -0.3138
   63SAPC   H8R 5043   2.828   3.046   7.391  1.0235  1.3393 -1.5224
   63SAPC   C29 5044   2.887   3.093   7.582 -0.3003  0.5198 -0.7092
   63SAPC   H9R 5045   2.942   2.998   7.579  1.5047  1.3801  1.9167
   63SAPC  C210 5046   2.911   3.172   7.708  0.2452  0.0879  0.3397
   63SAPC  H10R 5047   2.942   3.276   7.684  2.9777 -1.1529 -2.1517
   63SAPC  H10S 5048   3.001   3.132   7.758  0.6699  0.4776 -0.1051
   63SAPC  C211 5049   2.800   3.158   7.799 -0.8846 -0.0729  0.1520
   63SAPC  H11R 5050   2.752   3.059   7.801 -1.8081  0.3640  0.1602
   63SAPC  C212 5051   2.752   3.246   7.885 -0.2370 -0.0176 -0.3936
   63SAPC  H12R 5052   2.667   3.214   7.947 -0.9796 -2.2854 -2.4148
   63SAPC  C213 5053   2.806   3.389   7.883  0.1007 -0.5743  0.3106
   63SAPC  H13R 5054   2.895   3.403   7.818 -1.0877 -0.5487 -1.3686
   63SAPC  H13S 5055   2.837   3.410   7.987 -1.8777  1.1022  0.6409
   63SAPC  C214 5056   2.701   3.491   7.845  0.6712  0.5749 -0.2424
   63SAPC  H14R 5057   2.709   3.513   7.738  0.7659  1.6701 -0.0228
   63SAPC  C215 5058   2.603   3.555   7.915 -0.2973 -0.0567 -0.3724
   63SAPC  H15R 5059   2.534   3.629   7.872  1.2748  2.9625  1.8818
   63SAPC  C216 5060   2.581   3.527   8.064 -0.6936  0.0816 -0.0768
   63SAPC  H16R 5061   2.644   3.441   8.097  0.5520 -0.1830 -2.8350
   63SAPC  H16S 5062   2.480   3.484   8.080 -0.0104 -2.0850 -1.1915
   63SAPC  C217 5063   2.608   3.643   8.168  0.3810  0.3057 -0.7164
   63SAPC  H17R 5064   2.576   3.598   8.264  2.3311  0.0477 -0.1333
   63SAPC  H17S 5065   2.540   3.729   8.146 -0.0861 -0.0870 -0.8248
   63SAPC  C218 5066   2.762   3.671   8.172 -0.2908  0.5201 -0.0645
   63SAPC  H18R 5067   2.785   3.769   8.219  0.1724  0.5096 -0.2643
   63SAPC  H18S 5068   2.797   3.681   8.067 -1.0322 -0.4398 -0.4195
   63SAPC  C219 5069   2.842   3.573   8.253  0.6559 -0.4904  0.0704
   63SAPC  H19R 5070   2.951   3.586   8.236  0.4417  2.4755  0.5654
   63SAPC  H19S 5071   2.826   3.473   8.207 -4.2631  0.6998 -1.2893
   63SAPC  C220 5072   2.812   3.572   8.403  0.5069  0.2257 -0.5457
   63SAPC  H20R 5073   2.725   3.512   8.437  0.4722  0.2133 -0.6569
   63SAPC  H20S 5074   2.806   3.670   8.457  0.6454 -1.1313  2.1000
   63SAPC  H20T 5075   2.891   3.520   8.461  0.2531  0.9116  0.4371
   63SAPC   C33 5076   2.848   2.795   7.147 -0.2174 -0.3434  0.1396
   63SAPC   H3X 5077   2.792   2.890   7.161  1.1726  0.5106  0.1486
   63SAPC   H3Y 5078   2.950   2.800   7.104  0.3815 -1.0086  1.4199
   63SAPC   C34 5079   2.865   2.742   7.285  0.0410  0.2025 -0.5903
   63SAPC   H4X 5080   2.768   2.716   7.332  0.9769  0.9260  1.8982
   63SAPC   H4Y 5081   2.900   2.829   7.345  1.5330  0.0351 -1.1797
   63SAPC   C35 5082   2.959   2.622   7.294  0.0494  0.0926  0.4388
   63SAPC   H5X 5083   3.060   2.645   7.253  0.5794 -1.4538  0.8198
   63SAPC   H5Y 5084   2.911   2.534   7.246 -2.6965  0.6571  1.9394
   63SAPC   C36 5085   2.985   2.578   7.442  0.4999 -0.0809  0.1667
   63SAPC   H6X 5086   3.057   2.493   7.440  0.9648  0.3106 -0.2255
   63SAPC   H6Y 5087   2.891   2.537   7.485 -0.1841  0.7904 -0.4559
   63SAPC   C37 5088   3.045   2.687   7.531 -0.2675  0.2125 -0.6161
   63SAPC   H7X 5089   2.969   2.766   7.548 -0.0046  0.8986 -2.3893
   63SAPC   H7Y 5090   3.132   2.736   7.482  0.6896 -1.5941 -0.8160
   63SAPC   C38 5091   3.096   2.645   7.673  0.5897  0.1679 -0.1689
   63SAPC   H8X 5092   3.192   2.591   7.659  1.0084  0.6709  0.6708
   63SAPC   H8Y 5093   3.018   2.589   7.729 -0.3665 -0.7817 -2.3567
   63SAPC   C39 5094   3.123   2.769   7.759 -0.7014 -1.5232  0.2217
   63SAPC   H9X 5095   3.039   2.840   7.743 -0.9147 -2.0911 -1.3242
   63SAPC   H9Y 5096   3.220   2.816   7.732  0.2593 -1.0483  3.8666
   63SAPC  C310 5097   3.129   2.744   7.913 -0.3729 -0.5538 -0.6276
   63SAPC  H10X 5098   3.228   2.696   7.926 -0.1249  0.3310  0.9892
   63SAPC  H10Y 5099   3.048   2.674   7.942  0.1085  0.1446  2.8174
   63SAPC  C311 5100   3.135   2.865   8.007 -0.0550 -0.2934 -0.3383
   63SAPC  H11X 5101   3.223   2.925   7.975  0.2049 -0.0447  0.8118
   63SAPC  H11Y 5102   3.159   2.830   8.110 -2.3235  0.5826  0.5486
   63SAPC  C312 5103   3.007   2.952   8.010  0.6529 -0.1105  0.3528
   63SAPC  H12X 5104   2.935   2.906   7.939 -0.4348  0.5621  0.9798
   63SAPC  H12Y 5105   3.013   3.058   7.978 -0.7088  0.1381  0.8081
   63SAPC  C313 5106   2.942   2.953   8.147 -0.2307  0.3220 -1.0878
   63SAPC  H13X 5107   3.018   2.969   8.227 -0.9674  0.7568 -0.4551
   63SAPC  H13Y 5108   2.900   2.851   8.158  1.9997 -0.3782  2.4185
   63SAPC  C314 5109   2.828   3.051   8.177 -0.1195 -0.1891  0.6674
   63SAPC  H14X 5110   2.741   3.043   8.109 -1.5152  2.1879  2.0275
   63SAPC  H14Y 5111   2.866   3.154   8.159 -2.9456  0.3680 -3.2189
   63SAPC  C315 5112   2.775   3.047   8.322 -0.1824  0.3395 -0.3260
   63SAPC  H15X 5113   2.707   3.134   8.335  0.3246  0.6411  0.4120
   63SAPC  H15Y 5114   2.861   3.065   8.391 -0.6261  2.8270 -0.3303
   63SAPC  C316 5115   2.712   2.921   8.361 -0.0966  0.2763  0.2179
   63SAPC  H16X 5116   2.778   2.832   8.356 -1.2830 -0.6652  0.7457
   63SAPC  H16Y 5117   2.625   2.893   8.299 -2.6212  4.3405  1.4681
   63SAPC  C317 5118   2.642   2.934   8.507 -0.6249  0.7346  0.7884
   63SAPC  H17X 5119   2.544   2.981   8.486 -0.3703  1.0942  0.3943
   63SAPC  H17Y 5120   2.711   3.005   8.559  2.3262 -0.8436 -0.7664
   63SAPC  C318 5121   2.623   2.797   8.584  0.0403 -0.3274 -0.4722
   63SAPC  H18X 5122   2.555   2.808   8.672 -1.3697  2.7303 -1.7676
   63SAPC  H18Y 5123   2.723   2.765   8.620  0.3748 -0.4382 -1.4595
   63SAPC  H18Z 5124   2.572   2.730   8.510 -0.8607 -0.1835 -0.0000
   64SAPC     N 5125   4.660   4.497   6.157  0.3542  0.1693 -0.3067
   64SAPC   C12 5126   4.521   4.475   6.203 -0.1019 -0.1006 -0.0126
   64SAPC  H12A 5127   4.496   4.562   6.262 -1.0025 -0.5315  0.2521
   64SAPC  H12B 5128   4.521   4.385   6.262 -0.3480  0.6404  1.1630
   64SAPC   C13 5129   4.691   4.375   6.073 -0.1388  0.5396 -0.5060
   64SAPC  H13A 5130   4.636   4.378   5.980 -0.2048 -1.3340 -0.5604
   64SAPC  H13B 5131   4.797   4.365   6.058  0.5051  0.6634  3.0136
   64SAPC  H13C 5132   4.651   4.284   6.113  0.0922  0.5330 -0.2894
   64SAPC   C14 5133   4.680   4.625   6.080 -0.0902 -0.2052 -0.6381
   64SAPC  H14A 5134   4.609   4.638   6.000 -0.1536 -2.9224 -1.1335
   64SAPC  H14B 5135   4.672   4.710   6.146 -3.6384  0.2965 -1.5284
   64SAPC  H14C 5136   4.781   4.625   6.042  0.6405 -3.7448  0.8256
   64SAPC   C15 5137   4.748   4.495   6.273  0.7309  0.1960 -0.2975
   64SAPC  H15A 5138   4.721   4.416   6.342 -0.9353  2.1059  1.3599
   64SAPC  H15B 5139   4.853   4.492   6.247  0.6142  1.4916 -0.9628
   64SAPC  H15C 5140   4.747   4.590   6.324  0.7306  0.1562 -0.2227
   64SAPC   C11 5141   4.412   4.451   6.099 -0.2583  0.2239 -0.4865
   64SAPC  H11A 5142   4.421   4.516   6.009 -0.1509 -1.6341 -1.9025
   64SAPC  H11B 5143   4.314   4.465   6.148  0.5830 -0.3257  1.4410
   64SAPC     P 5144   4.361   4.192   6.118  0.1816 -0.6142  0.4418
   64SAPC   O13 5145   4.217   4.177   6.091  0.2483 -0.4868 -0.1924
   64SAPC   O14 5146   4.449   4.078   6.094 -0.7053  0.7220  0.5141
   64SAPC   O12 5147   4.417   4.316   6.040 -0.0813 -0.7159 -0.5797
   64SAPC   O11 5148   4.390   4.242   6.266  1.1347  0.9574 -0.0788
   64SAPC    C1 5149   4.278   4.280   6.354 -0.0600 -0.5757 -0.1393
   64SAPC    HA 5150   4.251   4.388   6.341  0.1538 -0.4054  0.7762
   64SAPC    HB 5151   4.182   4.224   6.350 -0.2634 -0.2257 -0.3076
   64SAPC    C2 5152   4.313   4.254   6.501 -0.3535  0.1614 -0.7589
   64SAPC    HS 5153   4.222   4.291   6.553  0.1004  0.5082 -0.1834
   64SAPC   O21 5154   4.427   4.339   6.545  0.3147  0.1056 -0.2131
   64SAPC   C21 5155   4.434   4.369   6.672  0.4024 -0.5133 -0.3001
   64SAPC   O22 5156   4.345   4.343   6.755  0.3649  0.1558 -0.1175
   64SAPC   C22 5157   4.580   4.415   6.703  0.2073  0.6029 -0.1094
   64SAPC   H2R 5158   4.636   4.320   6.717 -0.3899  0.0259 -1.4710
   64SAPC   H2S 5159   4.624   4.460   6.612  2.2543 -0.0424  0.4880
   64SAPC    C3 5160   4.330   4.106   6.539  0.1127 -0.1425  0.5178
   64SAPC    HX 5161   4.419   4.082   6.477  1.5959  4.4339  0.5364
   64SAPC    HY 5162   4.257   4.029   6.507  0.6783 -1.0720  1.3816
   64SAPC   O31 5163   4.363   4.083   6.677 -1.0780 -0.6024 -0.5741
   64SAPC   C31 5164   4.246   4.079   6.754  0.0176 -0.5962  0.3880
   64SAPC   O32 5165   4.128   4.096   6.710  0.0615 -0.2522  0.3066
   64SAPC   C32 5166   4.282   4.062   6.899 -0.0109 -0.2234  0.6819
   64SAPC   H2X 5167   4.351   4.140   6.938 -1.6892  1.4466  0.4429
   64SAPC   H2Y 5168   4.323   3.960   6.909  0.3286 -0.3216 -1.2710
   64SAPC   C23 5169   4.589   4.504   6.826 -0.0214  0.4475  0.2510
   64SAPC   H3R 5170   4.697   4.520   6.845  0.2961 -1.6740  0.4603
   64SAPC   H3S 5171   4.551   4.448   6.914  0.4363 -1.1310 -0.5289
   64SAPC   C24 5172   4.505   4.636   6.819 -0.4183  0.4506 -0.0537
   64SAPC   H4R 5173   4.403   4.602   6.792  0.3109 -0.6833 -1.4811
   64SAPC   H4S 5174   4.533   4.702   6.735 -1.8262  1.4820  0.2514
   64SAPC   C25 5175   4.492   4.713   6.949  0.0241 -0.0276 -0.0455
   64SAPC   H5R 5176   4.395   4.701   7.000  0.6617 -1.1406  0.9663
   64SAPC   C26 5177   4.593   4.775   7.017  0.4180 -0.0110 -0.1715
   64SAPC   H6R 5178   4.555   4.835   7.101  1.7510  0.3403  0.1906
   64SAPC   C27 5179   4.733   4.789   6.968  0.4394  0.5641  0.2164
   64SAPC   H7R 5180   4.742   4.742   6.867 -0.4563  0.3764  0.2101
   64SAPC   H7S 5181   4.793   4.728   7.039 -1.9961 -0.9737  1.0756
   64SAPC   C28 5182   4.781   4.928   6.961 -0.3429  0.3029  0.2908
   64SAPC   H8R 5183   4.782   4.961   6.856  0.1067 -1.3888 -0.2583
   64SAPC   C29 5184   4.828   5.003   7.058 -0.3077 -0.2580  0.0607
   64SAPC   H9R 5185   4.873   5.100   7.033 -2.6413  1.2082  1.1581
   64SAPC  C210 5186   4.838   4.978   7.203  0.2788 -0.4130 -0.3006
   64SAPC  H10R 5187   4.941   4.944   7.223  0.1396 -0.7194 -0.1002
   64SAPC  H10S 5188   4.789   4.882   7.229  2.1001 -0.9127  1.4861
   64SAPC  C211 5189   4.791   5.091   7.292  0.5248 -0.3516  0.4465
   64SAPC  H11R 5190   4.757   5.183   7.242 -3.3615  0.2464  3.6183
   64SAPC  C212 5191   4.781   5.084   7.427  0.0104 -0.5169  0.2162
   64SAPC  H12R 5192   4.744   5.173   7.479  1.8388 -0.9990  2.4830
   64SAPC  C213 5193   4.828   4.968   7.513  0.0403 -0.4570 -0.3268
   64SAPC  H13R 5194   4.907   4.907   7.463 -1.0440 -1.4051 -0.9389
   64SAPC  H13S 5195   4.739   4.906   7.537  0.2692 -0.8872 -0.5808
   64SAPC  C214 5196   4.873   5.027   7.641 -0.0833 -0.3001 -0.2199
   64SAPC  H14R 5197   4.889   5.135   7.653 -0.5869 -0.0889 -1.3385
   64SAPC  C215 5198   4.910   4.951   7.744 -0.4592  0.3957 -0.0226
   64SAPC  H15R 5199   4.956   5.003   7.829  0.3682  1.2565 -0.9564
   64SAPC  C216 5200   4.898   4.804   7.754 -0.1696  1.0927 -0.3419
   64SAPC  H16R 5201   4.992   4.746   7.765 -1.0830 -0.3316  0.1658
   64SAPC  H16S 5202   4.837   4.753   7.676  0.2852 -1.1000  0.6594
   64SAPC  C217 5203   4.829   4.760   7.887  0.4365 -0.2803  1.2973
   64SAPC  H17R 5204   4.831   4.649   7.893 -0.4938 -0.3803 -0.0198
   64SAPC  H17S 5205   4.721   4.767   7.864  0.6384  2.4410  0.9311
   64SAPC  C218 5206   4.864   4.841   8.012 -0.4616 -0.1374 -0.2877
   64SAPC  H18R 5207   4.841   4.946   7.983 -0.9471 -0.5434 -1.4389
   64SAPC  H18S 5208   4.971   4.829   8.041 -0.7675 -2.0797  0.1259
   64SAPC  C219 5209   4.774   4.800   8.123 -0.2312 -0.1556  0.1891
   64SAPC  H19R 5210   4.792   4.694   8.149 -2.1096 -0.3486  0.8102
   64SAPC  H19S 5211   4.673   4.803   8.077  0.2210 -1.3536 -0.9320
   64SAPC  C220 5212   4.770   4.904   8.237  0.4258  0.5297  0.2577
   64SAPC  H20R 5213   4.871   4.902   8.283 -0.5405 -1.5892  2.5268
   64SAPC  H20S 5214   4.696   4.866   8.312  0.6050 -0.2491  0.0450
   64SAPC  H20T 5215   4.748   5.008   8.204  2.0246  0.9223  0.3617
   64SAPC   C33 5216   4.159   4.070   6.990  0.2271 -0.4439 -0.7751
   64SAPC   H3X 5217   4.068   4.014   6.958  0.4674 -0.7137 -0.9944
   64SAPC   H3Y 5218   4.117   4.173   6.987  0.0077 -0.4087  1.6979
   64SAPC   C34 5219   4.184   4.039   7.142  0.3709 -0.0847 -0.4392
   64SAPC   H4X 5220   4.084   4.038   7.189  0.4717 -2.1583 -0.1839
   64SAPC   H4Y 5221   4.247   4.115   7.194 -0.8641 -1.3333  3.1741
   64SAPC   C35 5222   4.263   3.909   7.174 -0.1549 -0.1554 -0.3756
   64SAPC   H5X 5223   4.373   3.910   7.158 -0.2677 -0.6359 -1.2498
   64SAPC   H5Y 5224   4.213   3.827   7.118  0.8900 -1.5103  0.5871
   64SAPC   C36 5225   4.239   3.875   7.320 -0.2649  0.2179 -0.2670
   64SAPC   H6X 5226   4.273   3.773   7.345  0.1567  0.7506  1.5024
   64SAPC   H6Y 5227   4.131   3.857   7.343 -0.5287  0.5899 -1.1631
   64SAPC   C37 5228   4.318   3.971   7.416  0.0981  0.3136  0.6803
   64SAPC   H7X 5229   4.257   4.063   7.407 -0.0389  0.5776  3.4677
   64SAPC   H7Y 5230   4.416   3.999   7.372 -1.0204  0.1280 -2.1286
   64SAPC   C38 5231   4.336   3.914   7.556 -0.4877  0.4998  0.3210
   64SAPC   H8X 5232   4.345   3.804   7.561  0.4739  0.6021  1.3058
   64SAPC   H8Y 5233   4.258   3.947   7.627  0.6652  0.1061  1.8361
   64SAPC   C39 5234   4.467   3.963   7.625  0.1220 -0.3127  0.4969
   64SAPC   H9X 5235   4.465   4.073   7.640  2.0867 -0.3489  1.3556
   64SAPC   H9Y 5236   4.551   3.934   7.558 -0.4422 -1.0231  0.0916
   64SAPC  C310 5237   4.496   3.894   7.760  0.7580  0.0332  0.0035
   64SAPC  H10X 5238   4.494   3.785   7.737 -0.9842  0.0319  0.0383
   64SAPC  H10Y 5239   4.419   3.918   7.836  0.9048 -0.5007  0.3252
   64SAPC  C311 5240   4.637   3.935   7.807 -0.0333  0.3444 -0.6800
   64SAPC  H11X 5241   4.647   4.043   7.830 -0.7367  0.3435 -0.3303
   64SAPC  H11Y 5242   4.713   3.898   7.735 -0.4395 -0.9302 -0.4742
   64SAPC  C312 5243   4.670   3.858   7.944 -0.1522 -0.0297 -0.1751
   64SAPC  H12X 5244   4.781   3.856   7.949 -0.2184 -1.1641  2.0883
   64SAPC  H12Y 5245   4.632   3.755   7.929 -0.2425 -0.0518  0.2015
   64SAPC  C313 5246   4.611   3.918   8.062  0.3651  0.0563 -0.7126
   64SAPC  H13X 5247   4.500   3.922   8.055  0.4430  0.0645 -2.2162
   64SAPC  H13Y 5248   4.637   4.026   8.076  0.0959  0.3017 -1.9858
   64SAPC  C314 5249   4.645   3.833   8.191  0.2630 -0.6269  0.6071
   64SAPC  H14X 5250   4.754   3.812   8.199  0.3499 -1.0140 -1.2128
   64SAPC  H14Y 5251   4.580   3.743   8.189 -1.8747  0.8728 -0.8559
   64SAPC  C315 5252   4.589   3.920   8.322 -0.2550  0.0296  0.5291
   64SAPC  H15X 5253   4.494   3.968   8.290 -0.8176 -1.0023  0.5866
   64SAPC  H15Y 5254   4.662   4.000   8.346 -1.4278  1.7217 -1.2325
   64SAPC  C316 5255   4.549   3.837   8.447 -0.0952  1.1355  0.5305
   64SAPC  H16X 5256   4.504   3.743   8.410 -1.8503  2.0403  0.2999
   64SAPC  H16Y 5257   4.472   3.898   8.499  2.7765  3.3633  2.5461
   64SAPC  C317 5258   4.663   3.823   8.549 -0.5405 -0.6269 -0.1612
   64SAPC  H17X 5259   4.747   3.765   8.506  0.0928 -0.1186  0.3677
   64SAPC  H17Y 5260   4.630   3.746   8.621 -2.9724  0.3449 -0.1440
   64SAPC  C318 5261   4.708   3.948   8.624  0.1064  0.5522  0.1661
   64SAPC  H18X 5262   4.635   3.988   8.698  1.2262 -0.8435  2.1104
   64SAPC  H18Y 5263   4.722   4.037   8.559  1.4563  0.8214  0.7976
   64SAPC  H18Z 5264   4.803   3.938   8.681 -0.3719  1.2202  1.1151
   65SAPC     N 5265   1.737   4.458   5.981 -0.0428  0.1903 -0.3086
   65SAPC   C12 5266   1.834   4.465   6.096 -0.4598 -0.1545  0.4314
   65SAPC  H12A 5267   1.800   4.413   6.183 -1.6345 -2.7261 -1.4330
   65SAPC  H12B 5268   1.831   4.568   6.129  1.1175  0.2669 -0.6191
   65SAPC   C13 5269   1.594   4.464   6.024 -0.3054 -0.5989  0.5439
   65SAPC  H13A 5270   1.522   4.463   5.944  1.0491  3.9552 -1.0842
   65SAPC  H13B 5271   1.566   4.389   6.096  0.7052  0.1642  1.7667
   65SAPC  H13C 5272   1.570   4.556   6.076 -2.6009 -0.3499 -0.8003
   65SAPC   C14 5273   1.769   4.576   5.884  0.2901  0.0346  0.0514
   65SAPC  H14A 5274   1.723   4.564   5.787  1.4011 -2.3045 -0.2464
   65SAPC  H14B 5275   1.729   4.671   5.917  0.3066  0.2803 -0.6264
   65SAPC  H14C 5276   1.876   4.587   5.871  0.0068  3.8326 -0.2418
   65SAPC   C15 5277   1.752   4.327   5.911 -0.4508  0.1569 -0.4044
   65SAPC  H15A 5278   1.762   4.247   5.983 -2.0846 -0.1693 -0.5072
   65SAPC  H15B 5279   1.669   4.299   5.849  0.0410  0.3572 -1.1638
   65SAPC  H15C 5280   1.843   4.340   5.854 -0.3911  1.9065  0.0194
   65SAPC   C11 5281   1.979   4.413   6.072  0.1636  0.5616 -0.3975
   65SAPC  H11A 5282   1.970   4.312   6.027  0.6098  1.4686 -2.6166
   65SAPC  H11B 5283   2.033   4.402   6.169 -1.1087 -0.9057  0.1951
   65SAPC     P 5284   2.091   4.638   6.011  0.6033  0.2311 -0.2303
   65SAPC   O13 5285   2.238   4.623   6.016 -0.0913  0.0984 -0.1449
   65SAPC   O14 5286   2.043   4.731   5.908 -0.4340 -0.0588  0.6643
   65SAPC   O12 5287   2.048   4.494   5.983 -0.1186  0.0383 -0.3458
   65SAPC   O11 5288   2.028   4.660   6.148 -0.3082 -0.1606  0.1432
   65SAPC    C1 5289   2.012   4.797   6.199 -0.1294 -0.1176 -0.5154
   65SAPC    HA 5290   2.112   4.845   6.203  0.2487 -0.9030 -0.2942
   65SAPC    HB 5291   1.947   4.858   6.133  0.3635 -0.1115 -1.0022
   65SAPC    C2 5292   1.954   4.798   6.345  0.4987  0.4048  0.0258
   65SAPC    HS 5293   2.010   4.880   6.395  1.2676  0.0263 -0.1950
   65SAPC   O21 5294   1.976   4.677   6.424 -0.2058 -0.0459  0.0127
   65SAPC   C21 5295   2.094   4.634   6.446  0.3738  0.1303  0.8120
   65SAPC   O22 5296   2.198   4.700   6.446  0.4384 -0.1610  0.4013
   65SAPC   C22 5297   2.084   4.486   6.476  0.4603  0.6765 -0.0179
   65SAPC   H2R 5298   1.994   4.475   6.539  0.4860  1.5221  0.1867
   65SAPC   H2S 5299   2.064   4.444   6.375  0.5840  2.8406 -1.0212
   65SAPC    C3 5300   1.804   4.831   6.356  0.3645 -0.3397 -0.0948
   65SAPC    HX 5301   1.767   4.752   6.287  1.4000 -0.8393 -0.0949
   65SAPC    HY 5302   1.793   4.928   6.302 -0.5953 -0.4084 -0.0458
   65SAPC   O31 5303   1.748   4.823   6.488  0.7743  0.1895  0.3053
   65SAPC   C31 5304   1.777   4.938   6.556 -0.3923 -0.6743  0.1939
   65SAPC   O32 5305   1.866   5.017   6.520 -0.1339  0.6182 -0.0639
   65SAPC   C32 5306   1.687   4.945   6.680 -1.2718 -0.1709 -0.9280
   65SAPC   H2X 5307   1.655   4.842   6.706 -1.1752 -1.3249 -4.8091
   65SAPC   H2Y 5308   1.593   4.997   6.653 -1.3806 -0.6284 -1.4540
   65SAPC   C23 5309   2.201   4.420   6.547 -0.1502  0.2385  0.5226
   65SAPC   H3R 5310   2.221   4.468   6.645  2.0806 -0.7602  0.6101
   65SAPC   H3S 5311   2.296   4.420   6.489  0.1852  0.5256  1.0627
   65SAPC   C24 5312   2.176   4.267   6.572  0.0937 -0.4137 -0.1826
   65SAPC   H4R 5313   2.278   4.226   6.591  0.6872  0.7006 -0.8687
   65SAPC   H4S 5314   2.153   4.232   6.470 -0.3052  2.4113 -1.1522
   65SAPC   C25 5315   2.069   4.231   6.670  0.0369 -0.2705 -0.7799
   65SAPC   H5R 5316   1.963   4.238   6.643 -0.2194 -1.0266 -0.0150
   65SAPC   C26 5317   2.104   4.208   6.798  0.4253  0.4849  0.0068
   65SAPC   H6R 5318   2.015   4.211   6.862 -0.3566  1.6119 -1.0663
   65SAPC   C27 5319   2.238   4.208   6.868  0.7383  0.7340  0.4676
   65SAPC   H7R 5320   2.219   4.259   6.965 -0.6484  0.1941  0.5079
   65SAPC   H7S 5321   2.320   4.257   6.811  0.6966  0.9543  0.5960
   65SAPC   C28 5322   2.285   4.065   6.893  0.0594 -0.1407  0.5362
   65SAPC   H8R 5323   2.217   3.993   6.846 -1.6136  0.8124  1.4091
   65SAPC   C29 5324   2.379   4.032   6.976 -0.1080  0.3733 -0.6810
   65SAPC   H9R 5325   2.408   3.926   6.968  0.1664  0.3994 -0.0741
   65SAPC  C210 5326   2.475   4.117   7.063  0.6352 -1.1688 -0.0100
   65SAPC  H10R 5327   2.439   4.221   7.050  1.5521 -0.7351  0.7555
   65SAPC  H10S 5328   2.576   4.129   7.017  0.5445  0.3714  0.1592
   65SAPC  C211 5329   2.465   4.070   7.210 -0.5260 -0.1840  0.8753
   65SAPC  H11R 5330   2.549   4.003   7.235  0.0445  0.4465  0.6994
   65SAPC  C212 5331   2.386   4.117   7.304  0.2336 -1.0052 -0.0472
   65SAPC  H12R 5332   2.386   4.067   7.403  0.7497 -0.0133  0.4690
   65SAPC  C213 5333   2.287   4.230   7.283  0.1124  0.5821 -0.1235
   65SAPC  H13R 5334   2.262   4.225   7.175 -2.7874  0.4681  0.4850
   65SAPC  H13S 5335   2.340   4.328   7.292  0.2147  0.4891  0.2944
   65SAPC  C214 5336   2.160   4.238   7.364  0.0094 -0.2713 -0.0410
   65SAPC  H14R 5337   2.070   4.251   7.303 -0.2282  0.4671  0.4447
   65SAPC  C215 5338   2.154   4.246   7.497 -0.2947 -0.1432 -0.0317
   65SAPC  H15R 5339   2.057   4.260   7.546  0.0854 -2.0699  1.3767
   65SAPC  C216 5340   2.265   4.241   7.593 -0.4858 -0.3397 -0.8502
   65SAPC  H16R 5341   2.308   4.342   7.613 -2.0182  0.2854 -0.5030
   65SAPC  H16S 5342   2.355   4.184   7.562  0.4914  1.4383 -1.4022
   65SAPC  C217 5343   2.237   4.171   7.731 -0.0441 -0.1536  0.5890
   65SAPC  H17R 5344   2.338   4.176   7.778  0.4256 -0.3455 -0.3816
   65SAPC  H17S 5345   2.207   4.065   7.729 -1.5378  0.2039  2.0792
   65SAPC  C218 5346   2.145   4.253   7.822 -0.2141 -0.1711  0.0958
   65SAPC  H18R 5347   2.042   4.250   7.781 -0.9369  0.4292  1.7743
   65SAPC  H18S 5348   2.173   4.361   7.823  0.7758 -0.3649  3.0884
   65SAPC  C219 5349   2.119   4.199   7.966 -0.1792 -0.5628  0.1327
   65SAPC  H19R 5350   2.098   4.090   7.957 -4.6846  0.1270  0.0066
   65SAPC  H19S 5351   2.031   4.234   8.024 -0.1899  0.2028 -0.3373
   65SAPC  C220 5352   2.242   4.227   8.057 -0.7726  0.2794  0.6225
   65SAPC  H20R 5353   2.219   4.185   8.157 -1.8247  1.2756  0.8187
   65SAPC  H20S 5354   2.273   4.333   8.055 -1.7635  0.7005  3.3975
   65SAPC  H20T 5355   2.327   4.169   8.014 -1.4539 -0.6233  0.4553
   65SAPC   C33 5356   1.759   5.023   6.795  0.2394 -0.7375  0.5316
   65SAPC   H3X 5357   1.785   5.120   6.746  1.2044 -1.9096 -1.3776
   65SAPC   H3Y 5358   1.854   4.979   6.831  0.1385 -0.8515  0.6573
   65SAPC   C34 5359   1.672   5.047   6.917 -0.7272 -0.6783 -0.0854
   65SAPC   H4X 5360   1.576   5.088   6.879 -0.3443 -1.9213 -2.5908
   65SAPC   H4Y 5361   1.713   5.121   6.989  1.3721 -0.8448 -1.0525
   65SAPC   C35 5362   1.657   4.920   7.000 -0.5327 -0.2702  0.0906
   65SAPC   H5X 5363   1.760   4.895   7.032 -0.9569 -2.4559 -0.0500
   65SAPC   H5Y 5364   1.620   4.839   6.933 -3.2647  0.9223  0.0098
   65SAPC   C36 5365   1.576   4.943   7.122 -0.1094  0.7336 -0.1663
   65SAPC   H6X 5366   1.478   4.988   7.095 -0.4645 -0.8340 -1.6354
   65SAPC   H6Y 5367   1.623   5.006   7.201  1.7858 -1.3838  0.4977
   65SAPC   C37 5368   1.539   4.806   7.191  0.3888  0.5532  0.1985
   65SAPC   H7X 5369   1.622   4.743   7.229 -0.7996  0.4329  2.8534
   65SAPC   H7Y 5370   1.476   4.743   7.125 -0.1086 -0.4587  1.5777
   65SAPC   C38 5371   1.451   4.820   7.320 -0.2489 -0.7977 -0.1478
   65SAPC   H8X 5372   1.380   4.739   7.346  0.1333 -0.0851  3.8370
   65SAPC   H8Y 5373   1.394   4.913   7.301  2.0462  0.4463 -1.3632
   65SAPC   C39 5374   1.541   4.847   7.447  0.0433  1.3355  0.1785
   65SAPC   H9X 5375   1.605   4.938   7.439  3.7174 -1.1152 -0.3595
   65SAPC   H9Y 5376   1.617   4.767   7.451 -2.0442 -0.7300  0.9864
   65SAPC  C310 5377   1.461   4.842   7.586  0.8003  1.0375  0.7588
   65SAPC  H10X 5378   1.404   4.747   7.597 -0.4080  1.5410 -0.8160
   65SAPC  H10Y 5379   1.384   4.921   7.583 -0.6072 -0.2683  1.0697
   65SAPC  C311 5380   1.551   4.855   7.702 -0.5195 -0.3574 -1.0880
   65SAPC  H11X 5381   1.601   4.955   7.702  1.3929 -1.2285  0.8096
   65SAPC  H11Y 5382   1.634   4.782   7.697 -0.2119  0.0530 -2.2024
   65SAPC  C312 5383   1.476   4.829   7.840 -1.1038  0.6648 -0.0919
   65SAPC  H12X 5384   1.553   4.796   7.914  0.7518 -0.8702 -2.5457
   65SAPC  H12Y 5385   1.412   4.739   7.824 -1.4460  1.2853 -2.5705
   65SAPC  C313 5386   1.395   4.947   7.895 -0.2000  0.5890  0.5637
   65SAPC  H13X 5387   1.349   4.988   7.802  0.7781  0.8460  0.1845
   65SAPC  H13Y 5388   1.464   5.028   7.927 -0.3301  0.9580 -0.0551
   65SAPC  C314 5389   1.290   4.913   8.000 -0.7307  0.2004  0.1764
   65SAPC  H14X 5390   1.243   4.818   7.965 -0.2765  0.2620 -0.6425
   65SAPC  H14Y 5391   1.209   4.988   8.009 -1.2617 -0.3392  0.0245
   65SAPC  C315 5392   1.363   4.898   8.135  0.9705  0.0580  0.5507
   65SAPC  H15X 5393   1.403   4.991   8.179  0.6252 -0.9639  3.1597
   65SAPC  H15Y 5394   1.452   4.834   8.114 -0.8605 -2.7042  0.5803
   65SAPC  C316 5395   1.277   4.823   8.241  0.5826  0.8811 -0.0130
   65SAPC  H16X 5396   1.245   4.726   8.197 -1.6735  1.9008 -0.7677
   65SAPC  H16Y 5397   1.188   4.890   8.250 -0.8734 -1.1524  1.6833
   65SAPC  C317 5398   1.347   4.815   8.377  0.2542 -0.2037  0.1049
   65SAPC  H17X 5399   1.275   4.759   8.440 -0.0414 -0.3788 -0.3878
   65SAPC  H17Y 5400   1.374   4.917   8.413  1.0989 -0.6791  0.8823
   65SAPC  C318 5401   1.473   4.727   8.380  0.6445  0.2640 -0.1658
   65SAPC  H18X 5402   1.449   4.626   8.340 -2.2097  1.9890 -3.3959
   65SAPC  H18Y 5403   1.512   4.732   8.484 -1.2552  2.3863  0.5172
   65SAPC  H18Z 5404   1.541   4.764   8.300 -1.9617  2.2873 -1.5964
   66SAPC     N 5405   0.096   4.624   6.380  0.4069 -0.0404 -0.2344
   66SAPC   C12 5406   0.173   4.750   6.415  1.0729 -0.2458  0.7793
   66SAPC  H12A 5407   0.109   4.837   6.413  1.2815 -0.1055 -0.2736
   66SAPC  H12B 5408   0.235   4.762   6.328  1.1833 -1.5061  0.6694
   66SAPC   C13 5409  -0.000   4.596   6.496  0.2611 -0.0673  0.8385
   66SAPC  H13A 5410   0.063   4.556   6.574  0.9354 -1.6358 -0.4716
   66SAPC  H13B 5411  -0.050   4.685   6.532  0.9312  0.9563 -0.6345
   66SAPC  H13C 5412  -0.074   4.526   6.460  1.8758 -1.6983  0.6048
   66SAPC   C14 5413   0.018   4.641   6.253 -0.4678 -0.7781  0.2458
   66SAPC  H14A 5414   0.091   4.636   6.174  0.2288  0.4571  0.7715
   66SAPC  H14B 5415  -0.056   4.564   6.239  0.4181 -1.8339  1.1501
   66SAPC  H14C 5416  -0.028   4.738   6.252  1.0729  0.0562  2.2124
   66SAPC   C15 5417   0.183   4.505   6.352 -0.8553  0.0720 -0.4670
   66SAPC  H15A 5418   0.240   4.516   6.261 -1.2697  0.1495 -0.7199
   66SAPC  H15B 5419   0.253   4.490   6.433 -1.2361 -1.9051 -0.4522
   66SAPC  H15C 5420   0.133   4.409   6.346 -0.8779 -0.0642  1.4443
   66SAPC   C11 5421   0.267   4.756   6.535 -0.6081 -0.7478 -0.1001
   66SAPC  H11A 5422   0.211   4.746   6.630 -3.9057 -1.9006 -1.9933
   66SAPC  H11B 5423   0.318   4.854   6.550 -0.0610 -1.2293  1.2975
   66SAPC     P 5424   0.494   4.675   6.453  0.5118  0.1734 -0.1820
   66SAPC   O13 5425   0.571   4.548   6.448  0.3899  0.2856  0.5656
   66SAPC   O14 5426   0.465   4.744   6.329 -0.1951 -0.5987  0.2831
   66SAPC   O12 5427   0.363   4.652   6.532  0.0621 -0.0287 -0.1558
   66SAPC   O11 5428   0.580   4.768   6.551  0.1623 -0.3075  0.2496
   66SAPC    C1 5429   0.666   4.861   6.492 -0.0273  0.2806 -0.0497
   66SAPC    HA 5430   0.736   4.829   6.412  0.6006  2.9093 -0.6516
   66SAPC    HB 5431   0.620   4.955   6.456  1.3245  0.1285 -2.4021
   66SAPC    C2 5432   0.776   4.916   6.601  0.7070  0.3321 -0.7525
   66SAPC    HS 5433   0.858   4.842   6.617  1.0243  0.8888  0.2830
   66SAPC   O21 5434   0.704   4.937   6.726  0.5851 -0.4687 -0.1170
   66SAPC   C21 5435   0.705   4.839   6.809 -0.1533  0.5492  0.4169
   66SAPC   O22 5436   0.758   4.727   6.790 -0.4617 -0.1398 -0.2068
   66SAPC   C22 5437   0.626   4.887   6.927  0.3203 -0.4232 -0.0304
   66SAPC   H2R 5438   0.646   4.995   6.945  1.2489 -0.4188 -1.0027
   66SAPC   H2S 5439   0.516   4.877   6.917  0.0853 -1.8097  2.8098
   66SAPC    C3 5440   0.841   5.041   6.545 -0.1442 -0.5858  0.6505
   66SAPC    HX 5441   0.754   5.109   6.528 -0.5959 -1.2097  0.4348
   66SAPC    HY 5442   0.896   5.037   6.449 -1.0827 -3.6542  0.1247
   66SAPC   O31 5443   0.932   5.086   6.647  0.8197 -0.6000  0.2096
   66SAPC   C31 5444   1.062   5.070   6.632 -0.1324 -0.2112 -0.9315
   66SAPC   O32 5445   1.119   5.029   6.533  0.4634  0.4257  0.3759
   66SAPC   C32 5446   1.137   5.116   6.753 -0.5382 -0.1345  0.2352
   66SAPC   H2X 5447   1.106   5.208   6.806  1.4310  0.8462 -0.2085
   66SAPC   H2Y 5448   1.245   5.127   6.728 -0.4575  0.0716  0.6736
   66SAPC   C23 5449   0.663   4.811   7.058 -0.6505  0.3253  0.1176
   66SAPC   H3R 5450   0.762   4.852   7.086 -0.4088 -0.9452  1.2031
   66SAPC   H3S 5451   0.660   4.701   7.044 -2.3495  0.4149 -0.5809
   66SAPC   C24 5452   0.566   4.851   7.174  0.3470  0.3289  0.0003
   66SAPC   H4R 5453   0.459   4.831   7.152  0.1241  1.5809 -0.1416
   66SAPC   H4S 5454   0.562   4.962   7.179 -1.0741  0.3522 -1.0279
   66SAPC   C25 5455   0.612   4.780   7.295 -0.4841  0.2685 -0.2181
   66SAPC   H5R 5456   0.644   4.675   7.288 -0.1429  0.3667 -0.1255
   66SAPC   C26 5457   0.639   4.845   7.410 -0.0210  0.6015  0.0139
   66SAPC   H6R 5458   0.693   4.789   7.488  0.3900  0.3588 -0.4371
   66SAPC   C27 5459   0.624   4.990   7.446 -0.6654 -0.5858 -0.2267
   66SAPC   H7R 5460   0.639   5.055   7.357  0.3315 -1.1266 -0.4674
   66SAPC   H7S 5461   0.695   5.021   7.525 -0.9471 -2.1973  0.6916
   66SAPC   C28 5462   0.486   5.033   7.492  1.0503  0.7457  0.1522
   66SAPC   H8R 5463   0.414   5.048   7.410  0.4854 -0.4857  0.4077
   66SAPC   C29 5464   0.440   5.050   7.615 -0.8532  0.0259 -0.6984
   66SAPC   H9R 5465   0.339   5.092   7.627 -1.0814 -1.0758  1.9120
   66SAPC  C210 5466   0.519   5.039   7.750 -0.2929 -0.6490 -0.3727
   66SAPC  H10R 5467   0.620   4.999   7.730 -0.3077 -1.6251  1.3200
   66SAPC  H10S 5468   0.474   4.953   7.803  0.4226 -1.2010 -0.6539
   66SAPC  C211 5469   0.525   5.164   7.835  0.3963 -0.6296 -0.1716
   66SAPC  H11R 5470   0.592   5.239   7.792 -0.6372 -0.4391 -1.5056
   66SAPC  C212 5471   0.465   5.188   7.954 -0.0826  0.1880 -0.2923
   66SAPC  H12R 5472   0.484   5.277   8.016  1.2857 -0.1505 -0.2033
   66SAPC  C213 5473   0.365   5.095   8.014 -0.1310  0.3685 -0.0949
   66SAPC  H13R 5474   0.304   5.034   7.944 -1.4888  0.3929  1.0187
   66SAPC  H13S 5475   0.289   5.143   8.080 -0.6654  0.9339 -1.0904
   66SAPC  C214 5476   0.442   4.998   8.107  0.1140  0.0849  0.3510
   66SAPC  H14R 5477   0.479   4.902   8.069  1.1786  0.1289  1.2367
   66SAPC  C215 5478   0.459   5.015   8.238 -0.4983  0.0124  0.8890
   66SAPC  H15R 5479   0.503   4.929   8.291  0.7409 -0.2504 -0.5205
   66SAPC  C216 5480   0.422   5.131   8.326  0.0452 -0.8762  0.3396
   66SAPC  H16R 5481   0.362   5.210   8.276  1.8184  0.7512  0.6297
   66SAPC  H16S 5482   0.512   5.185   8.364 -0.3504  1.4785 -1.8420
   66SAPC  C217 5483   0.333   5.080   8.441 -0.4000 -0.2015 -0.3286
   66SAPC  H17R 5484   0.256   5.009   8.406  1.3816 -3.6536  2.2172
   66SAPC  H17S 5485   0.281   5.168   8.486 -0.6458  1.0367 -2.8204
   66SAPC  C218 5486   0.412   5.008   8.549 -0.5405 -1.0899 -0.1964
   66SAPC  H18R 5487   0.506   5.066   8.561 -2.1353  1.3359  1.5123
   66SAPC  H18S 5488   0.443   4.908   8.511  2.3910 -0.1103 -0.6388
   66SAPC  C219 5489   0.338   4.998   8.683 -0.0342  0.1768 -0.3564
   66SAPC  H19R 5490   0.327   5.098   8.731  1.9916 -0.7590  2.2680
   66SAPC  H19S 5491   0.412   4.946   8.748  0.6179  0.0140 -1.2152
   66SAPC  C220 5492   0.201   4.940   8.673 -0.1281  0.1758  0.2105
   66SAPC  H20R 5493   0.183   4.849   8.613 -0.0107 -0.3161  0.9129
   66SAPC  H20S 5494   0.129   5.016   8.636 -1.4695 -1.8500 -1.5467
   66SAPC  H20T 5495   0.163   4.922   8.776  1.6716  1.6088  1.2037
   66SAPC   C33 5496   1.123   4.999   6.864  0.1942  0.2019 -0.2906
   66SAPC   H3X 5497   1.206   4.933   6.831  0.9101  0.9401  0.0056
   66SAPC   H3Y 5498   1.027   4.946   6.847 -0.1396  0.5013  0.6106
   66SAPC   C34 5499   1.129   5.057   7.004  0.6447 -0.7648 -0.0212
   66SAPC   H4X 5500   1.055   5.140   7.014 -0.5746 -1.6245 -1.5277
   66SAPC   H4Y 5501   1.230   5.097   7.028 -0.3795  2.1335 -0.1160
   66SAPC   C35 5502   1.100   4.955   7.111 -0.3163  0.4431  0.7152
   66SAPC   H5X 5503   1.170   4.869   7.111 -1.0340 -0.1828 -0.6557
   66SAPC   H5Y 5504   0.999   4.909   7.101 -1.0763  2.1321  0.2924
   66SAPC   C36 5505   1.108   5.009   7.257  0.4172  0.3740  0.5197
   66SAPC   H6X 5506   1.022   5.077   7.273  0.5749  0.8657 -0.6233
   66SAPC   H6Y 5507   1.206   5.061   7.272  0.1691  1.0971 -0.2760
   66SAPC   C37 5508   1.097   4.902   7.364 -0.0769 -0.3063  0.4490
   66SAPC   H7X 5509   1.180   4.827   7.361  0.1834 -0.0446  0.9590
   66SAPC   H7Y 5510   1.002   4.845   7.358 -1.1471  1.1454  2.4949
   66SAPC   C38 5511   1.112   4.967   7.499  0.4179 -0.0194  0.5854
   66SAPC   H8X 5512   1.022   5.033   7.502 -0.3685 -0.8044 -2.3863
   66SAPC   H8Y 5513   1.200   5.032   7.514  0.1099  1.0373 -1.7081
   66SAPC   C39 5514   1.094   4.871   7.621  0.3470  0.1641  0.5081
   66SAPC   H9X 5515   1.189   4.837   7.670  0.2312  0.2802  0.8156
   66SAPC   H9Y 5516   1.036   4.783   7.585 -0.7608  0.9522  0.3325
   66SAPC  C310 5517   1.016   4.954   7.727 -0.6167 -0.5207 -0.4752
   66SAPC  H10X 5518   0.927   5.009   7.690 -0.5538  0.0424  0.2039
   66SAPC  H10Y 5519   1.095   5.022   7.765  1.0418 -1.7331 -1.6017
   66SAPC  C311 5520   0.967   4.873   7.843 -0.0712 -0.0234  0.3963
   66SAPC  H11X 5521   1.050   4.810   7.881  1.6553  0.3082 -2.5782
   66SAPC  H11Y 5522   0.900   4.793   7.805  1.2507 -0.6962 -0.6177
   66SAPC  C312 5523   0.901   4.962   7.950 -0.3888  0.3859  0.7719
   66SAPC  H12X 5524   0.797   4.984   7.918 -0.3954 -0.5751  0.0812
   66SAPC  H12Y 5525   0.962   5.054   7.966 -1.1226  0.2892  5.1002
   66SAPC  C313 5526   0.903   4.891   8.087 -0.2804  0.3250  0.0385
   66SAPC  H13X 5527   1.002   4.851   8.114  1.1087  1.7346 -2.5561
   66SAPC  H13Y 5528   0.830   4.808   8.073  0.1227  0.2603 -2.0755
   66SAPC  C314 5529   0.843   4.973   8.207 -0.3222 -0.0652  0.3750
   66SAPC  H14X 5530   0.750   5.028   8.179  0.2510  2.1541  2.5608
   66SAPC  H14Y 5531   0.905   5.055   8.247  2.1558 -1.9013  0.4950
   66SAPC  C315 5532   0.809   4.873   8.319  0.2057 -0.0622 -0.3466
   66SAPC  H15X 5533   0.905   4.820   8.337 -0.1904 -0.0626  2.0794
   66SAPC  H15Y 5534   0.734   4.796   8.290 -0.5828  0.5189  0.1033
   66SAPC  C316 5535   0.770   4.957   8.444 -0.0892  0.5567 -0.3104
   66SAPC  H16X 5536   0.666   4.987   8.422  0.1285  1.6417  0.1009
   66SAPC  H16Y 5537   0.820   5.054   8.466 -2.2012  1.9073 -1.1817
   66SAPC  C317 5538   0.766   4.873   8.576  0.5346 -0.6276  0.5755
   66SAPC  H17X 5539   0.703   4.925   8.651  0.9396 -0.3661  0.7415
   66SAPC  H17Y 5540   0.872   4.881   8.609  0.1029  1.8335  1.5904
   66SAPC  C318 5541   0.720   4.730   8.576 -0.0306 -0.3585  0.1251
   66SAPC  H18X 5542   0.621   4.704   8.533 -0.1973  1.7613 -0.8963
   66SAPC  H18Y 5543   0.708   4.696   8.680 -1.2731  2.5556  1.0371
   66SAPC  H18Z 5544   0.797   4.673   8.520 -0.5629  0.9879 -2.1233
   67SAPC     N 5545   3.139   0.304   6.185 -0.0488 -0.3795  0.1065
   67SAPC   C12 5546   3.218   0.232   6.294 -0.4533 -0.2183  0.0418
   67SAPC  H12A 5547   3.241   0.302   6.374 -1.5997 -0.5158  0.6692
   67SAPC  H12B 5548   3.313   0.207   6.251 -0.7211  0.2712 -0.8579
   67SAPC   C13 5549   3.013   0.360   6.238 -0.3163  0.0368 -0.3480
   67SAPC  H13A 5550   3.039   0.420   6.324  0.9495  1.3951 -1.6138
   67SAPC  H13B 5551   2.957   0.418   6.167 -0.1229 -1.1823 -1.5338
   67SAPC  H13C 5552   2.957   0.277   6.278  1.4699 -0.4128  1.4092
   67SAPC   C14 5553   3.218   0.427   6.144  0.7800 -0.0499  0.0155
   67SAPC  H14A 5554   3.162   0.462   6.059 -0.8203  0.0599  1.0669
   67SAPC  H14B 5555   3.233   0.504   6.218 -0.9698 -0.3231  0.7068
   67SAPC  H14C 5556   3.316   0.392   6.114  0.8588 -0.7289  1.0006
   67SAPC   C15 5557   3.112   0.232   6.063 -0.2764  0.8599  0.1944
   67SAPC  H15A 5558   3.200   0.198   6.010  0.5221  2.0202  0.7240
   67SAPC  H15B 5559   3.047   0.148   6.081 -1.6116  1.2973 -2.1364
   67SAPC  H15C 5560   3.059   0.295   5.992 -3.6636  0.2341  1.9596
   67SAPC   C11 5561   3.166   0.103   6.365 -0.3834 -0.2318  0.4255
   67SAPC  H11A 5562   3.262   0.051   6.387 -0.9783 -1.2004  0.8233
   67SAPC  H11B 5563   3.115   0.038   6.291  0.4415  0.8824 -1.1818
   67SAPC     P 5564   3.139   0.153   6.627  0.0105  0.1270  0.1095
   67SAPC   O13 5565   3.215   0.281   6.626 -0.5332  0.1267  0.6585
   67SAPC   O14 5566   3.022   0.146   6.715  0.0006  0.3610 -0.4091
   67SAPC   O12 5567   3.078   0.128   6.480  0.0159  0.3823 -0.1747
   67SAPC   O11 5568   3.237   0.033   6.659 -0.4985 -0.3052 -0.4011
   67SAPC    C1 5569   3.201  -0.108   6.646  0.8971  1.1329  0.0827
   67SAPC    HA 5570   3.091  -0.126   6.641  0.3679  3.4276  1.5786
   67SAPC    HB 5571   3.225  -0.154   6.548  0.9663 -1.2669  1.1640
   67SAPC    C2 5572   3.257  -0.187   6.767 -0.2180 -0.1334  0.4232
   67SAPC    HS 5573   3.207  -0.286   6.771  0.0962 -0.2560  1.5492
   67SAPC   O21 5574   3.254  -0.111   6.887  0.2341  0.3104 -0.5853
   67SAPC   C21 5575   3.131  -0.082   6.928  0.2079 -0.3361 -0.3414
   67SAPC   O22 5576   3.021  -0.127   6.892  0.0108 -0.2173 -0.1000
   67SAPC   C22 5577   3.136   0.017   7.042 -0.5390  0.1982 -0.2726
   67SAPC   H2R 5578   3.155   0.114   6.991 -3.1500  0.7854 -0.2472
   67SAPC   H2S 5579   3.033   0.040   7.077 -0.3876 -1.0202  1.0617
   67SAPC    C3 5580   3.410  -0.221   6.738  0.1298  0.0059  0.0430
   67SAPC    HX 5581   3.469  -0.131   6.708  0.5984  0.0810  1.1322
   67SAPC    HY 5582   3.405  -0.277   6.642  1.2497 -1.3138  0.7173
   67SAPC   O31 5583   3.470  -0.298   6.848 -0.1842 -0.3368 -0.4233
   67SAPC   C31 5584   3.486  -0.423   6.814  0.1651 -0.5732 -0.1359
   67SAPC   O32 5585   3.432  -0.481   6.721  0.0035 -0.2647  0.0653
   67SAPC   C32 5586   3.568  -0.496   6.907 -0.0430  0.4054  0.7152
   67SAPC   H2X 5587   3.641  -0.429   6.957 -0.3721  0.4891  1.0855
   67SAPC   H2Y 5588   3.630  -0.572   6.853 -0.4318  1.0443 -0.6731
   67SAPC   C23 5589   3.243  -0.021   7.151  0.4181 -0.7877  0.4981
   67SAPC   H3R 5590   3.261   0.074   7.206 -1.5145 -0.4498  0.5888
   67SAPC   H3S 5591   3.337  -0.046   7.097 -0.0024  0.7497 -1.0516
   67SAPC   C24 5592   3.178  -0.131   7.236  0.5130 -0.0385  0.6611
   67SAPC   H4R 5593   3.134  -0.198   7.159 -0.1187  1.4874 -0.3500
   67SAPC   H4S 5594   3.098  -0.087   7.300 -2.5730 -0.9866 -2.2211
   67SAPC   C25 5595   3.294  -0.198   7.308  0.4013  0.2212 -0.3641
   67SAPC   H5R 5596   3.371  -0.237   7.240  1.4560 -0.2407  1.0517
   67SAPC   C26 5597   3.316  -0.210   7.437  0.4703  0.5873  0.2657
   67SAPC   H6R 5598   3.405  -0.263   7.475 -0.4899 -1.6683 -0.4743
   67SAPC   C27 5599   3.220  -0.167   7.544 -0.1116  0.2628 -0.4819
   67SAPC   H7R 5600   3.168  -0.261   7.571  1.6231 -0.6120  0.0057
   67SAPC   H7S 5601   3.146  -0.092   7.510 -1.7085 -0.3568  1.4334
   67SAPC   C28 5602   3.301  -0.115   7.660  0.3810  0.0185 -0.5675
   67SAPC   H8R 5603   3.368  -0.032   7.634  1.1695 -1.2149 -2.6915
   67SAPC   C29 5604   3.290  -0.156   7.792 -0.1017  0.2462  1.4450
   67SAPC   H9R 5605   3.364  -0.109   7.859  2.3500 -1.2090 -0.1136
   67SAPC  C210 5606   3.201  -0.266   7.854 -0.2151 -0.1213  0.2236
   67SAPC  H10R 5607   3.183  -0.352   7.786 -0.5861  0.8919 -1.0016
   67SAPC  H10S 5608   3.101  -0.224   7.878  0.3702  1.7859 -0.4494
   67SAPC  C211 5609   3.262  -0.317   7.981  0.0410 -0.1927  0.3717
   67SAPC  H11R 5610   3.329  -0.404   7.970  2.3991  1.1166  3.0958
   67SAPC  C212 5611   3.245  -0.272   8.108 -0.2463  0.0727  0.5046
   67SAPC  H12R 5612   3.309  -0.320   8.184  1.5279  0.9393 -0.3860
   67SAPC  C213 5613   3.165  -0.146   8.148 -0.3158  0.5111  0.0096
   67SAPC  H13R 5614   3.061  -0.165   8.114 -0.0946  2.2664 -1.8875
   67SAPC  H13S 5615   3.210  -0.057   8.098 -3.0707  2.3973  0.6311
   67SAPC  C214 5616   3.165  -0.117   8.298 -0.1846 -0.0870 -0.5449
   67SAPC  H14R 5617   3.242  -0.045   8.329 -1.2502  0.6943  0.3409
   67SAPC  C215 5618   3.089  -0.173   8.395  0.1479  0.2852  0.0944
   67SAPC  H15R 5619   3.091  -0.125   8.494 -2.6137 -0.1062  0.4191
   67SAPC  C216 5620   2.975  -0.262   8.367  0.8200  0.2374  0.0295
   67SAPC  H16R 5621   3.013  -0.360   8.332  3.0610  1.4986 -1.2905
   67SAPC  H16S 5622   2.910  -0.219   8.287  0.3123  0.8697  0.7612
   67SAPC  C217 5623   2.888  -0.289   8.495  0.3227 -0.2770  0.0239
   67SAPC  H17R 5624   2.863  -0.189   8.535  2.2047  1.1743 -2.1591
   67SAPC  H17S 5625   2.941  -0.350   8.571  0.7247  2.1228  1.7949
   67SAPC  C218 5626   2.753  -0.367   8.468  0.3251 -0.5478 -0.1920
   67SAPC  H18R 5627   2.790  -0.465   8.431  0.4838  0.2121 -2.1769
   67SAPC  H18S 5628   2.693  -0.308   8.395  1.6458  2.1302  0.7336
   67SAPC  C219 5629   2.675  -0.376   8.597  0.0945 -0.6510  0.1092
   67SAPC  H19R 5630   2.714  -0.303   8.672 -1.6431  0.5898 -0.1519
   67SAPC  H19S 5631   2.702  -0.475   8.641  2.3475 -0.4039 -0.6025
   67SAPC  C220 5632   2.523  -0.356   8.575  0.4408 -0.3132 -0.3275
   67SAPC  H20R 5633   2.505  -0.253   8.538  1.8656 -0.7018 -2.3029
   67SAPC  H20S 5634   2.470  -0.368   8.671  0.6207  1.6780  0.0599
   67SAPC  H20T 5635   2.479  -0.430   8.505  1.4859 -2.0640  0.7832
   67SAPC   C33 5636   3.476  -0.568   7.014 -0.2219  0.1203  0.0056
   67SAPC   H3X 5637   3.400  -0.629   6.962 -1.3493  0.7659  0.8323
   67SAPC   H3Y 5638   3.424  -0.480   7.058 -2.0346  0.3354 -2.3532
   67SAPC   C34 5639   3.554  -0.651   7.114  0.1038 -0.1012 -0.1304
   67SAPC   H4X 5640   3.642  -0.592   7.146 -0.1068 -0.1044  0.4610
   67SAPC   H4Y 5641   3.587  -0.742   7.059 -0.4664  0.4791 -1.4884
   67SAPC   C35 5642   3.467  -0.681   7.233  0.5593  1.0738 -0.0116
   67SAPC   H5X 5643   3.365  -0.716   7.206  0.4434  1.9039 -0.6846
   67SAPC   H5Y 5644   3.442  -0.581   7.274  0.1211  0.5614  1.0082
   67SAPC   C36 5645   3.531  -0.767   7.337  0.6960  0.0702  0.6456
   67SAPC   H6X 5646   3.623  -0.722   7.380  0.5082  2.7045 -1.4566
   67SAPC   H6Y 5647   3.556  -0.867   7.295 -0.9959  0.5843 -1.8008
   67SAPC   C37 5648   3.440  -0.798   7.460  0.2047 -0.2272 -0.2852
   67SAPC   H7X 5649   3.347  -0.854   7.441  0.3418 -0.4486 -0.3115
   67SAPC   H7Y 5650   3.399  -0.700   7.495  1.9694 -0.4822  2.8412
   67SAPC   C38 5651   3.526  -0.861   7.572 -0.3046  0.1720  0.8599
   67SAPC   H8X 5652   3.621  -0.803   7.578  0.1157 -0.4542  0.3538
   67SAPC   H8Y 5653   3.555  -0.960   7.531  0.3120  1.4365 -1.9858
   67SAPC   C39 5654   3.458  -0.854   7.706  0.1046  0.2903  0.6762
   67SAPC   H9X 5655   3.355  -0.895   7.692 -0.0131  0.7239  0.2262
   67SAPC   H9Y 5656   3.444  -0.747   7.733 -1.5322  0.3294 -0.1808
   67SAPC  C310 5657   3.535  -0.932   7.806  0.9819 -0.3421 -0.4581
   67SAPC  H10X 5658   3.536  -1.036   7.766 -1.8138 -0.1570 -1.1651
   67SAPC  H10Y 5659   3.478  -0.932   7.901 -0.1812  2.5320 -1.0593
   67SAPC  C311 5660   3.677  -0.878   7.843 -0.3938  0.5883  0.0927
   67SAPC  H11X 5661   3.670  -0.770   7.867 -1.9925  0.8235 -1.1924
   67SAPC  H11Y 5662   3.748  -0.885   7.758 -0.0167  1.9400  0.2707
   67SAPC  C312 5663   3.742  -0.954   7.960  0.3068 -0.0473  0.1187
   67SAPC  H12X 5664   3.844  -0.914   7.976  0.1519  0.5529 -0.3658
   67SAPC  H12Y 5665   3.749  -1.063   7.942 -1.6485  0.0960 -1.9204
   67SAPC  C313 5666   3.683  -0.930   8.101 -0.4030 -0.6921  0.4958
   67SAPC  H13X 5667   3.576  -0.954   8.084 -0.6964 -0.0129  1.2869
   67SAPC  H13Y 5668   3.702  -0.821   8.112  2.1514 -1.1080  0.7083
   67SAPC  C314 5669   3.742  -1.014   8.220  0.0770 -0.3113  0.5976
   67SAPC  H14X 5670   3.707  -0.971   8.316 -0.9649 -1.9214  0.9628
   67SAPC  H14Y 5671   3.852  -1.001   8.207  0.3786 -3.7175 -1.3802
   67SAPC  C315 5672   3.709  -1.160   8.221 -0.4834  0.4173 -1.0156
   67SAPC  H15X 5673   3.756  -1.201   8.314  0.7222  1.2433 -1.2424
   67SAPC  H15Y 5674   3.769  -1.214   8.145  4.7361  0.4464  2.5590
   67SAPC  C316 5675   3.562  -1.192   8.214 -0.3659  0.1836  0.4859
   67SAPC  H16X 5676   3.529  -1.177   8.109 -0.0522  0.9540  0.4948
   67SAPC  H16Y 5677   3.508  -1.128   8.287  0.6003 -0.5592  1.8976
   67SAPC  C317 5678   3.537  -1.349   8.249  1.0505  0.4579  0.4502
   67SAPC  H17X 5679   3.567  -1.357   8.356  2.1393  0.9249  0.1898
   67SAPC  H17Y 5680   3.592  -1.402   8.169 -0.5199  0.0013 -0.3651
   67SAPC  C318 5681   3.391  -1.394   8.227  0.1421  0.2385 -0.3968
   67SAPC  H18X 5682   3.352  -1.393   8.123 -1.8889 -0.4476  0.3134
   67SAPC  H18Y 5683   3.312  -1.345   8.288 -0.5572 -1.7972  0.4077
   67SAPC  H18Z 5684   3.387  -1.501   8.256  0.3766  0.0530 -1.0213
   68SAPC     N 5685   0.725   5.762   6.150 -0.5864  0.4828  0.0229
   68SAPC   C12 5686   0.810   5.716   6.265  0.1025 -0.3122  0.1589
   68SAPC  H12A 5687   0.887   5.647   6.234  0.4859 -0.1673  0.7702
   68SAPC  H12B 5688   0.744   5.659   6.329 -0.2238 -0.3871 -0.2371
   68SAPC   C13 5689   0.801   5.842   6.040  0.3836  0.3298  0.5687
   68SAPC  H13A 5690   0.741   5.875   5.957  0.3380 -1.0281  0.0298
   68SAPC  H13B 5691   0.855   5.919   6.093 -1.0662 -0.3479  3.2067
   68SAPC  H13C 5692   0.877   5.776   6.001  0.1813  0.4331 -0.0100
   68SAPC   C14 5693   0.663   5.643   6.078 -0.1513  0.9100 -0.0251
   68SAPC  H14A 5694   0.634   5.569   6.151  1.4764  1.3394  1.0903
   68SAPC  H14B 5695   0.573   5.673   6.025  0.1392  0.6891 -0.6588
   68SAPC  H14C 5696   0.739   5.602   6.014 -1.2126 -0.3006 -0.5584
   68SAPC   C15 5697   0.614   5.847   6.194  0.3032 -0.5569  0.1928
   68SAPC  H15A 5698   0.538   5.794   6.249 -3.6269  3.2770 -0.9147
   68SAPC  H15B 5699   0.641   5.935   6.252 -0.7924 -0.4885  0.6186
   68SAPC  H15C 5700   0.553   5.882   6.112 -0.3398  0.1462  0.9462
   68SAPC   C11 5701   0.881   5.819   6.353  0.2843  0.2889  0.3996
   68SAPC  H11A 5702   0.927   5.772   6.442  1.5409  1.4521  0.3931
   68SAPC  H11B 5703   0.812   5.902   6.380 -1.8612 -0.5983 -1.8871
   68SAPC     P 5704   1.117   5.821   6.260 -0.2064  0.3769 -0.4423
   68SAPC   O13 5705   1.104   5.682   6.215  0.3134  0.1236 -0.3384
   68SAPC   O14 5706   1.205   5.905   6.180 -0.1470  0.7131  0.2367
   68SAPC   O12 5707   0.977   5.886   6.274  0.5209  0.1677 -0.1891
   68SAPC   O11 5708   1.171   5.819   6.408  0.0198 -0.1233 -0.2550
   68SAPC    C1 5709   1.260   5.912   6.461  0.8124 -0.0055  0.3313
   68SAPC    HA 5710   1.319   5.869   6.544 -0.8677 -1.0847  1.0265
   68SAPC    HB 5711   1.337   5.936   6.384  0.7214 -2.3056 -0.5688
   68SAPC    C2 5712   1.182   6.039   6.511 -0.2735 -0.0125 -0.1021
   68SAPC    HS 5713   1.141   6.091   6.421 -1.8281 -1.0050 -0.0016
   68SAPC   O21 5714   1.283   6.124   6.570  0.3101  0.6877  0.5143
   68SAPC   C21 5715   1.237   6.240   6.602 -0.3969  0.0659  0.1264
   68SAPC   O22 5716   1.129   6.284   6.578 -0.3423 -0.0795  0.2488
   68SAPC   C22 5717   1.353   6.304   6.680 -0.0319  0.0995  0.2800
   68SAPC   H2R 5718   1.367   6.263   6.782  3.0036  0.9484  0.3057
   68SAPC   H2S 5719   1.445   6.278   6.625 -0.0542 -0.4585  0.4986
   68SAPC    C3 5720   1.053   5.999   6.600  0.1753  0.0255 -0.0695
   68SAPC    HX 5721   0.973   5.964   6.531 -1.5710 -4.0453  3.5291
   68SAPC    HY 5722   1.006   6.085   6.652  0.1120 -0.3075  0.4225
   68SAPC   O31 5723   1.081   5.895   6.698  0.2802 -0.0218  0.0200
   68SAPC   C31 5724   1.132   5.954   6.804  0.2787 -0.3471 -0.1828
   68SAPC   O32 5725   1.142   6.071   6.830 -0.3776  0.3436 -0.2741
   68SAPC   C32 5726   1.178   5.850   6.904 -0.7429  0.3782  0.8770
   68SAPC   H2X 5727   1.243   5.782   6.845  0.3695  1.4540  0.8115
   68SAPC   H2Y 5728   1.092   5.795   6.948 -1.0539  2.2288  2.7364
   68SAPC   C23 5729   1.332   6.457   6.694 -0.0413 -0.1421 -0.1949
   68SAPC   H3R 5730   1.240   6.490   6.747 -0.1629  1.1549 -1.1657
   68SAPC   H3S 5731   1.326   6.506   6.594  0.6117  1.9112  0.7110
   68SAPC   C24 5732   1.449   6.533   6.772 -0.1426  0.4067 -0.0760
   68SAPC   H4R 5733   1.430   6.509   6.878 -1.5771 -2.8061 -0.9432
   68SAPC   H4S 5734   1.442   6.644   6.768  2.8985  0.7516  1.1048
   68SAPC   C25 5735   1.586   6.503   6.722  0.4119 -0.4497  0.2438
   68SAPC   H5R 5736   1.610   6.554   6.628 -3.3883  0.0553 -0.6112
   68SAPC   C26 5737   1.674   6.409   6.767  0.2046 -0.5560 -0.1838
   68SAPC   H6R 5738   1.769   6.407   6.712 -1.3695  0.3533 -3.1826
   68SAPC   C27 5739   1.661   6.316   6.884  0.0513  0.4291 -1.2121
   68SAPC   H7R 5740   1.729   6.229   6.874 -0.9638 -0.5626  0.2057
   68SAPC   H7S 5741   1.558   6.274   6.890  0.1517  0.4366  1.6391
   68SAPC   C28 5742   1.676   6.376   7.021 -0.1331 -0.1719  0.7413
   68SAPC   H8R 5743   1.643   6.481   7.029 -1.0328 -0.1475 -2.1260
   68SAPC   C29 5744   1.719   6.313   7.136 -0.4059  0.2144  0.3095
   68SAPC   H9R 5745   1.742   6.378   7.222  2.5440  2.0337 -1.6633
   68SAPC  C210 5746   1.760   6.170   7.155  0.7004 -0.0247 -0.2892
   68SAPC  H10R 5747   1.769   6.127   7.053  2.4579  2.3469 -1.2218
   68SAPC  H10S 5748   1.677   6.114   7.204  0.7952  1.6126  1.9249
   68SAPC  C211 5749   1.898   6.155   7.212  0.5759 -0.7532  0.5577
   68SAPC  H11R 5750   1.984   6.186   7.150  0.1451  0.8334  0.7236
   68SAPC  C212 5751   1.930   6.129   7.342 -0.6134 -0.4053 -0.0778
   68SAPC  H12R 5752   2.036   6.123   7.369  0.0313  0.9136 -2.0870
   68SAPC  C213 5753   1.827   6.106   7.453  0.3141 -0.2198  0.0216
   68SAPC  H13R 5754   1.850   6.007   7.500 -0.3926 -0.2031  0.4093
   68SAPC  H13S 5755   1.725   6.102   7.411  0.6632 -2.8847 -0.8049
   68SAPC  C214 5756   1.842   6.229   7.550  0.1960  0.1374  0.2480
   68SAPC  H14R 5757   1.775   6.309   7.515  0.8303 -0.6159 -3.0896
   68SAPC  C215 5758   1.925   6.248   7.652 -0.6677  0.3978 -0.4485
   68SAPC  H15R 5759   1.917   6.347   7.699  0.7541  0.1702  0.3159
   68SAPC  C216 5760   2.025   6.157   7.701  0.0935 -0.0108 -0.1452
   68SAPC  H16R 5761   2.132   6.183   7.687  0.2728 -1.4116 -1.7520
   68SAPC  H16S 5762   2.017   6.057   7.654  0.2782 -0.9342  1.7010
   68SAPC  C217 5763   2.001   6.146   7.856  0.4572 -0.8016  0.3814
   68SAPC  H17R 5764   2.090   6.090   7.889  1.2364  1.4458  2.3985
   68SAPC  H17S 5765   1.906   6.092   7.877  0.2491 -1.5887 -2.1509
   68SAPC  C218 5766   2.022   6.278   7.938  0.0647  0.2145 -0.6276
   68SAPC  H18R 5767   1.952   6.358   7.906 -0.5203 -0.4998 -1.1996
   68SAPC  H18S 5768   2.124   6.319   7.921  0.5271 -0.8451 -0.5155
   68SAPC  C219 5769   2.011   6.247   8.094 -0.2014  0.4272 -0.8926
   68SAPC  H19R 5770   1.915   6.197   8.115  0.1004  0.3831  0.4403
   68SAPC  H19S 5771   2.005   6.336   8.160 -3.8619 -2.3360  3.0300
   68SAPC  C220 5772   2.128   6.152   8.141  0.3975 -0.8115  0.3144
   68SAPC  H20R 5773   2.132   6.054   8.089  1.6695 -0.3786 -0.4384
   68SAPC  H20S 5774   2.116   6.130   8.249 -1.6151 -0.1397  0.2677
   68SAPC  H20T 5775   2.223   6.208   8.135 -1.0717  1.8026 -0.3830
   68SAPC   C33 5776   1.252   5.913   7.021  0.0291  0.2997  0.9296
   68SAPC   H3X 5777   1.189   5.983   7.080 -0.0370  1.6146 -0.6257
   68SAPC   H3Y 5778   1.334   5.981   6.988  0.1475 -0.4232 -0.3293
   68SAPC   C34 5779   1.326   5.816   7.113  0.3393 -0.8011  0.2038
   68SAPC   H4X 5780   1.412   5.785   7.050 -0.6007 -0.1652 -1.4579
   68SAPC   H4Y 5781   1.271   5.724   7.142  2.3120 -1.3768  2.4873
   68SAPC   C35 5782   1.350   5.886   7.247 -0.3619  0.1080  0.1514
   68SAPC   H5X 5783   1.250   5.914   7.288 -0.2912  2.2932 -1.0083
   68SAPC   H5Y 5784   1.406   5.978   7.223  1.4638 -1.4123 -1.7244
   68SAPC   C36 5785   1.429   5.809   7.350 -0.0133  0.7019  0.3524
   68SAPC   H6X 5786   1.539   5.827   7.343 -0.0286  0.2566 -2.2107
   68SAPC   H6Y 5787   1.435   5.703   7.319 -0.7446  1.2261 -1.7363
   68SAPC   C37 5788   1.365   5.805   7.490 -0.3469 -0.2946  0.6357
   68SAPC   H7X 5789   1.264   5.760   7.490 -0.1834 -0.8508  3.3801
   68SAPC   H7Y 5790   1.353   5.910   7.522  2.8525  0.3009  0.1928
   68SAPC   C38 5791   1.442   5.732   7.604 -0.0012 -0.0601  0.2188
   68SAPC   H8X 5792   1.452   5.625   7.577  1.1973  0.2626 -0.7235
   68SAPC   H8Y 5793   1.389   5.749   7.700 -1.2124  2.3260 -0.7887
   68SAPC   C39 5794   1.578   5.796   7.632  0.0364  0.2696  0.0320
   68SAPC   H9X 5795   1.574   5.906   7.639  1.7065  0.2748  1.4816
   68SAPC   H9Y 5796   1.645   5.776   7.546 -1.2943  2.0867 -1.4997
   68SAPC  C310 5797   1.644   5.752   7.769 -0.2487 -0.0878  0.1016
   68SAPC  H10X 5798   1.656   5.642   7.775 -1.5524 -0.1634  2.6507
   68SAPC  H10Y 5799   1.572   5.781   7.849 -0.6117  0.6672 -0.4840
   68SAPC  C311 5800   1.776   5.822   7.779 -0.0700  0.0572  0.4296
   68SAPC  H11X 5801   1.763   5.933   7.778  0.3059  0.1141  1.1284
   68SAPC  H11Y 5802   1.845   5.784   7.701  0.4163  1.4438  0.1393
   68SAPC  C312 5803   1.846   5.808   7.915  0.0659  0.3622 -0.2113
   68SAPC  H12X 5804   1.950   5.846   7.924  0.3593 -0.7966  1.6659
   68SAPC  H12Y 5805   1.855   5.698   7.921  3.1164  0.5054 -0.4788
   68SAPC  C313 5806   1.761   5.845   8.043  0.4731 -0.3247 -0.4282
   68SAPC  H13X 5807   1.660   5.799   8.036 -1.4722  3.1300  1.8857
   68SAPC  H13Y 5808   1.740   5.953   8.057  0.9088 -0.0404 -1.7587
   68SAPC  C314 5809   1.826   5.794   8.169 -0.3579  0.2402  0.1344
   68SAPC  H14X 5810   1.917   5.854   8.193 -1.7944  2.2085  0.9072
   68SAPC  H14Y 5811   1.858   5.688   8.167 -0.2823  0.2002  1.8149
   68SAPC  C315 5812   1.735   5.802   8.294 -0.3812 -0.5574 -0.5452
   68SAPC  H15X 5813   1.629   5.786   8.264 -0.6374  0.0698 -0.0136
   68SAPC  H15Y 5814   1.746   5.906   8.332 -1.7265 -0.5652 -0.1060
   68SAPC  C316 5815   1.769   5.701   8.405 -0.3240  0.0728 -0.7671
   68SAPC  H16X 5816   1.772   5.603   8.353 -1.8081 -0.3949 -0.0196
   68SAPC  H16Y 5817   1.685   5.698   8.478  0.0265  0.7318 -0.3204
   68SAPC  C317 5818   1.904   5.727   8.479  0.1070  0.1150  1.0266
   68SAPC  H17X 5819   1.912   5.827   8.528  2.2785 -0.3243  1.6921
   68SAPC  H17Y 5820   1.993   5.724   8.413 -1.6123 -2.3332 -1.3906
   68SAPC  C318 5821   1.944   5.623   8.586 -0.2579 -0.1741  0.4845
   68SAPC  H18X 5822   1.855   5.612   8.652 -1.2238 -0.7292 -0.8522
   68SAPC  H18Y 5823   2.030   5.656   8.648 -0.7403 -0.2989  1.2367
   68SAPC  H18Z 5824   1.972   5.521   8.550 -1.0610 -1.3187  2.8591
   69SLPC     N 5825   0.174   5.240  11.278  0.2818 -0.0616 -0.7509
   69SLPC   C13 5826   0.179   5.149  11.160  0.2268  0.1182 -0.0586
   69SLPC  H13A 5827   0.281   5.146  11.126  0.7816  2.1014  1.2542
   69SLPC  H13B 5828   0.121   5.060  11.178 -0.3016  0.2593 -1.0344
   69SLPC  H13C 5829   0.124   5.202  11.084  3.6877  1.0588 -2.1014
   69SLPC   C14 5830   0.174   5.155  11.406  0.0149  0.5102 -0.0604
   69SLPC  H14A 5831   0.080   5.100  11.411  1.9152 -2.9644  0.9123
   69SLPC  H14B 5832   0.260   5.092  11.393 -0.4872  0.1555 -1.8328
   69SLPC  H14C 5833   0.199   5.220  11.488 -1.4223  1.4967 -0.3607
   69SLPC   C15 5834   0.050   5.320  11.274  0.4917 -0.2089 -0.5876
   69SLPC  H15A 5835   0.058   5.386  11.359 -0.7304 -2.8210  1.7217
   69SLPC  H15B 5836   0.043   5.387  11.189  0.7847  1.6860  0.8043
   69SLPC  H15C 5837  -0.035   5.254  11.276  0.5161 -0.2753 -1.4691
   69SLPC   C12 5838   0.288   5.336  11.274 -0.0120 -0.0261 -0.5719
   69SLPC  H12A 5839   0.381   5.282  11.273 -0.1534 -0.2892  0.0122
   69SLPC  H12B 5840   0.288   5.401  11.360  1.2187  2.5212 -2.3529
   69SLPC   C11 5841   0.300   5.432  11.153  1.1748 -0.1987  0.5462
   69SLPC  H11A 5842   0.299   5.366  11.063 -0.3008 -0.4214  0.6973
   69SLPC  H11B 5843   0.397   5.485  11.153  0.1455  1.7844 -0.0910
   69SLPC     P 5844   0.200   5.665  11.079  0.3149  0.0951  0.5064
   69SLPC   O13 5845   0.065   5.734  11.096  0.1077  0.6179  0.0039
   69SLPC   O14 5846   0.318   5.736  11.132 -0.2154  0.1638  0.4879
   69SLPC   O12 5847   0.187   5.524  11.133 -0.7640  0.7404 -0.1599
   69SLPC   O11 5848   0.232   5.651  10.923  0.0369 -0.4346  0.1545
   69SLPC    C1 5849   0.162   5.557  10.847  0.2874  0.1101  0.0661
   69SLPC    HA 5850   0.101   5.489  10.910  0.2765  1.4924  1.6446
   69SLPC    HB 5851   0.084   5.605  10.785  0.3759  0.6525  0.3613
   69SLPC    C2 5852   0.253   5.480  10.742  1.3319 -0.4362  0.7117
   69SLPC    HS 5853   0.334   5.441  10.806  0.1783 -1.3648  1.6624
   69SLPC   O21 5854   0.296   5.580  10.654  0.0495 -0.0951  0.4689
   69SLPC   C21 5855   0.397   5.554  10.586  0.0917 -0.1013  0.9566
   69SLPC   O22 5856   0.478   5.465  10.606  0.0013  0.3041  0.0569
   69SLPC   C22 5857   0.415   5.659  10.463  0.3232  0.5154 -0.1996
   69SLPC   H2R 5858   0.316   5.700  10.431  1.2273  1.8908 -1.3454
   69SLPC   H2S 5859   0.479   5.745  10.494  1.3622  0.2316 -1.5101
   69SLPC    C3 5860   0.182   5.361  10.674 -0.3705  0.1577 -0.3975
   69SLPC    HX 5861   0.130   5.297  10.748 -0.9808  2.9056  1.7331
   69SLPC    HY 5862   0.267   5.303  10.633 -0.0811 -0.7134  1.3473
   69SLPC   O31 5863   0.092   5.399  10.566  0.1320  0.1821  0.4323
   69SLPC   C31 5864  -0.036   5.368  10.577 -0.0843 -0.4941 -0.3442
   69SLPC   O32 5865  -0.087   5.307  10.669  0.0222 -0.3710 -0.1078
   69SLPC   C32 5866  -0.119   5.429  10.457  0.1116 -0.6616 -0.1953
   69SLPC   H2X 5867  -0.075   5.522  10.416 -1.3103  1.4727  2.7610
   69SLPC   H2Y 5868  -0.217   5.464  10.496  0.3005 -0.0908 -0.2336
   69SLPC   C23 5869   0.469   5.584  10.338  0.3274  0.4252 -0.4597
   69SLPC   H3R 5870   0.427   5.482  10.327 -0.2577  0.7103 -0.9264
   69SLPC   H3S 5871   0.577   5.577  10.362  0.2647  2.2809  0.6127
   69SLPC   C24 5872   0.460   5.662  10.213  0.3503 -0.2742 -0.6270
   69SLPC   H4R 5873   0.462   5.771  10.237 -0.3790 -0.2156 -0.8084
   69SLPC   H4S 5874   0.356   5.646  10.178  0.4612 -0.3922 -0.9061
   69SLPC   C25 5875   0.571   5.630  10.106  0.4954  0.2229 -0.1711
   69SLPC   H5R 5876   0.645   5.557  10.143 -0.1116 -0.6636 -0.6745
   69SLPC   H5S 5877   0.635   5.721  10.094  1.5201 -0.1517  2.0652
   69SLPC   C26 5878   0.508   5.579   9.977  0.0404 -0.2690 -0.3529
   69SLPC   H6R 5879   0.425   5.645   9.946  0.7812  0.3111 -1.1476
   69SLPC   H6S 5880   0.471   5.475   9.993  0.5186 -0.2612  0.8661
   69SLPC   C27 5881   0.607   5.585   9.865  0.4257  0.0852 -0.3555
   69SLPC   H7R 5882   0.694   5.525   9.900 -0.0013 -1.6675 -2.1064
   69SLPC   H7S 5883   0.642   5.690   9.863 -0.0543  0.2419 -2.4049
   69SLPC   C28 5884   0.554   5.540   9.724 -0.1464 -0.5958  0.2310
   69SLPC   H8R 5885   0.469   5.602   9.689 -1.3388 -1.6404  1.1703
   69SLPC   H8S 5886   0.513   5.437   9.726 -0.8393 -0.4807 -3.2275
   69SLPC   C29 5887   0.666   5.532   9.620 -0.0490  0.0933  0.0467
   69SLPC   H9R 5888   0.757   5.582   9.654  0.0299  0.9243 -1.3348
   69SLPC  C210 5889   0.668   5.462   9.505 -0.5210  0.5709 -0.3946
   69SLPC  H10R 5890   0.747   5.481   9.431  0.1120  0.5804  0.2770
   69SLPC  C211 5891   0.552   5.379   9.441 -0.2009 -0.3537 -0.2455
   69SLPC  H11R 5892   0.464   5.367   9.507 -0.0375 -2.6036 -0.3576
   69SLPC  H11S 5893   0.598   5.281   9.417  3.0302  0.6102  1.3333
   69SLPC  C212 5894   0.509   5.458   9.320 -0.4976 -0.0365  0.0796
   69SLPC  H12R 5895   0.476   5.554   9.363  2.6543  1.1952  0.0227
   69SLPC  C213 5896   0.516   5.430   9.192 -0.5993  0.4073  0.5872
   69SLPC  H13R 5897   0.479   5.509   9.125 -1.0141  0.0215  0.3524
   69SLPC  C214 5898   0.566   5.297   9.128 -0.6479  0.4380 -0.2854
   69SLPC  H14R 5899   0.480   5.235   9.096 -0.5104  0.4270 -0.6355
   69SLPC  H14S 5900   0.633   5.238   9.195 -0.6950  1.3743  0.6210
   69SLPC  C215 5901   0.653   5.345   9.005 -0.2235  0.4148  0.7396
   69SLPC  H15R 5902   0.744   5.397   9.042  1.0879 -1.7211  0.7040
   69SLPC  H15S 5903   0.590   5.410   8.940  2.1682  1.0009 -1.1650
   69SLPC  C216 5904   0.699   5.219   8.925  0.5863  0.3122 -0.7714
   69SLPC  H16R 5905   0.609   5.159   8.898  0.6912 -0.3129  0.2010
   69SLPC  H16S 5906   0.754   5.164   9.004  0.6940 -0.6403 -1.4966
   69SLPC  C217 5907   0.780   5.250   8.802  0.1980  0.0345 -0.0641
   69SLPC  H17R 5908   0.824   5.159   8.754 -3.1145 -2.2280  0.8678
   69SLPC  H17S 5909   0.861   5.319   8.834  1.6117 -0.7888 -1.6545
   69SLPC  C218 5910   0.694   5.316   8.693  0.2195  0.6413 -1.0554
   69SLPC  H18R 5911   0.648   5.405   8.743 -1.5904 -1.0069  0.3808
   69SLPC  H18S 5912   0.615   5.242   8.668 -0.4440  0.5141  1.1345
   69SLPC  H18T 5913   0.760   5.331   8.605  1.8709  2.5557  0.4077
   69SLPC   C33 5914  -0.154   5.318  10.355 -0.1604 -0.7049 -0.0198
   69SLPC   H3X 5915  -0.242   5.349  10.294  1.1308 -1.6631 -2.5068
   69SLPC   H3Y 5916  -0.188   5.235  10.420 -0.4428  1.4726  2.7864
   69SLPC   C34 5917  -0.032   5.281  10.265 -0.4320  0.2154  0.1019
   69SLPC   H4X 5918  -0.053   5.186  10.212 -0.2492  0.5969 -0.6733
   69SLPC   H4Y 5919   0.065   5.270  10.318  0.4882 -0.2962 -1.6056
   69SLPC   C35 5920  -0.003   5.379  10.148 -0.3486 -0.0377  1.0225
   69SLPC   H5X 5921   0.034   5.475  10.191  0.8024 -0.3723  0.8217
   69SLPC   H5Y 5922  -0.086   5.391  10.076  0.3469  0.3848  0.2753
   69SLPC   C36 5923   0.130   5.334  10.085  0.1468 -0.4225  0.4853
   69SLPC   H6X 5924   0.124   5.227  10.054  0.4516 -0.6608  1.2364
   69SLPC   H6Y 5925   0.212   5.343  10.159  1.1435  0.7487 -0.7112
   69SLPC   C37 5926   0.169   5.416   9.963  0.2617 -0.4187  0.7905
   69SLPC   H7X 5927   0.270   5.382   9.932  1.6948  1.4609  3.0218
   69SLPC   H7Y 5928   0.178   5.524   9.989 -2.2683 -0.3400  1.5196
   69SLPC   C38 5929   0.075   5.406   9.839 -0.0508  0.2208 -0.3720
   69SLPC   H8X 5930  -0.025   5.440   9.873  0.3389  0.5862  0.4295
   69SLPC   H8Y 5931   0.066   5.297   9.818 -0.3894 -0.2901  2.1283
   69SLPC   C39 5932   0.121   5.487   9.723 -0.1109 -0.1450  0.5652
   69SLPC   H9X 5933   0.229   5.478   9.701 -0.5183 -0.0302 -1.7428
   69SLPC   H9Y 5934   0.095   5.591   9.752 -1.1686 -0.1501 -0.3018
   69SLPC  C310 5935   0.056   5.463   9.584  0.1829  0.8033  0.0321
   69SLPC  H10X 5936  -0.055   5.468   9.586  0.1439  0.2356 -0.4961
   69SLPC  H10Y 5937   0.079   5.359   9.551 -2.7544  0.0852 -0.0421
   69SLPC  C311 5938   0.114   5.548   9.475 -0.8324 -0.2829 -0.2191
   69SLPC  H11X 5939   0.219   5.571   9.502 -1.1776  0.4252  0.5609
   69SLPC  H11Y 5940   0.050   5.639   9.478  0.6257  0.8356 -1.6561
   69SLPC  C312 5941   0.092   5.493   9.330 -1.3085  0.2309  0.3155
   69SLPC  H12X 5942  -0.012   5.458   9.318 -1.1133 -0.2971  0.0965
   69SLPC  H12Y 5943   0.162   5.406   9.333  1.7701  2.5299  0.9755
   69SLPC  C313 5944   0.150   5.579   9.221  0.6030 -0.4124  0.2353
   69SLPC  H13X 5945   0.255   5.608   9.246  0.9485  0.1055 -1.6413
   69SLPC  H13Y 5946   0.091   5.673   9.218 -2.0596 -1.9514  0.8973
   69SLPC  C314 5947   0.147   5.497   9.088 -0.7854 -0.5027 -0.0909
   69SLPC  H14X 5948   0.043   5.461   9.073 -0.8465 -0.3165 -0.1256
   69SLPC  H14Y 5949   0.210   5.407   9.101 -0.2934 -0.0119  1.1654
   69SLPC  C315 5950   0.199   5.577   8.969 -0.0713  0.1246 -0.4363
   69SLPC  H15X 5951   0.310   5.584   8.979 -0.0245 -0.0982 -0.7675
   69SLPC  H15Y 5952   0.169   5.683   8.975 -1.4892 -0.3362  1.2671
   69SLPC  C316 5953   0.171   5.520   8.835  1.0106 -0.5891  0.0917
   69SLPC  H16X 5954   0.060   5.516   8.829  0.9301 -0.2457  1.1657
   69SLPC  H16Y 5955   0.216   5.418   8.832  0.8090 -0.7248  1.1090
   69SLPC  C317 5956   0.236   5.609   8.724  0.0575  0.4549 -0.2586
   69SLPC  H17X 5957   0.339   5.642   8.751  0.0112  0.4991 -0.1350
   69SLPC  H17Y 5958   0.170   5.698   8.727 -0.8861 -0.2517  0.3889
   69SLPC  C318 5959   0.245   5.553   8.582  0.5772  0.5484  0.5502
   69SLPC  H18X 5960   0.245   5.637   8.510 -0.5666  0.2426  0.1740
   69SLPC  H18Y 5961   0.154   5.492   8.561  1.3886 -0.7684  0.7198
   69SLPC  H18Z 5962   0.323   5.474   8.576 -0.4081 -0.5519  1.6353
   70SLPC     N 5963   1.974   1.509  11.200  0.2110 -0.3824 -0.3227
   70SLPC   C13 5964   2.074   1.578  11.292 -0.5193 -0.1131 -0.0366
   70SLPC  H13A 5965   2.027   1.593  11.388 -1.0028 -1.7698 -0.0019
   70SLPC  H13B 5966   2.165   1.521  11.303  0.6538  1.6627 -0.0913
   70SLPC  H13C 5967   2.105   1.673  11.250 -2.3567  0.6050  0.1412
   70SLPC   C14 5968   1.838   1.573  11.227 -0.1543 -0.0913 -0.4045
   70SLPC  H14A 5969   1.839   1.678  11.200  0.3430 -0.2708 -1.1306
   70SLPC  H14B 5970   1.770   1.525  11.159 -0.1737 -0.5648 -0.0518
   70SLPC  H14C 5971   1.808   1.555  11.329  1.0253  0.7994  0.1302
   70SLPC   C15 5972   1.952   1.363  11.238 -0.1914  0.0068  0.5632
   70SLPC  H15A 5973   2.037   1.313  11.195 -0.4589  0.7069 -0.8360
   70SLPC  H15B 5974   1.930   1.338  11.341 -2.5183 -4.9063 -0.8605
   70SLPC  H15C 5975   1.863   1.325  11.191 -1.5659  0.1400  2.9401
   70SLPC   C12 5976   2.022   1.528  11.052  0.4460  0.3583  0.3949
   70SLPC  H12A 5977   2.112   1.470  11.039 -0.9350 -2.2058  1.6284
   70SLPC  H12B 5978   2.047   1.632  11.039  1.9669 -0.0809 -0.4630
   70SLPC   C11 5979   1.918   1.485  10.938  0.3067 -0.0263 -0.0856
   70SLPC  H11A 5980   1.895   1.378  10.959  1.8252 -0.5064 -0.7883
   70SLPC  H11B 5981   1.968   1.490  10.839 -0.5838  0.8041 -0.5154
   70SLPC     P 5982   1.786   1.684  10.834 -0.4628 -0.0373 -0.2169
   70SLPC   O13 5983   1.641   1.729  10.837  0.3029 -0.5961 -0.0937
   70SLPC   O14 5984   1.884   1.795  10.848  0.2323 -0.0673 -0.3709
   70SLPC   O12 5985   1.804   1.569  10.943 -0.0868 -0.2365  0.2220
   70SLPC   O11 5986   1.814   1.612  10.692 -0.1932 -0.2801 -0.3770
   70SLPC    C1 5987   1.730   1.515  10.652 -0.2738 -0.3303  0.8738
   70SLPC    HA 5988   1.768   1.418  10.691  1.7283 -1.3703 -3.1174
   70SLPC    HB 5989   1.625   1.525  10.687 -0.3786 -1.5655  0.9547
   70SLPC    C2 5990   1.717   1.509  10.494 -0.3303 -0.6095  0.1674
   70SLPC    HS 5991   1.671   1.410  10.472  0.8191 -0.4939 -3.3566
   70SLPC   O21 5992   1.845   1.513  10.427 -0.3214  0.0561 -0.0656
   70SLPC   C21 5993   1.931   1.417  10.452 -0.3124 -0.4414 -0.3917
   70SLPC   O22 5994   1.916   1.324  10.525  0.3915  0.3301 -0.4078
   70SLPC   C22 5995   2.062   1.441  10.369 -0.1970  0.8295  0.3435
   70SLPC   H2R 5996   2.041   1.489  10.272 -0.8129 -1.9127 -0.9818
   70SLPC   H2S 5997   2.121   1.521  10.418 -0.1205  1.9931 -1.5578
   70SLPC    C3 5998   1.618   1.623  10.442 -0.5597  0.5998  0.2564
   70SLPC    HX 5999   1.668   1.717  10.473 -0.2380  0.0851  1.3210
   70SLPC    HY 6000   1.516   1.629  10.485 -0.4975  1.7755  0.2798
   70SLPC   O31 6001   1.606   1.629  10.298  0.5779 -0.0597 -0.4225
   70SLPC   C31 6002   1.571   1.519  10.238 -0.4493 -0.2600  0.1331
   70SLPC   O32 6003   1.532   1.416  10.285  0.8193 -0.2038  0.3942
   70SLPC   C32 6004   1.589   1.554  10.084  0.8087  0.3014  0.5524
   70SLPC   H2X 6005   1.517   1.487  10.034  0.8150  0.1695  0.7194
   70SLPC   H2Y 6006   1.688   1.511  10.057  0.5465 -1.1059  1.7193
   70SLPC   C23 6007   2.156   1.322  10.341  0.7908  0.4612  0.1170
   70SLPC   H3R 6008   2.093   1.236  10.311 -0.9143  1.9092 -0.7120
   70SLPC   H3S 6009   2.197   1.295  10.440 -0.2158  0.3867  0.5283
   70SLPC   C24 6010   2.277   1.344  10.257 -0.5717  0.0825  0.7220
   70SLPC   H4R 6011   2.347   1.260  10.276 -0.7947 -0.2358  0.1638
   70SLPC   H4S 6012   2.329   1.432  10.300 -0.0083 -0.2956  0.8235
   70SLPC   C25 6013   2.244   1.355  10.105 -0.4395 -0.4278  0.8887
   70SLPC   H5R 6014   2.167   1.432  10.083 -1.7455 -2.1203 -0.8813
   70SLPC   H5S 6015   2.216   1.248  10.090  2.4604 -1.8245  3.9439
   70SLPC   C26 6016   2.362   1.394  10.016  0.5691 -0.3339 -0.7817
   70SLPC   H6R 6017   2.430   1.308   9.995  0.6112  0.2485 -3.3064
   70SLPC   H6S 6018   2.430   1.466  10.067  0.5597 -1.5839  1.0907
   70SLPC   C27 6019   2.324   1.446   9.878  0.6123 -0.9319  0.3321
   70SLPC   H7R 6020   2.233   1.509   9.884  0.6133 -0.9811  0.8889
   70SLPC   H7S 6021   2.283   1.367   9.813 -1.3755  0.6650 -0.4762
   70SLPC   C28 6022   2.443   1.514   9.800 -0.5242 -0.1434 -0.2164
   70SLPC   H8R 6023   2.501   1.580   9.867 -1.1178  0.1182  0.0513
   70SLPC   H8S 6024   2.406   1.568   9.711 -0.9984 -0.4950 -0.2370
   70SLPC   C29 6025   2.549   1.411   9.755  0.6878 -0.0098  0.3547
   70SLPC   H9R 6026   2.599   1.343   9.825  2.8984 -1.1027 -2.1263
   70SLPC  C210 6027   2.578   1.395   9.627 -0.3571  0.7770 -0.0874
   70SLPC  H10R 6028   2.658   1.324   9.601 -1.7794 -1.3736  1.0683
   70SLPC  C211 6029   2.523   1.474   9.511 -0.5075 -0.2451 -0.3572
   70SLPC  H11R 6030   2.595   1.467   9.426 -0.8042 -2.1779 -0.4820
   70SLPC  H11S 6031   2.527   1.583   9.535  1.5690 -0.7220  1.9043
   70SLPC  C212 6032   2.388   1.439   9.459 -0.2215 -0.2444 -0.0788
   70SLPC  H12R 6033   2.325   1.380   9.527 -0.8243 -1.4539 -1.6353
   70SLPC  C213 6034   2.329   1.480   9.346 -0.8926 -0.0729  0.3179
   70SLPC  H13R 6035   2.224   1.454   9.332 -0.5932 -1.3437  0.3516
   70SLPC  C214 6036   2.394   1.573   9.241 -0.0609 -0.5521  0.2361
   70SLPC  H14R 6037   2.497   1.541   9.216  0.1404 -0.0969  0.4511
   70SLPC  H14S 6038   2.403   1.677   9.281 -1.7012  0.3197 -1.4570
   70SLPC  C215 6039   2.313   1.583   9.113  0.1221 -0.7367 -0.2452
   70SLPC  H15R 6040   2.285   1.478   9.090  2.3197 -1.6610  0.9169
   70SLPC  H15S 6041   2.380   1.619   9.032 -0.7331 -0.4994 -0.8632
   70SLPC  C216 6042   2.209   1.696   9.121  0.1540  0.6282  0.4045
   70SLPC  H16R 6043   2.179   1.726   9.019  3.2289 -2.1112 -1.5341
   70SLPC  H16S 6044   2.259   1.784   9.166 -1.4294  0.6894  2.1503
   70SLPC  C217 6045   2.075   1.656   9.196  0.2707 -0.1633 -0.0187
   70SLPC  H17R 6046   2.096   1.628   9.301  0.1596  3.4867  1.1289
   70SLPC  H17S 6047   2.031   1.564   9.153 -0.1797 -0.4485  1.0134
   70SLPC  C218 6048   1.980   1.768   9.211  0.1961 -0.6678 -0.3354
   70SLPC  H18R 6049   1.910   1.721   9.284 -0.0796 -0.4754 -0.4796
   70SLPC  H18S 6050   1.926   1.794   9.118 -1.1185 -2.4002 -0.1061
   70SLPC  H18T 6051   2.032   1.857   9.253  2.0666 -1.3694 -1.0158
   70SLPC   C33 6052   1.574   1.698  10.033 -0.2318  0.0535  0.5382
   70SLPC   H3X 6053   1.655   1.758  10.080  3.6240 -2.2586 -2.5236
   70SLPC   H3Y 6054   1.472   1.731  10.062  0.3355  1.1062  1.4349
   70SLPC   C34 6055   1.589   1.714   9.877  0.2003  0.0720  0.5939
   70SLPC   H4X 6056   1.681   1.661   9.843  0.8668  0.6811  1.3743
   70SLPC   H4Y 6057   1.600   1.822   9.854  1.2715  0.0285  0.8037
   70SLPC   C35 6058   1.472   1.657   9.794  0.2659 -0.9503  0.4474
   70SLPC   H5X 6059   1.380   1.715   9.817  0.6026 -0.8940  1.6929
   70SLPC   H5Y 6060   1.450   1.553   9.824  0.5082 -1.5631 -1.3638
   70SLPC   C36 6061   1.499   1.679   9.646 -0.3438 -0.8348  0.5037
   70SLPC   H6X 6062   1.600   1.642   9.618 -0.3001  0.0343 -0.5759
   70SLPC   H6Y 6063   1.506   1.789   9.633 -2.1155 -0.1700  3.9472
   70SLPC   C37 6064   1.398   1.614   9.551 -0.3726 -0.2035 -1.2108
   70SLPC   H7X 6065   1.295   1.647   9.574 -0.6721 -1.1184 -1.2350
   70SLPC   H7Y 6066   1.403   1.503   9.559  0.5789 -0.0571  0.7667
   70SLPC   C38 6067   1.439   1.654   9.417  0.5969  0.8336 -0.3709
   70SLPC   H8X 6068   1.544   1.632   9.389  1.1868  1.5513  1.1336
   70SLPC   H8Y 6069   1.440   1.765   9.426 -0.7868  0.7841  0.8125
   70SLPC   C39 6070   1.330   1.616   9.302  0.4288  0.1985 -0.7028
   70SLPC   H9X 6071   1.239   1.677   9.322  0.2364 -0.4328  0.4564
   70SLPC   H9Y 6072   1.306   1.508   9.310 -0.0337  0.4417  2.8272
   70SLPC  C310 6073   1.384   1.644   9.165  0.4572  0.5989  0.1148
   70SLPC  H10X 6074   1.484   1.598   9.147 -0.0772 -0.7754  0.4675
   70SLPC  H10Y 6075   1.407   1.752   9.155 -1.4982  0.8514 -2.6292
   70SLPC  C311 6076   1.284   1.608   9.051 -0.3699  0.0204 -0.0456
   70SLPC  H11X 6077   1.181   1.648   9.062 -0.5674 -0.3446 -0.5256
   70SLPC  H11Y 6078   1.288   1.497   9.059  1.3352 -0.0477 -1.4072
   70SLPC  C312 6079   1.346   1.651   8.922 -0.2461  0.3290 -0.3964
   70SLPC  H12X 6080   1.455   1.630   8.910 -0.4639 -0.2412 -1.4938
   70SLPC  H12Y 6081   1.348   1.762   8.918  0.7281  0.3531  0.2808
   70SLPC  C313 6082   1.292   1.581   8.802 -0.0809  0.2879 -0.3894
   70SLPC  H13X 6083   1.182   1.566   8.812 -0.2226  1.6375  0.3548
   70SLPC  H13Y 6084   1.333   1.479   8.798 -0.9062 -0.0056 -2.2477
   70SLPC  C314 6085   1.315   1.658   8.675  0.1277  0.1852  0.3161
   70SLPC  H14X 6086   1.277   1.759   8.698  0.0994  0.3141 -0.2856
   70SLPC  H14Y 6087   1.263   1.606   8.591  1.3924 -1.2238  0.3583
   70SLPC  C315 6088   1.466   1.662   8.637 -0.1178  0.0711 -0.0875
   70SLPC  H15X 6089   1.514   1.566   8.611 -1.3327 -0.3321 -0.8885
   70SLPC  H15Y 6090   1.524   1.698   8.725 -3.0757  1.7086  1.3602
   70SLPC  C316 6091   1.478   1.763   8.529 -0.1924 -1.3905 -0.8475
   70SLPC  H16X 6092   1.584   1.776   8.499  0.2537 -0.6815  0.9310
   70SLPC  H16Y 6093   1.441   1.858   8.573  1.2956 -1.7282  1.2973
   70SLPC  C317 6094   1.385   1.731   8.407  0.5105  0.0060  0.0298
   70SLPC  H17X 6095   1.277   1.740   8.431  0.6255 -0.9003  0.9743
   70SLPC  H17Y 6096   1.408   1.626   8.379 -2.2820 -0.3723 -1.1555
   70SLPC  C318 6097   1.405   1.830   8.291  0.2652 -0.1137 -0.0134
   70SLPC  H18X 6098   1.514   1.831   8.270  0.0000 -0.4224 -1.4760
   70SLPC  H18Y 6099   1.388   1.939   8.309 -0.2696  0.3413 -2.7982
   70SLPC  H18Z 6100   1.357   1.807   8.194 -2.9898  0.7453  1.2279
   71SLPC     N 6101   0.883   0.546  11.060 -0.2218  0.1932  0.6044
   71SLPC   C13 6102   0.974   0.562  10.944 -0.3077 -0.0355 -0.1809
   71SLPC  H13A 6103   1.079   0.556  10.968 -0.5922  1.1415  1.5363
   71SLPC  H13B 6104   0.947   0.493  10.866 -0.7855  1.5396 -1.4701
   71SLPC  H13C 6105   0.949   0.661  10.908 -3.8703 -0.8918 -0.4538
   71SLPC   C14 6106   0.934   0.643  11.162 -0.0795 -0.4987 -0.5179
   71SLPC  H14A 6107   0.888   0.618  11.256 -1.1172  0.6676 -0.6913
   71SLPC  H14B 6108   1.037   0.616  11.182 -0.0388  0.6913  1.1148
   71SLPC  H14C 6109   0.935   0.748  11.134  0.4416  0.3229  2.2433
   71SLPC   C15 6110   0.911   0.403  11.111  0.4498 -0.0835 -0.0346
   71SLPC  H15A 6111   0.836   0.387  11.187 -0.2062 -1.9772 -1.0160
   71SLPC  H15B 6112   0.883   0.341  11.027 -1.1367 -0.8343  0.9838
   71SLPC  H15C 6113   1.011   0.386  11.149  1.4718  3.0814 -1.0339
   71SLPC   C12 6114   0.738   0.564  11.020  0.8067  0.3774  1.2874
   71SLPC  H12A 6115   0.669   0.552  11.102  1.3704  1.4483  1.9404
   71SLPC  H12B 6116   0.703   0.488  10.952 -2.3481  2.1678  0.6960
   71SLPC   C11 6117   0.699   0.701  10.965  0.3385 -0.7378  0.3635
   71SLPC  H11A 6118   0.706   0.778  11.044  0.8342  0.3786 -0.7283
   71SLPC  H11B 6119   0.593   0.690  10.935  0.6185  1.9746 -2.0270
   71SLPC     P 6120   0.829   0.869  10.814  0.3583 -0.0079  0.2631
   71SLPC   O13 6121   0.776   0.977  10.902 -0.2756  0.0064  0.2294
   71SLPC   O14 6122   0.974   0.846  10.820 -0.8222  0.3703  0.0568
   71SLPC   O12 6123   0.768   0.729  10.847  0.0751  0.2120  0.1532
   71SLPC   O11 6124   0.785   0.916  10.670  0.3281  0.7311  0.5232
   71SLPC    C1 6125   0.647   0.914  10.628 -0.0864  0.5632  0.1354
   71SLPC    HA 6126   0.584   0.879  10.713  1.6323  0.1360  1.2888
   71SLPC    HB 6127   0.619   1.016  10.595 -3.1076 -0.1322  0.2333
   71SLPC    C2 6128   0.630   0.823  10.500 -0.5562 -0.0430 -0.0106
   71SLPC    HS 6129   0.682   0.727  10.520  1.1559  0.8904  0.2080
   71SLPC   O21 6130   0.675   0.890  10.377 -0.0187 -0.1413  0.4166
   71SLPC   C21 6131   0.794   0.854  10.340  0.4754 -1.3130  0.2076
   71SLPC   O22 6132   0.868   0.772  10.389 -0.1555  0.3497 -0.2507
   71SLPC   C22 6133   0.827   0.927  10.207 -0.0161 -0.3886 -0.2232
   71SLPC   H2R 6134   0.743   0.997  10.185  1.8477  2.4230  1.0624
   71SLPC   H2S 6135   0.927   0.974  10.214  0.7295 -1.3268 -3.1063
   71SLPC    C3 6136   0.482   0.795  10.468 -0.0136  0.5504 -0.6997
   71SLPC    HX 6137   0.427   0.891  10.462 -0.8523  0.2398  1.1095
   71SLPC    HY 6138   0.430   0.756  10.559  0.8389 -0.2093 -0.5230
   71SLPC   O31 6139   0.470   0.697  10.365 -0.0798  0.0622 -0.2912
   71SLPC   C31 6140   0.432   0.732  10.251 -0.3237  0.2490  0.2172
   71SLPC   O32 6141   0.401   0.847  10.215  0.0522  0.3739  0.3875
   71SLPC   C32 6142   0.438   0.611  10.153  0.2447  0.6618  0.1062
   71SLPC   H2X 6143   0.335   0.571  10.150 -0.7273  2.9906  0.3804
   71SLPC   H2Y 6144   0.499   0.524  10.188 -2.7070 -1.4809  0.2729
   71SLPC   C23 6145   0.839   0.822  10.095  1.1676  0.3440 -0.1972
   71SLPC   H3R 6146   0.742   0.769  10.092  1.2625 -0.1725  2.8063
   71SLPC   H3S 6147   0.921   0.753  10.124  1.3920  1.3612  1.8289
   71SLPC   C24 6148   0.873   0.885   9.965  0.0747  0.7789  0.0204
   71SLPC   H4R 6149   0.979   0.913   9.983 -0.0758  1.5514 -0.2303
   71SLPC   H4S 6150   0.815   0.975   9.934  0.7941  0.9899 -0.7456
   71SLPC   C25 6151   0.859   0.788   9.847 -0.2139 -0.1302 -0.0043
   71SLPC   H5R 6152   0.751   0.761   9.846  0.3068 -2.3919 -1.1980
   71SLPC   H5S 6153   0.919   0.698   9.872  0.9436  0.7887  0.6138
   71SLPC   C26 6154   0.881   0.852   9.709  0.6511  0.5020  0.5566
   71SLPC   H6R 6155   0.966   0.921   9.726 -0.7218  1.8783  2.2886
   71SLPC   H6S 6156   0.796   0.922   9.690  0.2789 -0.7084 -3.1226
   71SLPC   C27 6157   0.913   0.762   9.591 -0.1565  0.1337 -0.7557
   71SLPC   H7R 6158   0.837   0.681   9.597 -0.3176  0.3852  0.8391
   71SLPC   H7S 6159   1.006   0.710   9.621 -0.5845 -0.6699 -0.7888
   71SLPC   C28 6160   0.938   0.842   9.458 -0.1859  0.5999 -0.1816
   71SLPC   H8R 6161   0.995   0.773   9.393  0.9300  1.7358 -0.4488
   71SLPC   H8S 6162   1.003   0.930   9.478  2.2828 -1.0568 -0.4624
   71SLPC   C29 6163   0.825   0.902   9.380 -0.0081  0.0817  0.1782
   71SLPC   H9R 6164   0.755   0.967   9.435 -0.4705 -1.4235  1.4526
   71SLPC  C210 6165   0.787   0.865   9.255 -0.1736 -0.5681  0.2741
   71SLPC  H10R 6166   0.708   0.927   9.209  0.4250  1.4412  1.8002
   71SLPC  C211 6167   0.861   0.762   9.171 -0.2378  0.2061  0.7985
   71SLPC  H11R 6168   0.859   0.660   9.215 -0.1283 -1.2179 -2.3003
   71SLPC  H11S 6169   0.966   0.800   9.170 -0.9930  2.5044  1.1300
   71SLPC  C212 6170   0.802   0.761   9.029  0.2029 -0.5766 -0.5322
   71SLPC  H12R 6171   0.707   0.815   9.012 -0.8645 -3.0247 -3.0760
   71SLPC  C213 6172   0.865   0.736   8.913  0.2545  0.8301 -0.3214
   71SLPC  H13R 6173   0.810   0.745   8.818 -0.2689 -0.6327 -0.1936
   71SLPC  C214 6174   1.006   0.676   8.904  0.1097  0.3532 -0.7705
   71SLPC  H14R 6175   1.009   0.597   8.826  0.3477 -2.5033  1.9408
   71SLPC  H14S 6176   1.041   0.621   8.994 -2.5756 -0.7110 -0.2863
   71SLPC  C215 6177   1.126   0.766   8.857  0.4051 -0.1858 -0.4252
   71SLPC  H15R 6178   1.218   0.703   8.860  0.6447  0.1186  3.5705
   71SLPC  H15S 6179   1.140   0.854   8.924 -2.3063  0.1342 -0.1821
   71SLPC  C216 6180   1.087   0.815   8.716  0.0803 -0.3231 -0.1926
   71SLPC  H16R 6181   0.994   0.877   8.720  0.5679  0.4050  0.0343
   71SLPC  H16S 6182   1.065   0.726   8.653  0.0856  0.5031 -1.4140
   71SLPC  C217 6183   1.202   0.881   8.641  0.0310 -0.3030  0.3782
   71SLPC  H17R 6184   1.289   0.814   8.627  0.1492  0.0370 -0.6096
   71SLPC  H17S 6185   1.245   0.960   8.707  0.3723  0.4635 -0.7309
   71SLPC  C218 6186   1.161   0.950   8.511 -0.3597  0.3779  0.3603
   71SLPC  H18R 6187   1.091   1.035   8.530  0.6644  1.7521 -1.6275
   71SLPC  H18S 6188   1.108   0.882   8.441 -1.6835  0.1909  1.4795
   71SLPC  H18T 6189   1.255   0.987   8.466  0.1292 -2.4117 -1.0803
   71SLPC   C33 6190   0.465   0.652  10.006  0.4694  0.3144 -0.7110
   71SLPC   H3X 6191   0.567   0.696  10.002  0.9906 -0.5405  1.6897
   71SLPC   H3Y 6192   0.386   0.725   9.980 -1.8665 -0.9726  2.2823
   71SLPC   C34 6193   0.462   0.537   9.910 -0.9732 -0.2125  0.7137
   71SLPC   H4X 6194   0.381   0.462   9.923 -1.8766 -0.5183 -4.3917
   71SLPC   H4Y 6195   0.560   0.487   9.922  0.5168  1.7871 -1.9121
   71SLPC   C35 6196   0.448   0.592   9.764 -0.7741  0.0256  0.7569
   71SLPC   H5X 6197   0.523   0.670   9.741  0.1327 -0.8471  0.6910
   71SLPC   H5Y 6198   0.345   0.631   9.749 -0.2805  1.7048  1.5138
   71SLPC   C36 6199   0.467   0.476   9.656  0.4348  1.0280  0.0464
   71SLPC   H6X 6200   0.406   0.384   9.673  1.8812 -0.3387 -1.7253
   71SLPC   H6Y 6201   0.573   0.447   9.669  0.6162  1.2284 -0.9281
   71SLPC   C37 6202   0.430   0.517   9.518 -0.1570  0.6012  0.0760
   71SLPC   H7X 6203   0.322   0.540   9.526 -0.2825 -0.1827  0.7686
   71SLPC   H7Y 6204   0.438   0.432   9.446 -4.2647 -0.3121  0.4551
   71SLPC   C38 6205   0.506   0.638   9.460  0.5810  0.0372  0.4887
   71SLPC   H8X 6206   0.610   0.604   9.442 -0.2571 -1.1040 -2.8430
   71SLPC   H8Y 6207   0.519   0.719   9.536  2.3013  1.7785 -1.5392
   71SLPC   C39 6208   0.433   0.687   9.333  0.0674  0.0585  0.6575
   71SLPC   H9X 6209   0.422   0.596   9.268 -0.4624  1.1106 -0.7832
   71SLPC   H9Y 6210   0.498   0.756   9.275 -0.1445 -0.2787 -0.0033
   71SLPC  C310 6211   0.312   0.770   9.358  0.5489 -0.0231  0.7839
   71SLPC  H10X 6212   0.348   0.862   9.409  0.8769  0.8506 -0.9523
   71SLPC  H10Y 6213   0.243   0.719   9.429 -2.7394  2.3169 -0.5173
   71SLPC  C311 6214   0.238   0.805   9.226 -0.1418  0.0572 -0.0618
   71SLPC  H11X 6215   0.324   0.843   9.167 -1.5077  0.7267 -1.6854
   71SLPC  H11Y 6216   0.171   0.889   9.254  1.0561  0.3615  2.2015
   71SLPC  C312 6217   0.176   0.696   9.137 -0.1240 -0.3895  0.1244
   71SLPC  H12X 6218   0.091   0.657   9.197 -0.4069 -1.0814 -0.7127
   71SLPC  H12Y 6219   0.253   0.618   9.117 -0.4662 -0.4728 -0.9251
   71SLPC  C313 6220   0.102   0.745   9.013  0.4699  0.6154 -0.5107
   71SLPC  H13X 6221   0.018   0.817   9.028  1.8199  2.3661 -0.9662
   71SLPC  H13Y 6222   0.052   0.655   8.973  0.9577 -0.0364  0.3140
   71SLPC  C314 6223   0.183   0.808   8.909  0.0125  0.2151  0.5526
   71SLPC  H14X 6224   0.216   0.908   8.944  1.9772 -0.0680 -0.3168
   71SLPC  H14Y 6225   0.130   0.830   8.814  2.2854 -1.4144 -1.1946
   71SLPC  C315 6226   0.308   0.723   8.869 -0.1284  0.0814 -0.2376
   71SLPC  H15X 6227   0.268   0.624   8.837 -2.7427  1.1564 -0.5495
   71SLPC  H15Y 6228   0.379   0.702   8.952  3.2611  0.2065 -2.9141
   71SLPC  C316 6229   0.396   0.785   8.768 -1.0321 -0.0910  0.0089
   71SLPC  H16X 6230   0.346   0.801   8.670  1.1538 -1.6331 -1.4518
   71SLPC  H16Y 6231   0.479   0.715   8.745  0.0450  1.1831 -0.0677
   71SLPC  C317 6232   0.465   0.911   8.807 -0.5085 -1.1042 -0.2207
   71SLPC  H17X 6233   0.517   0.880   8.901 -0.7781 -1.5898 -0.2279
   71SLPC  H17Y 6234   0.396   0.993   8.837  0.8281 -0.9849  3.0291
   71SLPC  C318 6235   0.564   0.972   8.706 -0.0751 -0.1642  0.1809
   71SLPC  H18X 6236   0.521   1.005   8.609 -0.8042 -1.9323 -0.1199
   71SLPC  H18Y 6237   0.649   0.900   8.703  1.6737  1.8085 -0.5305
   71SLPC  H18Z 6238   0.617   1.061   8.747  0.5092  0.4617 -1.8050
   72SLPC     N 6239   1.382   5.306  11.215  0.0142  0.4709 -0.1738
   72SLPC   C13 6240   1.397   5.342  11.352 -0.3012 -0.3587 -0.1450
   72SLPC  H13A 6241   1.299   5.364  11.391  0.3570 -0.8704  1.9362
   72SLPC  H13B 6242   1.449   5.276  11.420 -0.4800 -1.0040 -0.6313
   72SLPC  H13C 6243   1.454   5.434  11.348  0.2833 -0.6959  0.1954
   72SLPC   C14 6244   1.293   5.409  11.150  0.1036  0.6785 -0.2605
   72SLPC  H14A 6245   1.285   5.414  11.042  0.2368  1.8178 -0.2280
   72SLPC  H14B 6246   1.191   5.409  11.187 -0.3265 -0.1128 -1.3839
   72SLPC  H14C 6247   1.327   5.507  11.181 -0.6627  0.7165  0.4912
   72SLPC   C15 6248   1.315   5.170  11.215  0.5552 -0.7522 -0.0220
   72SLPC  H15A 6249   1.371   5.103  11.279 -0.5477 -0.0390  1.7550
   72SLPC  H15B 6250   1.214   5.174  11.254  1.2299  0.1564  1.7715
   72SLPC  H15C 6251   1.305   5.122  11.119 -0.6214 -1.5793  0.4859
   72SLPC   C12 6252   1.516   5.293  11.147 -0.3821  0.2259  0.0406
   72SLPC  H12A 6253   1.580   5.227  11.204  0.6571  0.7168 -0.5167
   72SLPC  H12B 6254   1.562   5.391  11.147 -1.0349  0.6343 -2.7876
   72SLPC   C11 6255   1.523   5.244  11.001  0.2699  0.1563 -0.1274
   72SLPC  H11A 6256   1.633   5.248  10.981  0.4383 -1.2955  0.3916
   72SLPC  H11B 6257   1.477   5.318  10.932  0.2927  0.5259  0.2494
   72SLPC     P 6258   1.411   5.070  10.842  0.0830  0.2070  0.1077
   72SLPC   O13 6259   1.442   4.929  10.820 -0.0307  0.6223  1.1152
   72SLPC   O14 6260   1.269   5.095  10.827  0.2514  0.0916  0.1653
   72SLPC   O12 6261   1.468   5.113  10.983 -0.1766  0.4148  0.1477
   72SLPC   O11 6262   1.491   5.143  10.736  0.2025  0.1289  0.2473
   72SLPC    C1 6263   1.626   5.151  10.717  0.4965  0.0216  0.1910
   72SLPC    HA 6264   1.654   5.253  10.751 -2.9535  2.4826 -3.4218
   72SLPC    HB 6265   1.679   5.075  10.778 -0.5754 -2.3428 -1.6592
   72SLPC    C2 6266   1.662   5.123  10.569  0.4005  0.3076  0.2051
   72SLPC    HS 6267   1.770   5.103  10.554 -0.2405 -0.8684 -4.2215
   72SLPC   O21 6268   1.613   5.229  10.482  0.0503  0.5748  0.3590
   72SLPC   C21 6269   1.688   5.334  10.498 -0.8369  0.3298  0.9940
   72SLPC   O22 6270   1.779   5.350  10.580  0.3062 -0.6739 -0.3032
   72SLPC   C22 6271   1.646   5.446  10.400  0.5489  0.1404  0.1411
   72SLPC   H2R 6272   1.559   5.501  10.441  0.5462 -0.3362  0.7888
   72SLPC   H2S 6273   1.737   5.509  10.393  0.5712  0.0588 -0.3450
   72SLPC    C3 6274   1.584   4.994  10.520  0.2032  0.3619 -0.1043
   72SLPC    HX 6275   1.476   5.017  10.520  0.3393  1.1377 -1.8079
   72SLPC    HY 6276   1.607   4.910  10.590  2.1674  1.4703  0.6658
   72SLPC   O31 6277   1.615   4.941  10.387  0.2327 -0.4610 -0.3308
   72SLPC   C31 6278   1.531   4.838  10.340 -0.8308 -0.3560  0.3168
   72SLPC   O32 6279   1.436   4.794  10.400 -0.0960 -0.2187 -1.1551
   72SLPC   C32 6280   1.580   4.803  10.200  0.6302 -0.0716  0.0894
   72SLPC   H2X 6281   1.691   4.799  10.205  0.6152 -0.5984  0.0585
   72SLPC   H2Y 6282   1.549   4.882  10.129 -0.8918 -1.2117 -0.5698
   72SLPC   C23 6283   1.632   5.406  10.252  0.2624  0.1482  0.1972
   72SLPC   H3R 6284   1.593   5.496  10.200  1.1386  0.1945 -0.3886
   72SLPC   H3S 6285   1.556   5.329  10.224  0.5471  0.3505 -1.1708
   72SLPC   C24 6286   1.764   5.374  10.181 -0.5752  0.0289 -0.5715
   72SLPC   H4R 6287   1.806   5.278  10.218 -1.0609  0.7647  2.0862
   72SLPC   H4S 6288   1.839   5.451  10.211 -0.3962  0.3832 -1.8822
   72SLPC   C25 6289   1.752   5.398  10.026 -0.5700 -0.1444 -0.3784
   72SLPC   H5R 6290   1.858   5.404   9.994 -0.1152 -1.9025  0.6333
   72SLPC   H5S 6291   1.700   5.493  10.002 -1.8525 -0.4371  1.0419
   72SLPC   C26 6292   1.697   5.281   9.950  0.3557  0.0350 -0.7965
   72SLPC   H6R 6293   1.588   5.269   9.967  0.1092  1.3657 -1.3430
   72SLPC   H6S 6294   1.748   5.186   9.980  1.3390  0.2662 -1.6491
   72SLPC   C27 6295   1.714   5.294   9.792  0.3085 -0.5437 -0.0128
   72SLPC   H7R 6296   1.821   5.320   9.777  0.0735 -0.3176 -1.4113
   72SLPC   H7S 6297   1.653   5.380   9.760  1.0523  0.0098  0.0392
   72SLPC   C28 6298   1.690   5.161   9.713 -0.1481 -0.4628  0.1644
   72SLPC   H8R 6299   1.585   5.130   9.731 -0.0188 -1.6115 -0.9429
   72SLPC   H8S 6300   1.763   5.086   9.751  3.3478  2.2353 -0.6668
   72SLPC   C29 6301   1.708   5.180   9.564  0.3070 -0.1792  0.5979
   72SLPC   H9R 6302   1.621   5.230   9.520 -3.3261 -2.8102  4.0558
   72SLPC  C210 6303   1.798   5.131   9.482 -0.8427  0.0685  0.7557
   72SLPC  H10R 6304   1.794   5.156   9.375  1.8222  2.5157  1.0888
   72SLPC  C211 6305   1.908   5.039   9.526  0.1934 -0.1198 -0.3234
   72SLPC  H11R 6306   1.864   4.963   9.594 -0.3680 -2.6093 -3.2392
   72SLPC  H11S 6307   1.966   5.102   9.598  0.6375  1.0310 -1.6410
   72SLPC  C212 6308   2.007   4.971   9.426 -0.2709 -0.8531 -0.2123
   72SLPC  H12R 6309   2.112   4.992   9.455 -1.1940  2.4315  1.2582
   72SLPC  C213 6310   1.980   4.886   9.330  0.9917 -0.3473  0.7851
   72SLPC  H13R 6311   2.062   4.832   9.280  2.1853 -0.5637  2.8430
   72SLPC  C214 6312   1.842   4.841   9.294 -0.1094 -1.0505  0.2951
   72SLPC  H14R 6313   1.767   4.909   9.338  0.0101 -1.2194  0.7705
   72SLPC  H14S 6314   1.818   4.737   9.325  0.9789 -1.1872  0.7226
   72SLPC  C215 6315   1.830   4.856   9.138 -0.6914  0.3705  0.2193
   72SLPC  H15R 6316   1.843   4.964   9.119  2.8925  0.1963  0.8571
   72SLPC  H15S 6317   1.732   4.817   9.103 -0.4970 -0.5909  0.6936
   72SLPC  C216 6318   1.926   4.768   9.058  0.0654 -0.2408 -0.6370
   72SLPC  H16R 6319   1.917   4.663   9.094 -0.8384  0.1549  0.3406
   72SLPC  H16S 6320   2.030   4.804   9.072 -0.4343  0.5449  1.3105
   72SLPC  C217 6321   1.896   4.768   8.906  0.7169 -0.3490  0.3042
   72SLPC  H17R 6322   1.823   4.685   8.892  0.8457 -0.8196  2.1105
   72SLPC  H17S 6323   1.985   4.727   8.854  0.3471  0.8499 -1.3489
   72SLPC  C218 6324   1.856   4.898   8.845  0.4511  0.2671  0.1201
   72SLPC  H18R 6325   1.765   4.929   8.900 -0.8579 -2.1670 -0.5526
   72SLPC  H18S 6326   1.841   4.887   8.736 -0.8614 -0.9774  0.3906
   72SLPC  H18T 6327   1.928   4.979   8.869 -1.9153  2.8447 -0.9397
   72SLPC   C33 6328   1.533   4.673  10.143 -1.0434 -0.1503  0.5004
   72SLPC   H3X 6329   1.573   4.600  10.217 -0.0433  0.7003  0.8202
   72SLPC   H3Y 6330   1.577   4.666  10.042  2.8361  0.2503  2.0200
   72SLPC   C34 6331   1.377   4.653  10.140 -0.3477 -0.9001  0.1266
   72SLPC   H4X 6332   1.335   4.743  10.090 -2.7481 -1.4716  0.9687
   72SLPC   H4Y 6333   1.333   4.655  10.242 -0.1839 -1.9345  0.2264
   72SLPC   C35 6334   1.318   4.543  10.062  0.3333  0.0780 -0.3770
   72SLPC   H5X 6335   1.349   4.449  10.111 -0.6001  1.4984  3.3323
   72SLPC   H5Y 6336   1.359   4.543   9.959  0.8225 -1.0829 -0.1952
   72SLPC   C36 6337   1.163   4.548  10.062 -0.4995 -0.4179 -0.3393
   72SLPC   H6X 6338   1.136   4.646  10.018 -0.5794 -0.3217 -0.0771
   72SLPC   H6Y 6339   1.113   4.541  10.161 -0.5611  0.2562 -0.3163
   72SLPC   C37 6340   1.100   4.429   9.978 -0.6997 -0.6176 -0.5052
   72SLPC   H7X 6341   1.116   4.331  10.027 -2.5695 -0.9024 -0.3965
   72SLPC   H7Y 6342   1.156   4.423   9.882  0.5634 -0.2140  0.1793
   72SLPC   C38 6343   0.962   4.447   9.938  0.3551  0.2239 -0.6013
   72SLPC   H8X 6344   0.945   4.537   9.875  1.1403  2.6520  2.4071
   72SLPC   H8Y 6345   0.891   4.468  10.021  0.0285  0.7204 -0.9991
   72SLPC   C39 6346   0.895   4.326   9.879 -0.2676  0.0562 -0.3915
   72SLPC   H9X 6347   0.944   4.296   9.784  0.0793  0.4928 -0.3556
   72SLPC   H9Y 6348   0.790   4.351   9.855  0.1671 -0.0914 -2.6999
   72SLPC  C310 6349   0.894   4.202   9.980  0.0922 -0.3450  0.9734
   72SLPC  H10X 6350   0.996   4.160   9.994  0.7599  1.3642  1.4285
   72SLPC  H10Y 6351   0.841   4.125   9.919  1.9092  0.7552 -2.2282
   72SLPC  C311 6352   0.829   4.221  10.120 -0.5342 -0.4606 -0.4066
   72SLPC  H11X 6353   0.769   4.314  10.132 -1.2598 -0.7712 -1.4748
   72SLPC  H11Y 6354   0.917   4.231  10.186 -0.8776 -0.8374  0.1145
   72SLPC  C312 6355   0.749   4.097  10.169  0.1637  0.7720 -0.2860
   72SLPC  H12X 6356   0.723   4.096  10.277 -1.5194 -0.2693 -0.6598
   72SLPC  H12Y 6357   0.811   4.006  10.152 -1.7845 -0.4383 -1.2642
   72SLPC  C313 6358   0.617   4.075  10.098 -0.2545 -0.0498  0.1907
   72SLPC  H13X 6359   0.600   3.967  10.118 -0.6055  0.2077  1.3468
   72SLPC  H13Y 6360   0.624   4.091   9.988 -4.4006 -2.0788 -0.5571
   72SLPC  C314 6361   0.501   4.153  10.149  0.2314 -0.3484  0.3238
   72SLPC  H14X 6362   0.533   4.259  10.137 -0.9749 -0.1691 -1.9172
   72SLPC  H14Y 6363   0.462   4.143  10.252 -0.4528  0.2822  0.1324
   72SLPC  C315 6364   0.378   4.145  10.060  0.1386 -0.3946  0.2181
   72SLPC  H15X 6365   0.306   4.218  10.103  0.6906 -0.0798  0.6257
   72SLPC  H15Y 6366   0.333   4.044  10.069 -1.5862  0.0284 -2.6400
   72SLPC  C316 6367   0.398   4.167   9.915  0.1815 -0.5758  0.1395
   72SLPC  H16X 6368   0.466   4.100   9.857  0.7533  0.0558  0.0621
   72SLPC  H16Y 6369   0.432   4.271   9.896  0.4179 -0.8642 -1.1782
   72SLPC  C317 6370   0.272   4.168   9.827  0.6746 -0.0243 -0.2742
   72SLPC  H17X 6371   0.196   4.229   9.880 -1.3107 -1.0200 -1.8666
   72SLPC  H17Y 6372   0.233   4.065   9.819 -1.6736  0.6541  1.3021
   72SLPC  C318 6373   0.280   4.236   9.692  0.3583 -0.4306 -0.9046
   72SLPC  H18X 6374   0.362   4.189   9.635  3.1739  1.4769  1.2777
   72SLPC  H18Y 6375   0.307   4.344   9.686 -1.7688  0.1634 -0.8127
   72SLPC  H18Z 6376   0.181   4.251   9.643 -0.8868  0.6858  1.7428
   73SLPC     N 6377   0.650   4.588  11.058 -0.3141 -0.1734  0.1046
   73SLPC   C13 6378   0.733   4.708  11.022  0.1113  0.2120 -0.8651
   73SLPC  H13A 6379   0.772   4.701  10.921 -0.0022  1.2859 -1.0016
   73SLPC  H13B 6380   0.670   4.796  11.018  0.4990  0.4930 -0.9070
   73SLPC  H13C 6381   0.822   4.717  11.081 -2.3031  0.5874  3.0569
   73SLPC   C14 6382   0.534   4.572  10.965  0.3178 -0.4569 -0.4134
   73SLPC  H14A 6383   0.561   4.543  10.865  2.8919  1.4955 -0.4011
   73SLPC  H14B 6384   0.460   4.502  11.002 -0.0790  1.1138  2.0110
   73SLPC  H14C 6385   0.489   4.670  10.965 -0.3496 -0.7580 -0.5214
   73SLPC   C15 6386   0.602   4.599  11.199 -0.3509  0.1144  0.4731
   73SLPC  H15A 6387   0.527   4.523  11.215 -0.7426  0.7000  1.4463
   73SLPC  H15B 6388   0.680   4.597  11.273 -0.7663  1.9778  1.0043
   73SLPC  H15C 6389   0.557   4.696  11.215  1.3643  0.9728  0.3083
   73SLPC   C12 6390   0.735   4.458  11.035 -0.2524 -0.3076 -0.6037
   73SLPC  H12A 6391   0.687   4.369  11.073  0.1234 -0.2418  0.0334
   73SLPC  H12B 6392   0.826   4.465  11.092  0.8649  0.6307 -2.3935
   73SLPC   C11 6393   0.780   4.432  10.890  0.3206 -0.2369  0.3457
   73SLPC  H11A 6394   0.690   4.443  10.825  0.0724  0.1615  0.7533
   73SLPC  H11B 6395   0.812   4.326  10.888 -1.9390 -1.0233  1.5215
   73SLPC     P 6396   1.032   4.518  10.860  0.4326 -0.2098 -0.1229
   73SLPC   O13 6397   1.079   4.639  10.937  0.2510 -0.1152  0.1943
   73SLPC   O14 6398   1.077   4.383  10.900  0.0249  0.1923 -0.3945
   73SLPC   O12 6399   0.869   4.530  10.855 -0.0873  0.6428  0.7955
   73SLPC   O11 6400   1.087   4.521  10.713 -0.1132 -0.8610 -0.1229
   73SLPC    C1 6401   1.006   4.488  10.601  0.8447  0.0755  0.1458
   73SLPC    HA 6402   0.901   4.524  10.606  1.2679  1.6493 -1.2297
   73SLPC    HB 6403   1.058   4.536  10.515 -0.0679 -0.6709 -0.8496
   73SLPC    C2 6404   1.005   4.329  10.571 -0.5305  0.4059 -0.5068
   73SLPC    HS 6405   0.978   4.273  10.664 -0.3577  0.9292 -0.1347
   73SLPC   O21 6406   1.138   4.298  10.522  0.5754 -0.2753  0.3946
   73SLPC   C21 6407   1.176   4.172  10.541 -0.5110 -0.3484  0.7805
   73SLPC   O22 6408   1.101   4.085  10.571  0.7210  0.3238 -0.0987
   73SLPC   C22 6409   1.330   4.159  10.508  0.0402 -0.5015  0.6211
   73SLPC   H2R 6410   1.385   4.241  10.559  1.3367 -1.1381  0.2966
   73SLPC   H2S 6411   1.378   4.065  10.546  0.9570 -0.2223  0.2005
   73SLPC    C3 6412   0.912   4.289  10.454  0.5735  0.5365  0.6129
   73SLPC    HX 6413   0.914   4.180  10.436  2.2549  0.8635 -1.5339
   73SLPC    HY 6414   0.955   4.341  10.366 -0.7309  0.1953 -0.2633
   73SLPC   O31 6415   0.778   4.351  10.459 -0.0312  0.0138  0.0190
   73SLPC   C31 6416   0.682   4.286  10.521  0.0635 -0.5118  1.0746
   73SLPC   O32 6417   0.673   4.167  10.544  0.4313 -0.2097 -0.1013
   73SLPC   C32 6418   0.572   4.385  10.536  0.1689  0.2488 -0.2006
   73SLPC   H2X 6419   0.610   4.489  10.548  1.0238 -0.0735 -0.0515
   73SLPC   H2Y 6420   0.521   4.367  10.633 -1.3935  1.5068 -0.7512
   73SLPC   C23 6421   1.354   4.164  10.358  0.5520  0.2275  0.4455
   73SLPC   H3R 6422   1.460   4.189  10.340  0.2090  0.9205 -0.7277
   73SLPC   H3S 6423   1.285   4.242  10.319 -0.3519 -0.6912  0.1348
   73SLPC   C24 6424   1.323   4.033  10.285 -0.6484  0.8126 -0.0399
   73SLPC   H4R 6425   1.242   3.987  10.345 -0.0624  0.9657  0.8811
   73SLPC   H4S 6426   1.417   3.974  10.290  1.0648  2.8992 -3.6241
   73SLPC   C25 6427   1.304   4.026  10.135  1.0767  0.1391  0.1392
   73SLPC   H5R 6428   1.211   4.071  10.095  1.2864  0.5756  0.1291
   73SLPC   H5S 6429   1.283   3.919  10.117 -0.4654  0.8505 -2.9061
   73SLPC   C26 6430   1.423   4.065  10.056  0.6732 -0.3652  0.0655
   73SLPC   H6R 6431   1.511   4.008  10.092  1.3045  0.0561 -0.7703
   73SLPC   H6S 6432   1.443   4.170  10.087  2.0524 -0.6890  0.3158
   73SLPC   C27 6433   1.407   4.058   9.905 -0.3931  0.2035  0.2008
   73SLPC   H7R 6434   1.372   3.953   9.892  1.2822 -0.3249 -0.3760
   73SLPC   H7S 6435   1.506   4.085   9.863  0.5377 -0.5831  1.8113
   73SLPC   C28 6436   1.312   4.167   9.846  0.6545  0.6249  0.6523
   73SLPC   H8R 6437   1.336   4.263   9.896 -0.6394  1.5190 -0.3772
   73SLPC   H8S 6438   1.211   4.138   9.884  0.0702  0.1607 -1.1624
   73SLPC   C29 6439   1.327   4.189   9.693 -0.3199  0.3606  0.3942
   73SLPC   H9R 6440   1.390   4.272   9.660 -1.0818  0.3189 -1.2674
   73SLPC  C210 6441   1.270   4.118   9.593 -0.5078  0.7421 -0.1490
   73SLPC  H10R 6442   1.284   4.154   9.490 -1.6894  0.7497 -0.3191
   73SLPC  C211 6443   1.193   3.989   9.601 -0.0300  0.5539 -0.5710
   73SLPC  H11R 6444   1.086   4.015   9.597  0.0393  1.0759  0.5986
   73SLPC  H11S 6445   1.212   3.945   9.701 -1.5170  2.1311  0.4544
   73SLPC  C212 6446   1.247   3.875   9.509  0.0860  0.3531 -0.4946
   73SLPC  H12R 6447   1.312   3.920   9.432  0.9460  3.5971  1.8903
   73SLPC  C213 6448   1.231   3.744   9.506 -1.5548  1.0930  0.0889
   73SLPC  H13R 6449   1.292   3.689   9.433  0.5330  0.2061  2.3967
   73SLPC  C214 6450   1.150   3.658   9.605  0.3578  0.4795 -0.2842
   73SLPC  H14R 6451   1.106   3.716   9.689 -2.0136  0.0963 -1.1971
   73SLPC  H14S 6452   1.209   3.575   9.650 -3.5118 -0.7599  3.1283
   73SLPC  C215 6453   1.025   3.584   9.538 -0.4830  0.1076 -0.3810
   73SLPC  H15R 6454   0.951   3.660   9.507 -0.9304  0.6886  1.9320
   73SLPC  H15S 6455   0.978   3.505   9.600 -0.6352  0.8887  0.5184
   73SLPC  C216 6456   1.052   3.527   9.398 -0.0350  0.2115 -0.2603
   73SLPC  H16R 6457   1.076   3.609   9.327  2.5627  0.5257  0.8492
   73SLPC  H16S 6458   0.960   3.477   9.362  0.1725 -1.3980  1.3504
   73SLPC  C217 6459   1.155   3.413   9.389 -0.1532 -0.1569  0.0813
   73SLPC  H17R 6460   1.146   3.321   9.451  1.4547  0.8062  1.8285
   73SLPC  H17S 6461   1.252   3.456   9.421  1.2597 -1.0304 -2.6626
   73SLPC  C218 6462   1.184   3.371   9.250 -0.4009  0.2221  0.3957
   73SLPC  H18R 6463   1.092   3.326   9.208 -1.1784  2.8856 -1.0446
   73SLPC  H18S 6464   1.252   3.284   9.244  0.1696  0.6514  0.5819
   73SLPC  H18T 6465   1.225   3.456   9.192 -1.0889  0.6815  0.5607
   73SLPC   C33 6466   0.465   4.377  10.423 -0.3290  0.2394  0.6090
   73SLPC   H3X 6467   0.428   4.272  10.412 -0.4054  0.2135  1.1254
   73SLPC   H3Y 6468   0.517   4.408  10.330  1.0811  0.4335  1.4342
   73SLPC   C34 6469   0.352   4.466  10.458 -0.2815  0.0500 -0.2311
   73SLPC   H4X 6470   0.387   4.570  10.441 -0.2816 -0.0315 -0.7620
   73SLPC   H4Y 6471   0.328   4.452  10.565 -2.0163  2.3753 -0.2479
   73SLPC   C35 6472   0.227   4.443  10.372  0.2677 -0.0666  0.3024
   73SLPC   H5X 6473   0.143   4.510  10.401  0.1224  0.8564 -2.0266
   73SLPC   H5Y 6474   0.191   4.339  10.387  0.5692 -0.4611 -1.5097
   73SLPC   C36 6475   0.254   4.497  10.233 -0.1172  0.2150  0.3326
   73SLPC   H6X 6476   0.346   4.453  10.189 -0.7893  0.8674 -1.8688
   73SLPC   H6Y 6477   0.260   4.608  10.223  0.0309  0.1093 -0.8348
   73SLPC   C37 6478   0.135   4.463  10.134 -0.3822  0.0771  0.3338
   73SLPC   H7X 6479   0.039   4.510  10.165 -0.5196  1.6999 -2.3021
   73SLPC   H7Y 6480   0.123   4.356  10.109 -1.3903  0.4183 -0.6904
   73SLPC   C38 6481   0.163   4.524   9.997 -0.1829 -0.6168 -0.0688
   73SLPC   H8X 6482   0.254   4.472   9.959  2.2037  1.5699  2.2346
   73SLPC   H8Y 6483   0.179   4.634  10.003 -1.3428 -0.2384 -2.4216
   73SLPC   C39 6484   0.058   4.501   9.886 -0.0896  0.4307  0.6325
   73SLPC   H9X 6485  -0.038   4.554   9.908 -1.0880 -1.3892  0.8065
   73SLPC   H9Y 6486   0.040   4.394   9.866  2.7572 -0.1257  0.6273
   73SLPC  C310 6487   0.104   4.557   9.753  0.2627  0.1646  0.8248
   73SLPC  H10X 6488   0.205   4.522   9.720 -0.1827 -0.8681  0.5146
   73SLPC  H10Y 6489   0.116   4.665   9.776 -1.6293  0.2571  1.4586
   73SLPC  C311 6490   0.007   4.546   9.642 -0.1204 -0.1605  0.2428
   73SLPC  H11X 6491  -0.086   4.594   9.681 -0.7359  0.0743 -1.4532
   73SLPC  H11Y 6492  -0.026   4.441   9.625 -1.2166  0.1128  0.5599
   73SLPC  C312 6493   0.052   4.605   9.506 -0.4301  0.4217 -0.3574
   73SLPC  H12X 6494   0.142   4.553   9.468 -0.7854 -0.8640  0.5057
   73SLPC  H12Y 6495   0.088   4.709   9.526 -0.4604  0.1671  1.0846
   73SLPC  C313 6496  -0.054   4.592   9.389  0.5499 -0.2217  0.5416
   73SLPC  H13X 6497  -0.149   4.639   9.421 -0.1516  0.0806 -1.7991
   73SLPC  H13Y 6498  -0.071   4.487   9.359 -0.2946 -0.0553  0.4083
   73SLPC  C314 6499   0.007   4.658   9.263  0.1495  0.0360 -0.4142
   73SLPC  H14X 6500   0.116   4.637   9.258  0.5640  2.2351 -1.4827
   73SLPC  H14Y 6501   0.003   4.764   9.295 -1.5325 -0.3121  0.6286
   73SLPC  C315 6502  -0.075   4.631   9.133 -0.6003 -0.1830  0.8698
   73SLPC  H15X 6503  -0.176   4.671   9.155 -1.7456 -0.9972 -2.3837
   73SLPC  H15Y 6504  -0.085   4.522   9.113 -0.1284  0.0914 -1.0219
   73SLPC  C316 6505  -0.020   4.691   8.995 -0.5033  0.5399 -0.4171
   73SLPC  H16X 6506   0.086   4.660   8.982 -0.7289  0.4387 -2.2012
   73SLPC  H16Y 6507  -0.004   4.801   9.001  0.8225  0.4814 -1.9997
   73SLPC  C317 6508  -0.105   4.651   8.878  0.1416  0.0799 -0.4188
   73SLPC  H17X 6509  -0.207   4.642   8.920 -0.2404  0.4127 -1.2472
   73SLPC  H17Y 6510  -0.074   4.547   8.852  0.4059  0.1274 -0.2960
   73SLPC  C318 6511  -0.091   4.737   8.757 -0.1192  0.3334 -0.2979
   73SLPC  H18X 6512   0.010   4.735   8.709  1.0643  0.0400  2.0544
   73SLPC  H18Y 6513  -0.117   4.842   8.781  2.1369  0.5673  1.5084
   73SLPC  H18Z 6514  -0.171   4.706   8.687 -0.2847 -2.1911  0.9158
   74SLPC     N 6515   2.861   5.592  10.797  0.3742 -0.1182 -0.1794
   74SLPC   C13 6516   2.979   5.523  10.881 -0.1301 -0.3925 -0.3126
   74SLPC  H13A 6517   2.984   5.554  10.985  0.1149 -2.2267  0.2486
   74SLPC  H13B 6518   2.969   5.416  10.876  0.0842 -0.4777  0.8967
   74SLPC  H13C 6519   3.074   5.549  10.836  0.5168  0.1848  1.3110
   74SLPC   C14 6520   2.900   5.733  10.786  0.1259 -0.6881 -0.5368
   74SLPC  H14A 6521   2.926   5.765  10.886 -1.4673 -3.2642  0.8199
   74SLPC  H14B 6522   2.994   5.735  10.733 -0.1524 -1.7781 -1.0948
   74SLPC  H14C 6523   2.823   5.794  10.742 -0.9495 -0.2054  1.8630
   74SLPC   C15 6524   2.730   5.580  10.878 -0.5642  1.1922  0.4335
   74SLPC  H15A 6525   2.679   5.486  10.866 -0.1969  0.9937  0.4035
   74SLPC  H15B 6526   2.754   5.589  10.983  0.1333  2.1783  0.2010
   74SLPC  H15C 6527   2.651   5.647  10.848 -0.6736  0.4625 -0.9893
   74SLPC   C12 6528   2.847   5.529  10.659 -0.3237 -0.2221 -0.1455
   74SLPC  H12A 6529   2.931   5.563  10.600 -2.9251  2.2652 -2.7611
   74SLPC  H12B 6530   2.767   5.582  10.609  0.4165 -0.9114 -2.1650
   74SLPC   C11 6531   2.814   5.375  10.650  0.4496 -0.0782 -0.0159
   74SLPC  H11A 6532   2.909   5.324  10.679 -1.0291 -1.9109  1.9654
   74SLPC  H11B 6533   2.803   5.341  10.545 -0.9562 -2.4954  0.8274
   74SLPC     P 6534   2.569   5.305  10.652  0.0768  0.6183  0.3226
   74SLPC   O13 6535   2.462   5.261  10.746 -0.3227 -0.5087  0.0101
   74SLPC   O14 6536   2.546   5.422  10.555  0.4994  0.3513  0.3933
   74SLPC   O12 6537   2.702   5.336  10.733 -0.9674 -0.5989  0.6869
   74SLPC   O11 6538   2.601   5.174  10.567  0.5094  0.3622 -0.2791
   74SLPC    C1 6539   2.686   5.070  10.631  0.3101 -0.5144  0.4757
   74SLPC    HA 6540   2.793   5.096  10.646 -0.3091  2.1095  0.7621
   74SLPC    HB 6541   2.643   5.041  10.729  1.3337 -0.2092  1.0336
   74SLPC    C2 6542   2.673   4.937  10.554 -0.3858  0.7671 -0.0721
   74SLPC    HS 6543   2.718   4.857  10.616  0.1887 -0.2401 -1.7073
   74SLPC   O21 6544   2.748   4.935  10.428 -0.1862 -0.0690 -0.8718
   74SLPC   C21 6545   2.876   4.938  10.436  0.7421 -0.5573 -0.9262
   74SLPC   O22 6546   2.952   4.940  10.534  0.5463 -0.4329  1.1513
   74SLPC   C22 6547   2.944   4.912  10.298 -0.4347  0.0768 -0.4352
   74SLPC   H2R 6548   3.040   4.865  10.326  0.3458  2.1650  0.6721
   74SLPC   H2S 6549   2.883   4.831  10.254 -0.4157  1.0389 -2.3510
   74SLPC    C3 6550   2.519   4.902  10.522 -0.1676 -0.2621 -0.4682
   74SLPC    HX 6551   2.473   4.991  10.473  2.4147  2.6631  1.9744
   74SLPC    HY 6552   2.475   4.889  10.623  0.0127  0.1954 -0.3276
   74SLPC   O31 6553   2.498   4.781  10.451 -0.2993  0.3695 -0.0305
   74SLPC   C31 6554   2.508   4.790  10.316  0.5254  0.2608  0.1944
   74SLPC   O32 6555   2.529   4.897  10.256 -0.4640  0.1976  0.1362
   74SLPC   C32 6556   2.489   4.647  10.258 -0.4601 -0.5381 -0.2538
   74SLPC   H2X 6557   2.404   4.603  10.316  0.9828 -2.2011  0.6800
   74SLPC   H2Y 6558   2.584   4.597  10.288  0.6601 -0.0252 -2.7291
   74SLPC   C23 6559   2.957   5.024  10.196 -0.1830  0.3165 -0.3756
   74SLPC   H3R 6560   3.046   5.000  10.134 -0.0864 -2.5353  0.7225
   74SLPC   H3S 6561   2.993   5.123  10.232  1.2610  0.5603 -2.3351
   74SLPC   C24 6562   2.830   5.039  10.098 -0.5175  0.5503 -0.3716
   74SLPC   H4R 6563   2.865   5.122  10.033 -1.3137  1.2411  0.0624
   74SLPC   H4S 6564   2.746   5.081  10.156 -0.9797  0.9384 -1.2957
   74SLPC   C25 6565   2.786   4.908  10.026  0.0668 -0.1094 -0.1131
   74SLPC   H5R 6566   2.705   4.923   9.952  1.1667 -1.4431 -1.6723
   74SLPC   H5S 6567   2.741   4.854  10.111  1.6063  2.2458  2.3539
   74SLPC   C26 6568   2.896   4.836   9.948 -0.4258 -1.0108 -0.1229
   74SLPC   H6R 6569   2.856   4.736   9.922 -1.0791 -1.2247  1.5953
   74SLPC   H6S 6570   2.981   4.817  10.016 -0.6006 -0.2087  0.3336
   74SLPC   C27 6571   2.946   4.903   9.821 -0.0964 -0.0230 -0.7642
   74SLPC   H7R 6572   3.048   4.862   9.808 -0.4103 -0.4003 -2.3483
   74SLPC   H7S 6573   2.953   5.007   9.860 -1.7217 -0.3282  0.4611
   74SLPC   C28 6574   2.851   4.904   9.694 -0.1026 -0.2820 -0.0163
   74SLPC   H8R 6575   2.893   4.963   9.610 -0.9616 -3.2740 -2.7134
   74SLPC   H8S 6576   2.747   4.934   9.719  1.0923  4.9982 -0.1711
   74SLPC   C29 6577   2.844   4.759   9.641  0.2125  0.3628  0.2045
   74SLPC   H9R 6578   2.797   4.683   9.705  1.5952 -0.6566  0.0396
   74SLPC  C210 6579   2.892   4.712   9.523 -0.9432  0.3733 -0.1841
   74SLPC  H10R 6580   2.898   4.603   9.507  2.7713  0.0312  2.2803
   74SLPC  C211 6581   2.960   4.798   9.416 -0.5364  0.4959 -0.0954
   74SLPC  H11R 6582   3.049   4.746   9.373  0.8246  1.3643  1.5585
   74SLPC  H11S 6583   3.014   4.874   9.476  1.8838  0.4995 -2.1218
   74SLPC  C212 6584   2.871   4.849   9.309 -0.4398  0.4251 -0.0570
   74SLPC  H12R 6585   2.798   4.927   9.334 -0.3504  0.7972 -0.9554
   74SLPC  C213 6586   2.869   4.805   9.178 -0.8309 -0.9593  0.3403
   74SLPC  H13R 6587   2.795   4.862   9.119  0.4140  1.8058  1.2923
   74SLPC  C214 6588   2.956   4.702   9.109  0.8583  0.3760  0.5324
   74SLPC  H14R 6589   3.038   4.660   9.171  0.3837 -0.4768  0.5888
   74SLPC  H14S 6590   2.996   4.758   9.021 -2.4530  1.5791 -0.3755
   74SLPC  C215 6591   2.882   4.575   9.053  0.0714 -0.2554  0.5466
   74SLPC  H15R 6592   2.806   4.621   8.986 -1.5060  0.0958  2.4798
   74SLPC  H15S 6593   2.842   4.516   9.138  0.8176  1.7079  2.3417
   74SLPC  C216 6594   2.980   4.498   8.968 -0.8615  0.8448  0.3308
   74SLPC  H16R 6595   3.054   4.462   9.042 -1.7710 -0.2666  0.7104
   74SLPC  H16S 6596   3.041   4.556   8.894 -1.1599 -2.5219 -2.8257
   74SLPC  C217 6597   2.915   4.391   8.888 -0.4150  0.4799  0.5876
   74SLPC  H17R 6598   2.843   4.430   8.814 -0.8485 -1.3704 -0.0334
   74SLPC  H17S 6599   2.866   4.318   8.956 -0.4438 -1.0579 -1.0121
   74SLPC  C218 6600   3.020   4.305   8.808  0.1960  0.1729 -0.3549
   74SLPC  H18R 6601   2.972   4.208   8.779 -0.0937 -1.1199  3.8192
   74SLPC  H18S 6602   3.095   4.261   8.876 -1.5031 -0.8025  0.9883
   74SLPC  H18T 6603   3.072   4.365   8.731  2.3838 -0.9606  0.1503
   74SLPC   C33 6604   2.475   4.648  10.109  0.8974  0.5063  1.2092
   74SLPC   H3X 6605   2.567   4.676  10.054  1.9646 -1.2580  2.0030
   74SLPC   H3Y 6606   2.393   4.720  10.087  2.6171  1.5933 -2.4004
   74SLPC   C34 6607   2.433   4.510  10.057  0.5095  0.8551  0.7252
   74SLPC   H4X 6608   2.346   4.487  10.122  1.1702 -0.2249  1.2535
   74SLPC   H4Y 6609   2.506   4.430  10.082 -0.0594  0.4543  1.1283
   74SLPC   C35 6610   2.382   4.504   9.911 -0.1887 -0.4562  0.0469
   74SLPC   H5X 6611   2.466   4.529   9.842  0.6698 -3.8779 -0.3688
   74SLPC   H5Y 6612   2.309   4.587   9.911  0.0620 -0.1887  2.0031
   74SLPC   C36 6613   2.312   4.378   9.861  0.3616  0.0754  0.2269
   74SLPC   H6X 6614   2.245   4.340   9.941 -1.7519  1.5323 -0.7505
   74SLPC   H6Y 6615   2.398   4.312   9.838  0.7455  0.7326 -0.2586
   74SLPC   C37 6616   2.231   4.405   9.732  0.4199  0.2859 -0.0806
   74SLPC   H7X 6617   2.306   4.445   9.660  2.0972 -1.1871  0.7663
   74SLPC   H7Y 6618   2.156   4.483   9.755  0.1897 -0.1027  0.5134
   74SLPC   C38 6619   2.162   4.279   9.673  0.1674 -1.0438 -0.0703
   74SLPC   H8X 6620   2.073   4.254   9.735 -0.5259  0.6208 -0.3510
   74SLPC   H8Y 6621   2.228   4.193   9.648  1.5259  0.6822 -2.9405
   74SLPC   C39 6622   2.092   4.321   9.537 -0.1145  0.6861  0.1744
   74SLPC   H9X 6623   2.020   4.405   9.547 -0.0808  0.6605  0.6722
   74SLPC   H9Y 6624   2.052   4.227   9.493  0.6176  1.2709 -1.8209
   74SLPC  C310 6625   2.195   4.354   9.437  0.0532 -1.2440  0.2448
   74SLPC  H10X 6626   2.271   4.275   9.416  0.6159 -0.8430  0.7407
   74SLPC  H10Y 6627   2.261   4.437   9.472 -0.4318  1.3295 -4.1906
   74SLPC  C311 6628   2.141   4.403   9.303 -0.1469 -0.0227  0.1033
   74SLPC  H11X 6629   2.236   4.429   9.252  1.3866 -3.4070  0.9430
   74SLPC  H11Y 6630   2.085   4.496   9.325  1.3771  0.8561  0.4054
   74SLPC  C312 6631   2.054   4.296   9.234  0.5382 -0.1667  0.2292
   74SLPC  H12X 6632   1.972   4.267   9.303  0.4472  0.6307  0.4670
   74SLPC  H12Y 6633   2.129   4.215   9.218 -0.2564 -1.2144  1.5747
   74SLPC  C313 6634   1.984   4.344   9.104  0.6685  0.4414  0.7435
   74SLPC  H13X 6635   2.044   4.401   9.031 -0.0893  1.0997  0.6157
   74SLPC  H13Y 6636   1.894   4.403   9.133 -1.0997 -1.8418  0.1412
   74SLPC  C314 6637   1.923   4.223   9.035  0.0200  0.4762  0.4914
   74SLPC  H14X 6638   1.841   4.243   8.962 -1.4744 -2.0307  1.3452
   74SLPC  H14Y 6639   1.891   4.143   9.105  0.7683 -0.5050 -0.2470
   74SLPC  C315 6640   2.021   4.150   8.939  0.3373 -1.0672  0.7557
   74SLPC  H15X 6641   2.121   4.137   8.985  1.6775 -1.0768 -1.9641
   74SLPC  H15Y 6642   2.028   4.217   8.851 -1.7469  0.5764  1.7379
   74SLPC  C316 6643   1.977   4.017   8.875 -0.5251 -0.2963  0.3936
   74SLPC  H16X 6644   1.873   4.014   8.836 -0.3130 -1.6844 -0.1296
   74SLPC  H16Y 6645   1.981   3.946   8.960  0.8855  2.1767  2.5276
   74SLPC  C317 6646   2.082   3.978   8.772 -0.6013  0.5711  0.7010
   74SLPC  H17X 6647   2.180   4.006   8.818 -0.5052  0.5558  0.5067
   74SLPC  H17Y 6648   2.076   4.040   8.681  1.5687 -0.1675 -0.0304
   74SLPC  C318 6649   2.085   3.832   8.744  0.2810 -0.1008 -0.1965
   74SLPC  H18X 6650   2.002   3.810   8.673 -0.9912 -1.0974  1.5423
   74SLPC  H18Y 6651   2.058   3.768   8.831 -2.9987  2.2243  0.6666
   74SLPC  H18Z 6652   2.184   3.806   8.699 -0.3968 -1.5163 -0.9240
   75SLPC     N 6653   1.059   2.065   6.288  0.5006 -0.5293 -0.2213
   75SLPC   C13 6654   1.150   2.165   6.356  1.4153 -0.0075  0.6193
   75SLPC  H13A 6655   1.233   2.112   6.402  0.5937 -2.4681 -0.5186
   75SLPC  H13B 6656   1.198   2.229   6.283  1.5330  1.9596  2.3634
   75SLPC  H13C 6657   1.093   2.231   6.419  0.1685 -0.8919  0.4463
   75SLPC   C14 6658   1.015   1.977   6.391  0.1584  0.1367 -0.6073
   75SLPC  H14A 6659   1.092   1.933   6.453 -1.0381 -0.3544  0.5958
   75SLPC  H14B 6660   0.940   2.026   6.453  0.5845 -0.1789  0.1676
   75SLPC  H14C 6661   0.958   1.893   6.355  0.3781 -0.2689 -0.0295
   75SLPC   C15 6662   1.131   2.009   6.182 -0.0781 -0.2106 -0.2810
   75SLPC  H15A 6663   1.183   1.922   6.222 -0.6381  0.4989  2.1827
   75SLPC  H15B 6664   1.066   1.974   6.103 -0.6888 -0.2986  0.2547
   75SLPC  H15C 6665   1.202   2.076   6.137 -0.6335  0.6931  0.1748
   75SLPC   C12 6666   0.936   2.137   6.231 -0.0220 -0.2616  0.3398
   75SLPC  H12A 6667   0.878   2.069   6.170  0.7228 -0.4601 -0.1733
   75SLPC  H12B 6668   0.984   2.200   6.158 -1.2066 -1.0068 -1.1452
   75SLPC   C11 6669   0.845   2.224   6.316 -0.7224 -0.1576  0.8162
   75SLPC  H11A 6670   0.793   2.298   6.251  1.2143  0.8375  0.3285
   75SLPC  H11B 6671   0.916   2.290   6.370  1.5590  0.0580 -2.1339
   75SLPC     P 6672   0.657   2.234   6.493 -0.5756 -0.0530 -0.2108
   75SLPC   O13 6673   0.639   2.373   6.444 -0.3152 -0.3825 -0.5819
   75SLPC   O14 6674   0.532   2.164   6.514  0.9633  0.4394  0.3911
   75SLPC   O12 6675   0.754   2.147   6.400  0.3405  0.2882  0.4453
   75SLPC   O11 6676   0.740   2.256   6.631 -0.1637 -0.1458  0.6669
   75SLPC    C1 6677   0.804   2.138   6.689  0.5350  0.0444 -0.6393
   75SLPC    HA 6678   0.876   2.093   6.618 -1.0695 -1.7960 -1.1508
   75SLPC    HB 6679   0.860   2.175   6.778  0.5877 -2.3337  0.3711
   75SLPC    C2 6680   0.699   2.036   6.742 -0.1533 -0.7438 -0.2653
   75SLPC    HS 6681   0.657   1.984   6.654 -0.9565 -0.6099  0.0324
   75SLPC   O21 6682   0.595   2.102   6.825 -0.1418 -0.0112 -0.1347
   75SLPC   C21 6683   0.475   2.053   6.816  0.1336  0.3482 -0.0689
   75SLPC   O22 6684   0.449   1.961   6.746  0.5104  0.2302 -0.4685
   75SLPC   C22 6685   0.365   2.122   6.901  1.0567  0.5027  0.3486
   75SLPC   H2R 6686   0.413   2.216   6.938  0.6336  0.1067  2.0128
   75SLPC   H2S 6687   0.282   2.128   6.828  1.0065 -0.5249  0.3056
   75SLPC    C3 6688   0.778   1.924   6.821  0.0212 -0.4887 -0.0029
   75SLPC    HX 6689   0.863   1.897   6.754  1.0575  0.3830  0.9371
   75SLPC    HY 6690   0.716   1.832   6.826  0.6762 -0.9647 -0.4780
   75SLPC   O31 6691   0.831   1.969   6.946 -0.2159 -0.1587 -0.2987
   75SLPC   C31 6692   0.885   1.868   7.029  0.4242 -0.4498  0.2385
   75SLPC   O32 6693   0.886   1.751   6.994 -0.4173 -0.0158  0.1087
   75SLPC   C32 6694   0.924   1.921   7.171  1.1871 -0.4399 -0.8270
   75SLPC   H2X 6695   0.833   1.940   7.231 -1.4647 -0.3665 -4.4909
   75SLPC   H2Y 6696   0.977   2.018   7.157 -2.0875  1.5981 -0.1957
   75SLPC   C23 6697   0.301   2.041   7.023 -0.4993 -0.4326  0.5948
   75SLPC   H3R 6698   0.278   1.936   6.994 -3.8865 -0.5745  3.1052
   75SLPC   H3S 6699   0.202   2.088   7.041  0.1855  0.1199  3.4213
   75SLPC   C24 6700   0.365   2.042   7.158  0.0178 -0.0822 -0.6850
   75SLPC   H4R 6701   0.300   1.981   7.224  0.7834  1.0313  1.1791
   75SLPC   H4S 6702   0.354   2.143   7.202  2.7068  0.9290 -2.0692
   75SLPC   C25 6703   0.509   1.999   7.177  0.1358 -0.1302  0.7460
   75SLPC   H5R 6704   0.575   2.060   7.112  0.5822 -0.8597  0.5062
   75SLPC   H5S 6705   0.518   1.896   7.137  1.1812  0.3409 -0.2756
   75SLPC   C26 6706   0.543   1.981   7.321 -0.5267 -0.2037 -0.8210
   75SLPC   H6R 6707   0.647   1.944   7.328 -0.8888 -0.8439  3.6903
   75SLPC   H6S 6708   0.471   1.907   7.362 -2.2139  0.6091 -2.1564
   75SLPC   C27 6709   0.535   2.103   7.407 -0.1275 -0.2170 -0.2205
   75SLPC   H7R 6710   0.447   2.096   7.474  0.1821  0.9850  0.3325
   75SLPC   H7S 6711   0.508   2.188   7.341 -2.3246 -0.9365 -0.3247
   75SLPC   C28 6712   0.649   2.118   7.505 -0.4010  0.2996 -0.0885
   75SLPC   H8R 6713   0.676   2.029   7.566 -2.0177  0.4699  0.9386
   75SLPC   H8S 6714   0.612   2.192   7.579 -2.0314 -0.3325 -0.2152
   75SLPC   C29 6715   0.763   2.170   7.424 -0.2701 -0.3763 -0.1569
   75SLPC   H9R 6716   0.771   2.149   7.316 -0.7174 -0.0554 -0.2576
   75SLPC  C210 6717   0.855   2.261   7.473  0.3452  1.4904  0.3708
   75SLPC  H10R 6718   0.932   2.298   7.403  1.4193  0.5077  0.9942
   75SLPC  C211 6719   0.852   2.317   7.617  0.4346 -0.3858 -0.3143
   75SLPC  H11R 6720   0.958   2.307   7.652  0.5124  1.4699  0.0790
   75SLPC  H11S 6721   0.801   2.252   7.691  0.9951 -0.3026  0.1544
   75SLPC  C212 6722   0.800   2.457   7.622 -0.3139  0.0842  0.0974
   75SLPC  H12R 6723   0.733   2.484   7.539 -0.6445 -0.1515  0.2838
   75SLPC  C213 6724   0.833   2.548   7.720 -0.1203  0.3298  0.3361
   75SLPC  H13R 6725   0.782   2.644   7.737 -1.2649 -0.5429  2.1190
   75SLPC  C214 6726   0.930   2.529   7.830 -0.1387  0.6330 -0.3856
   75SLPC  H14R 6727   0.977   2.429   7.831 -0.2456  0.5029 -3.1238
   75SLPC  H14S 6728   0.867   2.546   7.920  0.6348  0.3302  0.2249
   75SLPC  C215 6729   1.041   2.633   7.842  0.0152  0.1964 -0.8676
   75SLPC  H15R 6730   1.099   2.635   7.747 -0.3297 -2.1401 -1.1720
   75SLPC  H15S 6731   1.114   2.600   7.919  0.6117  0.1659 -1.4469
   75SLPC  C216 6732   0.990   2.774   7.887 -0.1386  0.1061  0.3444
   75SLPC  H16R 6733   0.929   2.765   7.980 -3.1641  0.5786 -1.4711
   75SLPC  H16S 6734   0.933   2.823   7.805  0.7905  0.9430  0.1811
   75SLPC  C217 6735   1.104   2.875   7.929 -0.4152 -0.9376 -0.5274
   75SLPC  H17R 6736   1.173   2.843   8.010  1.6136 -1.1545 -2.2794
   75SLPC  H17S 6737   1.057   2.966   7.972  0.5675 -1.2956  1.4314
   75SLPC  C218 6738   1.197   2.931   7.819  1.5235 -0.5889 -0.4763
   75SLPC  H18R 6739   1.271   2.857   7.782  1.0932  0.2984 -3.3162
   75SLPC  H18S 6740   1.259   3.014   7.860 -0.9233  0.7155  0.8074
   75SLPC  H18T 6741   1.143   2.968   7.730  0.9379 -3.1290 -1.2563
   75SLPC   C33 6742   1.010   1.828   7.258  0.5094  0.0188 -0.5764
   75SLPC   H3X 6743   0.933   1.757   7.294  1.1064  0.1839  1.1348
   75SLPC   H3Y 6744   1.084   1.782   7.189  1.1949  0.8324 -0.3989
   75SLPC   C34 6745   1.066   1.899   7.385  0.3744 -0.2150  0.3967
   75SLPC   H4X 6746   0.989   1.940   7.453 -0.6688  0.4622 -1.1303
   75SLPC   H4Y 6747   1.133   1.980   7.347  0.0573  0.0640  0.4277
   75SLPC   C35 6748   1.158   1.805   7.469 -0.1778 -0.1909  0.0105
   75SLPC   H5X 6749   1.243   1.778   7.402  0.1548  1.9522 -0.5082
   75SLPC   H5Y 6750   1.096   1.713   7.474  0.1381 -0.3677  0.8640
   75SLPC   C36 6751   1.208   1.854   7.604 -0.0803 -0.4409 -0.9889
   75SLPC   H6X 6752   1.125   1.912   7.648 -1.5196 -2.1052 -1.4250
   75SLPC   H6Y 6753   1.285   1.932   7.586  2.0024 -1.3530  2.8516
   75SLPC   C37 6754   1.265   1.743   7.692  0.9658  1.5174  0.2123
   75SLPC   H7X 6755   1.321   1.673   7.626  0.3223 -1.2465  2.3900
   75SLPC   H7Y 6756   1.176   1.695   7.738  1.6801  1.1251  1.2227
   75SLPC   C38 6757   1.362   1.789   7.795  0.6320 -0.6582  0.1380
   75SLPC   H8X 6758   1.321   1.884   7.837  1.8006  0.1406 -0.4563
   75SLPC   H8Y 6759   1.446   1.823   7.731  0.1165 -0.7784 -0.6179
   75SLPC   C39 6760   1.417   1.684   7.891  0.6967 -0.0242 -0.0335
   75SLPC   H9X 6761   1.483   1.729   7.968  0.0770  1.6198 -0.4214
   75SLPC   H9Y 6762   1.465   1.605   7.829 -3.2697 -2.8212 -0.0021
   75SLPC  C310 6763   1.307   1.625   7.978 -0.4067  0.4761 -0.3888
   75SLPC  H10X 6764   1.232   1.564   7.923  2.2368 -2.7451 -0.7825
   75SLPC  H10Y 6765   1.260   1.717   8.018  1.3898  1.5032 -0.5361
   75SLPC  C311 6766   1.362   1.524   8.078  0.0702 -0.5847  0.0524
   75SLPC  H11X 6767   1.452   1.568   8.127 -1.3577  4.0527 -0.9506
   75SLPC  H11Y 6768   1.391   1.435   8.019  1.0045  0.8709 -1.7975
   75SLPC  C312 6769   1.249   1.460   8.169 -0.0683 -0.5860 -0.4187
   75SLPC  H12X 6770   1.176   1.412   8.101  0.5853  0.0179 -1.5955
   75SLPC  H12Y 6771   1.223   1.552   8.225  0.6516  1.7242 -3.6010
   75SLPC  C313 6772   1.309   1.349   8.263 -0.3674 -0.4115  0.3651
   75SLPC  H13X 6773   1.240   1.317   8.344 -0.1369 -0.7613  0.4257
   75SLPC  H13Y 6774   1.405   1.373   8.312  0.8279 -3.2053 -0.3972
   75SLPC  C314 6775   1.343   1.222   8.185 -0.4951  0.2869  0.2982
   75SLPC  H14X 6776   1.358   1.248   8.078  0.3590  1.6007  0.7123
   75SLPC  H14Y 6777   1.266   1.142   8.195  2.5595 -3.0146 -0.7124
   75SLPC  C315 6778   1.479   1.157   8.238 -0.1709 -0.6162  0.2099
   75SLPC  H15X 6779   1.458   1.123   8.342 -0.8508  0.8593  0.5890
   75SLPC  H15Y 6780   1.558   1.235   8.237 -1.9279  1.2751 -1.6963
   75SLPC  C316 6781   1.532   1.026   8.166  0.6029  0.4947 -0.8873
   75SLPC  H16X 6782   1.470   0.938   8.193  2.0934 -0.0996  0.7995
   75SLPC  H16Y 6783   1.637   1.008   8.199  0.7663  1.3611 -0.8934
   75SLPC  C317 6784   1.532   1.042   8.012  0.2740 -0.0934 -0.6563
   75SLPC  H17X 6785   1.608   1.121   7.994 -1.5090  2.0878  0.7120
   75SLPC  H17Y 6786   1.435   1.076   7.970  0.0858  0.7713  0.4231
   75SLPC  C318 6787   1.563   0.918   7.931 -0.0826 -0.0819 -0.3145
   75SLPC  H18X 6788   1.478   0.850   7.950 -0.2708  0.2477  0.0472
   75SLPC  H18Y 6789   1.652   0.867   7.975  0.9422  1.4961 -0.4685
   75SLPC  H18Z 6790   1.581   0.937   7.823 -1.4598  1.4541 -0.3057
   76SLPC     N 6791   1.258   1.270   6.256 -0.2916 -1.2665 -0.3191
   76SLPC   C13 6792   1.294   1.212   6.117  0.2413 -0.6394 -0.3419
   76SLPC  H13A 6793   1.242   1.118   6.116 -2.3082  0.6146  1.6004
   76SLPC  H13B 6794   1.251   1.273   6.038  2.2726  0.7503 -0.4814
   76SLPC  H13C 6795   1.401   1.195   6.113  0.7873  1.9006  1.1684
   76SLPC   C14 6796   1.112   1.292   6.258 -0.4926 -0.2599 -0.4676
   76SLPC  H14A 6797   1.075   1.330   6.352 -1.2898 -0.6177 -0.6327
   76SLPC  H14B 6798   1.068   1.354   6.181 -1.1557 -0.8865 -0.5970
   76SLPC  H14C 6799   1.065   1.198   6.235  1.1839 -0.7994 -1.9758
   76SLPC   C15 6800   1.324   1.406   6.283  0.2833 -0.5864  0.8312
   76SLPC  H15A 6801   1.432   1.397   6.281  0.5346  1.3136 -2.9673
   76SLPC  H15B 6802   1.296   1.473   6.203  0.7244  0.2170  1.3236
   76SLPC  H15C 6803   1.294   1.445   6.379  2.0443 -0.3680  1.3340
   76SLPC   C12 6804   1.300   1.181   6.379 -0.3364  0.2360 -0.5300
   76SLPC  H12A 6805   1.274   1.241   6.465  2.4447  2.4220 -1.0638
   76SLPC  H12B 6806   1.406   1.163   6.378  0.2684  3.2877 -0.9793
   76SLPC   C11 6807   1.223   1.042   6.399 -0.0448 -0.5775 -0.1653
   76SLPC  H11A 6808   1.114   1.065   6.404  0.1001  0.1368 -0.1451
   76SLPC  H11B 6809   1.252   0.984   6.489 -0.1981 -1.1225 -0.4651
   76SLPC     P 6810   1.387   0.883   6.286 -0.5902 -0.0778 -0.2334
   76SLPC   O13 6811   1.407   0.817   6.154 -0.1574  0.3197 -0.2154
   76SLPC   O14 6812   1.494   0.967   6.343  0.0826 -0.3027  0.6619
   76SLPC   O12 6813   1.248   0.960   6.282 -0.0413 -0.2833 -0.1467
   76SLPC   O11 6814   1.363   0.773   6.396  0.2785  0.0134 -0.1978
   76SLPC    C1 6815   1.287   0.659   6.368 -0.4656 -0.0698 -0.4953
   76SLPC    HA 6816   1.205   0.677   6.296 -0.2966 -1.2912 -1.0220
   76SLPC    HB 6817   1.354   0.572   6.350 -0.4156  0.0013 -0.6606
   76SLPC    C2 6818   1.208   0.623   6.498  0.1770  0.4700 -0.0142
   76SLPC    HS 6819   1.138   0.707   6.518 -2.3327 -1.4556 -0.1432
   76SLPC   O21 6820   1.299   0.606   6.606  0.1072 -0.3179 -0.2167
   76SLPC   C21 6821   1.310   0.701   6.686 -0.3804  0.4025 -0.0377
   76SLPC   O22 6822   1.260   0.810   6.683 -0.5368 -0.4442  0.2877
   76SLPC   C22 6823   1.400   0.659   6.803  0.5277  0.8744 -0.6255
   76SLPC   H2R 6824   1.360   0.557   6.823 -0.9343  1.2814 -1.3322
   76SLPC   H2S 6825   1.502   0.659   6.758 -0.0338 -2.8075 -2.2655
   76SLPC    C3 6826   1.121   0.489   6.489 -0.1558  0.4351  0.8062
   76SLPC    HX 6827   1.191   0.402   6.491 -2.7246 -1.8045 -0.5064
   76SLPC    HY 6828   1.064   0.493   6.394  0.9227 -0.5862  0.0806
   76SLPC   O31 6829   1.036   0.484   6.604  0.0106  0.7446  0.3844
   76SLPC   C31 6830   0.948   0.379   6.595  0.5104  0.0253 -0.3909
   76SLPC   O32 6831   0.953   0.304   6.499  0.6377 -0.0815 -0.1001
   76SLPC   C32 6832   0.842   0.372   6.711 -0.2200  0.0461 -0.5326
   76SLPC   H2X 6833   0.785   0.467   6.700  0.7379  0.9216  1.5273
   76SLPC   H2Y 6834   0.919   0.385   6.790 -0.9234  0.7500  0.0513
   76SLPC   C23 6835   1.383   0.744   6.935 -1.0025  0.4685  0.3654
   76SLPC   H3R 6836   1.274   0.733   6.954 -1.2160  1.4784 -0.2109
   76SLPC   H3S 6837   1.410   0.851   6.923  2.0400 -0.0987  1.2336
   76SLPC   C24 6838   1.474   0.702   7.057  0.2371  0.1644 -0.0321
   76SLPC   H4R 6839   1.529   0.791   7.095 -0.8517  0.6972  0.3353
   76SLPC   H4S 6840   1.555   0.641   7.013  1.5426  0.3771  1.9089
   76SLPC   C25 6841   1.404   0.619   7.162 -0.1507  0.6560  0.0640
   76SLPC   H5R 6842   1.342   0.544   7.108 -0.1191  0.8452 -0.2374
   76SLPC   H5S 6843   1.332   0.672   7.228  0.6290  1.0781  0.5901
   76SLPC   C26 6844   1.508   0.543   7.243 -0.1450  0.4721 -0.4331
   76SLPC   H6R 6845   1.574   0.471   7.191 -0.9066 -2.3426  2.1566
   76SLPC   H6S 6846   1.444   0.477   7.306 -1.5781  2.0767 -0.1275
   76SLPC   C27 6847   1.591   0.636   7.333  0.1405  0.7316  0.3157
   76SLPC   H7R 6848   1.605   0.730   7.277 -0.2788  0.2023 -0.7003
   76SLPC   H7S 6849   1.691   0.593   7.356 -0.5541 -2.0595 -1.3880
   76SLPC   C28 6850   1.520   0.671   7.467 -0.5259  0.3240 -0.1545
   76SLPC   H8R 6851   1.415   0.704   7.453 -0.7115 -0.3461 -0.3384
   76SLPC   H8S 6852   1.527   0.577   7.526  1.4960  0.8030  0.4388
   76SLPC   C29 6853   1.597   0.783   7.534 -0.5071 -0.6014  0.1064
   76SLPC   H9R 6854   1.562   0.882   7.501  2.9403  0.6621 -0.1097
   76SLPC  C210 6855   1.705   0.781   7.614 -0.4423 -0.1480  0.0030
   76SLPC  H10R 6856   1.745   0.873   7.657  0.3254 -0.4834  0.0238
   76SLPC  C211 6857   1.773   0.650   7.647 -0.8924 -0.1246 -1.0669
   76SLPC  H11R 6858   1.876   0.653   7.603 -0.0661  2.5312  0.8160
   76SLPC  H11S 6859   1.723   0.563   7.599  0.5841 -0.6059 -1.8202
   76SLPC  C212 6860   1.780   0.629   7.800 -0.7441 -0.0353 -0.3320
   76SLPC  H12R 6861   1.684   0.620   7.852 -0.5714 -3.0617 -0.3545
   76SLPC  C213 6862   1.896   0.617   7.872 -0.0297  1.0508 -0.2438
   76SLPC  H13R 6863   1.886   0.580   7.975  1.2085  0.0032 -0.4697
   76SLPC  C214 6864   2.039   0.624   7.835 -0.5975 -0.9215  0.9523
   76SLPC  H14R 6865   2.050   0.706   7.761 -0.2230 -1.3192  0.5621
   76SLPC  H14S 6866   2.092   0.540   7.787  2.1946  1.5578 -0.6030
   76SLPC  C215 6867   2.142   0.690   7.938  0.4287  0.1359 -0.1704
   76SLPC  H15R 6868   2.104   0.789   7.973  0.2019 -0.4965  1.4510
   76SLPC  H15S 6869   2.234   0.701   7.875 -1.1703 -1.4291 -3.0055
   76SLPC  C216 6870   2.186   0.607   8.068 -0.1375 -0.9146  0.2783
   76SLPC  H16R 6871   2.292   0.628   8.094 -0.5111  2.2901 -0.3884
   76SLPC  H16S 6872   2.178   0.499   8.045 -1.1370 -0.5676 -1.1599
   76SLPC  C217 6873   2.095   0.630   8.183 -0.1707 -0.0107 -0.2703
   76SLPC  H17R 6874   1.992   0.594   8.161  0.2123 -2.5040  1.5216
   76SLPC  H17S 6875   2.093   0.740   8.200  0.7601  0.1467 -1.0818
   76SLPC  C218 6876   2.150   0.571   8.313  0.8269  0.8754 -0.5469
   76SLPC  H18R 6877   2.133   0.462   8.295  1.8216  0.9431 -2.0242
   76SLPC  H18S 6878   2.086   0.603   8.398  0.9840 -3.2006  1.3314
   76SLPC  H18T 6879   2.255   0.594   8.339  1.0631  0.0804 -0.7601
   76SLPC   C33 6880   0.768   0.246   6.727  0.1991  0.4267 -0.3841
   76SLPC   H3X 6881   0.735   0.211   6.627  1.5564  0.4880 -0.8711
   76SLPC   H3Y 6882   0.680   0.266   6.791  2.4197 -1.2484  3.5619
   76SLPC   C34 6883   0.851   0.143   6.805  0.1219 -0.4034  0.0626
   76SLPC   H4X 6884   0.945   0.132   6.747 -0.4891  0.4718 -1.1362
   76SLPC   H4Y 6885   0.800   0.044   6.810 -0.4993 -0.0841  0.2164
   76SLPC   C35 6886   0.879   0.189   6.952  0.0155 -0.1062  0.2565
   76SLPC   H5X 6887   0.783   0.223   6.996  0.6000  3.1080 -0.7444
   76SLPC   H5Y 6888   0.963   0.260   6.943  1.1199 -1.6116 -2.6235
   76SLPC   C36 6889   0.917   0.069   7.050  0.4288  0.2934  0.0073
   76SLPC   H6X 6890   1.006   0.019   7.009  0.3120 -0.8902  1.1086
   76SLPC   H6Y 6891   0.835  -0.006   7.043  0.1351  0.2472  2.5942
   76SLPC   C37 6892   0.934   0.109   7.200 -0.8275  0.1855 -0.6131
   76SLPC   H7X 6893   0.839   0.147   7.243 -0.0437 -1.1075  2.5318
   76SLPC   H7Y 6894   1.017   0.183   7.204  1.2152 -2.0183  1.5725
   76SLPC   C38 6895   0.976  -0.003   7.294  0.3127  0.3787  0.3586
   76SLPC   H8X 6896   1.067  -0.053   7.253 -0.8520 -1.7770  0.2317
   76SLPC   H8Y 6897   0.894  -0.078   7.291  2.5288 -2.2633  1.5673
   76SLPC   C39 6898   0.988   0.033   7.445 -0.7756  0.3928  0.4568
   76SLPC   H9X 6899   1.059   0.118   7.447  0.4088 -0.4108 -2.4451
   76SLPC   H9Y 6900   1.025  -0.056   7.500  0.6030  0.2989 -0.5706
   76SLPC  C310 6901   0.861   0.083   7.508  0.1969  0.7756  0.6150
   76SLPC  H10X 6902   0.778   0.016   7.476 -0.0283  0.6396  1.4564
   76SLPC  H10Y 6903   0.839   0.189   7.484 -1.0380  0.2339 -0.8624
   76SLPC  C311 6904   0.862   0.079   7.660  0.6803 -0.1963 -0.1932
   76SLPC  H11X 6905   0.899  -0.021   7.690  0.5329  0.2847  1.7197
   76SLPC  H11Y 6906   0.760   0.090   7.704  0.5519 -0.1849 -0.4902
   76SLPC  C312 6907   0.946   0.184   7.725  0.8053  0.2207 -0.2429
   76SLPC  H12X 6908   0.886   0.276   7.743  1.3931 -0.0919  4.5643
   76SLPC  H12Y 6909   1.027   0.212   7.653  1.0398  0.0902 -0.0310
   76SLPC  C313 6910   1.012   0.140   7.853  1.1503  0.0088  0.3733
   76SLPC  H13X 6911   0.940   0.096   7.925  2.2024 -0.2155  1.3188
   76SLPC  H13Y 6912   1.059   0.226   7.906 -0.6180  0.4213  1.3722
   76SLPC  C314 6913   1.126   0.041   7.838  0.7032  0.1129 -0.4178
   76SLPC  H14X 6914   1.181   0.075   7.747  1.8400 -0.0875  0.1778
   76SLPC  H14Y 6915   1.088  -0.063   7.829 -0.7950  0.6945 -1.0841
   76SLPC  C315 6916   1.225   0.050   7.957 -0.3977 -0.2394  0.7381
   76SLPC  H15X 6917   1.263   0.153   7.973 -0.8950  0.2665 -1.0819
   76SLPC  H15Y 6918   1.318   0.000   7.923  0.0610 -0.0053  1.6160
   76SLPC  C316 6919   1.168  -0.003   8.081 -0.8136 -0.3045 -1.0547
   76SLPC  H16X 6920   1.115  -0.101   8.079  2.3985 -2.2671  0.3421
   76SLPC  H16Y 6921   1.090   0.072   8.105  0.0696  0.2257  0.3197
   76SLPC  C317 6922   1.276  -0.011   8.191  0.0459  0.5267  0.2492
   76SLPC  H17X 6923   1.331   0.085   8.201 -0.9082  1.0244  0.8050
   76SLPC  H17Y 6924   1.341  -0.100   8.177 -0.0755  0.3521  0.7874
   76SLPC  C318 6925   1.218  -0.029   8.332 -0.1326 -1.0741  0.0143
   76SLPC  H18X 6926   1.147   0.051   8.361  1.0573 -0.9861  2.9733
   76SLPC  H18Y 6927   1.306  -0.024   8.400 -0.1809  0.1948  0.0007
   76SLPC  H18Z 6928   1.161  -0.125   8.341  0.2895 -1.2163  1.3071
   77SLPC     N 6929   5.154   5.522   6.171  0.3569 -0.3179 -0.8098
   77SLPC   C13 6930   5.007   5.497   6.166 -0.4271 -0.2809 -0.3078
   77SLPC  H13A 6931   4.977   5.476   6.064 -1.5000  0.8485 -0.2653
   77SLPC  H13B 6932   4.971   5.413   6.223 -1.1656  0.7319  0.7646
   77SLPC  H13C 6933   4.954   5.585   6.201 -0.9160 -0.6795 -0.0409
   77SLPC   C14 6934   5.186   5.647   6.093 -0.6989  0.1046  0.5046
   77SLPC  H14A 6935   5.291   5.664   6.071 -1.0157  1.1881 -0.2751
   77SLPC  H14B 6936   5.141   5.637   5.995 -1.2764  0.7706  0.6934
   77SLPC  H14C 6937   5.149   5.734   6.145  3.2414  0.7874  2.5421
   77SLPC   C15 6938   5.235   5.413   6.113 -0.3863 -0.3032 -0.3841
   77SLPC  H15A 6939   5.337   5.445   6.127 -0.8489  1.8062 -1.4031
   77SLPC  H15B 6940   5.215   5.318   6.159 -2.9282 -0.7347 -2.1796
   77SLPC  H15C 6941   5.213   5.415   6.008  1.3845  2.3186 -0.7976
   77SLPC   C12 6942   5.193   5.548   6.316 -0.0258 -0.5773 -0.4340
   77SLPC  H12A 6943   5.194   5.455   6.370  2.1103 -0.5366 -0.3243
   77SLPC  H12B 6944   5.122   5.615   6.364  0.1915 -1.4452  1.1534
   77SLPC   C11 6945   5.331   5.610   6.333  0.0473 -0.4776 -0.6604
   77SLPC  H11A 6946   5.327   5.641   6.440 -1.3955 -4.8744  0.8047
   77SLPC  H11B 6947   5.355   5.695   6.265 -0.2211  0.6272  0.5891
   77SLPC     P 6948   5.458   5.392   6.401  0.1176  0.4342  0.1559
   77SLPC   O13 6949   5.419   5.279   6.309 -0.4394 -0.0663 -0.1594
   77SLPC   O14 6950   5.591   5.375   6.460 -0.5764 -0.3219  0.2677
   77SLPC   O12 6951   5.440   5.524   6.319  0.4558 -0.0111  0.3726
   77SLPC   O11 6952   5.347   5.405   6.519  0.1660 -0.1121 -0.4679
   77SLPC    C1 6953   5.390   5.469   6.645  0.4554  0.0608  0.4286
   77SLPC    HA 6954   5.481   5.530   6.628 -1.6083  3.6561  1.2657
   77SLPC    HB 6955   5.301   5.527   6.678  0.1639 -0.6947  1.0185
   77SLPC    C2 6956   5.414   5.370   6.756  0.9985  0.3400  0.0769
   77SLPC    HS 6957   5.500   5.303   6.735  1.3411  0.7128  0.2919
   77SLPC   O21 6958   5.296   5.295   6.774 -0.2371  0.1847  0.0353
   77SLPC   C21 6959   5.316   5.173   6.835 -0.3644 -0.7426 -0.1801
   77SLPC   O22 6960   5.419   5.127   6.863  0.2054 -0.2341  0.3082
   77SLPC   C22 6961   5.188   5.111   6.875 -0.1940  0.2732  0.0525
   77SLPC   H2R 6962   5.099   5.174   6.896  0.4611  0.1167  4.1495
   77SLPC   H2S 6963   5.160   5.034   6.799  1.9557 -1.2675  0.7247
   77SLPC    C3 6964   5.452   5.451   6.882  0.4369  0.1346 -0.5486
   77SLPC    HX 6965   5.366   5.519   6.898  0.8962  1.2361 -2.4680
   77SLPC    HY 6966   5.531   5.527   6.868  0.7525 -0.0836  0.0584
   77SLPC   O31 6967   5.472   5.376   7.002 -0.3846  0.5425  0.0610
   77SLPC   C31 6968   5.589   5.322   7.029 -0.3124  0.0849 -0.0231
   77SLPC   O32 6969   5.687   5.329   6.954 -0.2695 -0.3993  0.4774
   77SLPC   C32 6970   5.580   5.239   7.163  0.4311  0.5900  0.1849
   77SLPC   H2X 6971   5.584   5.133   7.129 -0.2127  0.9810 -1.1754
   77SLPC   H2Y 6972   5.479   5.260   7.204  0.0967  1.2234 -0.9427
   77SLPC   C23 6973   5.202   5.017   7.001  0.0651 -0.4790 -0.4104
   77SLPC   H3R 6974   5.289   4.948   6.992 -0.4635 -1.0638 -1.0667
   77SLPC   H3S 6975   5.108   4.959   7.010 -0.2986 -0.4283 -3.2561
   77SLPC   C24 6976   5.212   5.108   7.134 -0.6165 -0.3074  0.1982
   77SLPC   H4R 6977   5.131   5.184   7.141  2.2045  2.8716  1.0782
   77SLPC   H4S 6978   5.298   5.176   7.116 -1.9745  1.5091  0.2871
   77SLPC   C25 6979   5.231   5.020   7.263 -0.1306  0.7683  1.1517
   77SLPC   H5R 6980   5.312   4.945   7.246 -0.7785 -0.2920  2.5418
   77SLPC   H5S 6981   5.137   4.962   7.265 -0.9092  1.6894 -2.0553
   77SLPC   C26 6982   5.237   5.094   7.388  0.1554 -0.2565 -0.0834
   77SLPC   H6R 6983   5.139   5.142   7.410 -0.1864 -0.3214 -1.4205
   77SLPC   H6S 6984   5.313   5.175   7.380  0.9859 -1.0632 -0.4890
   77SLPC   C27 6985   5.277   5.000   7.501  0.0826 -0.0758  0.8107
   77SLPC   H7R 6986   5.344   4.925   7.452 -1.0520 -0.6067  0.0272
   77SLPC   H7S 6987   5.184   4.951   7.536 -0.2479 -0.5147 -0.5930
   77SLPC   C28 6988   5.354   5.068   7.620  0.2322 -0.1692 -0.1588
   77SLPC   H8R 6989   5.274   5.131   7.664 -0.4488 -1.1937  0.0917
   77SLPC   H8S 6990   5.429   5.137   7.573 -0.4668  1.2782  0.7833
   77SLPC   C29 6991   5.412   4.979   7.729 -0.3673 -0.3292  0.4174
   77SLPC   H9R 6992   5.476   4.901   7.686  0.2251  1.7467 -2.7353
   77SLPC  C210 6993   5.401   4.993   7.864 -0.1302 -0.4231  0.2219
   77SLPC  H10R 6994   5.451   4.917   7.927 -0.5163  1.2437  2.6734
   77SLPC  C211 6995   5.344   5.108   7.947 -1.0617  0.0027  0.6166
   77SLPC  H11R 6996   5.289   5.177   7.880  1.3903  0.6452 -0.8569
   77SLPC  H11S 6997   5.434   5.164   7.981 -0.5699 -0.1402 -0.4265
   77SLPC  C212 6998   5.238   5.071   8.048  0.1721  0.7268 -0.6072
   77SLPC  H12R 6999   5.136   5.051   8.012  0.3869  1.6125 -1.7528
   77SLPC  C213 7000   5.269   5.035   8.172 -0.1649  0.1587 -0.1468
   77SLPC  H13R 7001   5.186   5.004   8.238 -1.9407  2.6336 -1.0585
   77SLPC  C214 7002   5.405   5.043   8.244 -0.9638 -0.4091 -0.3762
   77SLPC  H14R 7003   5.455   5.140   8.218 -2.5194  0.9212  1.3471
   77SLPC  H14S 7004   5.483   4.973   8.206  0.0131  1.1559 -1.3940
   77SLPC  C215 7005   5.405   5.029   8.401  0.2544 -0.3513 -0.6282
   77SLPC  H15R 7006   5.364   4.928   8.421  0.4964 -0.6384 -1.5525
   77SLPC  H15S 7007   5.320   5.088   8.442  0.8508 -0.7306  1.2271
   77SLPC  C216 7008   5.546   5.038   8.470  0.9793 -0.2204 -0.9619
   77SLPC  H16R 7009   5.582   5.142   8.454  1.0116 -0.2191 -0.8798
   77SLPC  H16S 7010   5.626   4.972   8.430  0.3492 -0.7928 -1.2995
   77SLPC  C217 7011   5.522   5.021   8.622  0.0105  0.7135 -0.2785
   77SLPC  H17R 7012   5.500   4.913   8.636  0.9865  0.5115 -0.2164
   77SLPC  H17S 7013   5.434   5.080   8.656  0.5143  0.9955  0.5611
   77SLPC  C218 7014   5.641   5.050   8.709  0.2300 -0.1661 -0.3474
   77SLPC  H18R 7015   5.630   5.004   8.810  0.5429  1.2859  0.3714
   77SLPC  H18S 7016   5.663   5.159   8.710 -0.5378  0.0019  0.7659
   77SLPC  H18T 7017   5.726   4.996   8.663 -0.1281 -0.3274 -0.8346
   77SLPC   C33 7018   5.698   5.257   7.263  0.6059 -0.3682  0.0628
   77SLPC   H3X 7019   5.720   5.364   7.282 -3.3951  0.4936  0.8199
   77SLPC   H3Y 7020   5.789   5.201   7.232  0.7140 -1.2345  1.8267
   77SLPC   C34 7021   5.658   5.201   7.403  0.3096 -0.1034 -1.0098
   77SLPC   H4X 7022   5.644   5.091   7.395  0.3001 -0.3494  1.6567
   77SLPC   H4Y 7023   5.563   5.247   7.439 -0.6503 -0.9555 -2.3267
   77SLPC   C35 7024   5.762   5.227   7.518  0.3534 -0.4773  0.0927
   77SLPC   H5X 7025   5.777   5.335   7.540 -1.5656 -0.5015  1.8797
   77SLPC   H5Y 7026   5.858   5.177   7.494  1.3348  1.6691 -0.7189
   77SLPC   C36 7027   5.701   5.162   7.646  0.2273  0.0772 -0.0722
   77SLPC   H6X 7028   5.679   5.056   7.621 -0.2682  0.0834  0.3223
   77SLPC   H6Y 7029   5.607   5.206   7.686  0.4113 -0.9893  1.6418
   77SLPC   C37 7030   5.810   5.174   7.755  0.2497  0.2446 -0.1265
   77SLPC   H7X 7031   5.831   5.281   7.777  1.0512  0.6547 -2.6363
   77SLPC   H7Y 7032   5.910   5.137   7.724  0.2731 -0.5158  0.8029
   77SLPC   C38 7033   5.774   5.103   7.889 -0.6817 -0.3614 -0.9343
   77SLPC   H8X 7034   5.740   4.999   7.874 -0.0663 -0.6565 -0.3520
   77SLPC   H8Y 7035   5.696   5.165   7.937  1.2502  0.3631  1.4902
   77SLPC   C39 7036   5.899   5.108   7.982 -0.2817  0.2339  0.3149
   77SLPC   H9X 7037   5.940   5.210   7.969  0.5382 -0.3045 -1.7515
   77SLPC   H9Y 7038   5.976   5.033   7.952  0.4344  0.9902  0.2265
   77SLPC  C310 7039   5.867   5.074   8.124 -0.2576  0.3691  0.0177
   77SLPC  H10X 7040   5.827   4.973   8.148 -0.9796  1.1537  2.4524
   77SLPC  H10Y 7041   5.780   5.137   8.154  0.3499  1.0802  0.3034
   77SLPC  C311 7042   5.986   5.104   8.219 -0.0573  0.4689 -0.5064
   77SLPC  H11X 7043   6.015   5.210   8.204 -1.5511  0.8393 -0.8704
   77SLPC  H11Y 7044   6.075   5.044   8.189 -0.0116 -0.2607  1.0076
   77SLPC  C312 7045   5.958   5.105   8.373  0.9987  0.2037  0.0389
   77SLPC  H12X 7046   5.968   5.001   8.409  0.8109  0.9615  2.4415
   77SLPC  H12Y 7047   5.855   5.142   8.392  1.4468  1.7325 -0.3763
   77SLPC  C313 7048   6.047   5.182   8.469 -0.4166 -0.5546 -0.3888
   77SLPC  H13X 7049   6.047   5.292   8.454  1.3642  0.0899  3.1674
   77SLPC  H13Y 7050   6.154   5.151   8.467  0.4336  1.9056  1.3624
   77SLPC  C314 7051   6.010   5.160   8.612  0.4813  0.2593  0.3736
   77SLPC  H14X 7052   5.902   5.184   8.625 -0.5119 -1.9092 -2.7064
   77SLPC  H14Y 7053   6.072   5.226   8.677 -0.9523  0.3847  1.6711
   77SLPC  C315 7054   6.023   5.015   8.666  0.1862  0.8942  0.3743
   77SLPC  H15X 7055   6.117   4.968   8.629 -0.9153  0.4307 -2.0367
   77SLPC  H15Y 7056   5.935   4.961   8.627  1.5292 -0.1164 -1.4333
   77SLPC  C316 7057   6.031   4.989   8.820  0.3802  0.0496 -0.0875
   77SLPC  H16X 7058   6.006   4.883   8.839 -0.0050  0.1767  0.1227
   77SLPC  H16Y 7059   5.948   5.040   8.873  0.8875 -0.6354  1.4388
   77SLPC  C317 7060   6.163   5.037   8.893 -0.3276 -0.1692  0.2749
   77SLPC  H17X 7061   6.166   5.148   8.881 -0.9664 -0.0334  1.2513
   77SLPC  H17Y 7062   6.257   4.993   8.853 -1.2832 -3.1323  1.0335
   77SLPC  C318 7063   6.163   4.997   9.038  0.6979  0.3354  0.0821
   77SLPC  H18X 7064   6.242   5.052   9.093  0.1118 -0.0313  1.3149
   77SLPC  H18Y 7065   6.176   4.887   9.041  0.9606  0.2796 -1.8432
   77SLPC  H18Z 7066   6.065   5.018   9.086 -1.0436 -1.6844 -2.3024
   78SLPC     N 7067   0.199   6.594   5.986 -0.5956 -0.3209 -0.3691
   78SLPC   C13 7068   0.067   6.631   5.926 -0.4235 -0.2867  0.2362
   78SLPC  H13A 7069   0.072   6.685   5.833 -1.2950 -0.7603 -0.1002
   78SLPC  H13B 7070  -0.003   6.548   5.923 -1.0555  0.2817 -1.5386
   78SLPC  H13C 7071   0.029   6.707   5.993  1.6337  0.1343  1.0005
   78SLPC   C14 7072   0.295   6.713   5.971 -0.6327 -0.1444  0.5325
   78SLPC  H14A 7073   0.262   6.812   5.999 -1.8189 -0.2656 -0.3500
   78SLPC  H14B 7074   0.387   6.688   6.022  0.4952  0.6950 -1.0111
   78SLPC  H14C 7075   0.328   6.728   5.870 -0.6678  0.8055  0.6547
   78SLPC   C15 7076   0.251   6.476   5.909 -0.6322 -0.3927  0.2837
   78SLPC  H15A 7077   0.201   6.383   5.932 -0.6302 -0.8399 -1.4287
   78SLPC  H15B 7078   0.237   6.486   5.803  0.9219 -2.9830 -0.2346
   78SLPC  H15C 7079   0.353   6.462   5.940 -0.2053 -0.3284 -1.0402
   78SLPC   C12 7080   0.186   6.566   6.130  0.2479  0.3586  0.2477
   78SLPC  H12A 7081   0.138   6.650   6.177  1.9469  0.0106  2.8471
   78SLPC  H12B 7082   0.286   6.571   6.172 -0.5614 -0.7527  2.4799
   78SLPC   C11 7083   0.103   6.449   6.188 -0.4397 -0.2825 -0.1083
   78SLPC  H11A 7084   0.135   6.438   6.293  0.9446  0.0204 -0.4757
   78SLPC  H11B 7085   0.137   6.356   6.137 -0.4715 -1.1061  1.3366
   78SLPC     P 7086  -0.123   6.564   6.261  0.2601  0.5190  0.3272
   78SLPC   O13 7087  -0.082   6.706   6.234  0.5672 -0.1577 -0.5930
   78SLPC   O14 7088  -0.267   6.534   6.247 -0.2493  0.1910  0.3653
   78SLPC   O12 7089  -0.036   6.463   6.173 -0.0756  0.1904 -0.2313
   78SLPC   O11 7090  -0.080   6.518   6.407 -0.3434  0.0975 -0.0831
   78SLPC    C1 7091  -0.008   6.604   6.505  0.3557 -0.1043  0.7716
   78SLPC    HA 7092   0.066   6.547   6.564 -0.1181 -2.9975 -1.2342
   78SLPC    HB 7093   0.056   6.676   6.450  1.2038 -2.2948 -1.2565
   78SLPC    C2 7094  -0.101   6.687   6.602 -0.9913 -0.0740  0.6264
   78SLPC    HS 7095  -0.041   6.740   6.679 -0.4961  1.4276 -0.7390
   78SLPC   O21 7096  -0.192   6.603   6.662 -0.3639 -0.2101 -0.5524
   78SLPC   C21 7097  -0.148   6.493   6.730 -0.6619  0.1362  0.2830
   78SLPC   O22 7098  -0.039   6.489   6.787 -0.4024 -0.6047 -0.0207
   78SLPC   C22 7099  -0.247   6.379   6.732  0.0306 -1.0351 -0.2153
   78SLPC   H2R 7100  -0.351   6.410   6.711  0.4576 -0.2159 -1.2056
   78SLPC   H2S 7101  -0.218   6.306   6.653  0.8403 -0.8168 -0.1310
   78SLPC    C3 7102  -0.183   6.793   6.523 -0.0622  0.0524  0.3187
   78SLPC    HX 7103  -0.266   6.738   6.474 -0.5361  0.7873  0.2898
   78SLPC    HY 7104  -0.122   6.850   6.450  1.1245 -1.8583 -0.2487
   78SLPC   O31 7105  -0.239   6.891   6.617  0.8608  0.5541  0.8827
   78SLPC   C31 7106  -0.341   6.865   6.693  0.0561 -1.2850  0.7822
   78SLPC   O32 7107  -0.417   6.772   6.682 -0.0194  0.0366  0.1596
   78SLPC   C32 7108  -0.353   6.978   6.805  0.0404  0.5135  0.2260
   78SLPC   H2X 7109  -0.438   7.047   6.786 -1.0692 -0.9796 -0.3769
   78SLPC   H2Y 7110  -0.255   7.030   6.806  1.4634 -2.0133 -0.0295
   78SLPC   C23 7111  -0.242   6.311   6.874 -0.1881 -0.3837 -0.0424
   78SLPC   H3R 7112  -0.138   6.279   6.892  0.1044  1.1245  1.1383
   78SLPC   H3S 7113  -0.307   6.221   6.869 -2.3771  1.0465  0.7431
   78SLPC   C24 7114  -0.299   6.407   6.982 -0.2683 -0.6990 -0.2759
   78SLPC   H4R 7115  -0.408   6.415   6.966 -0.0683  1.9026 -0.7494
   78SLPC   H4S 7116  -0.257   6.509   6.970  2.1926 -1.8015 -2.0927
   78SLPC   C25 7117  -0.269   6.362   7.127  0.2174  0.1641  0.0237
   78SLPC   H5R 7118  -0.159   6.351   7.137  0.0562 -0.0358  1.9813
   78SLPC   H5S 7119  -0.317   6.265   7.151 -0.4958  0.4083 -0.3907
   78SLPC   C26 7120  -0.303   6.467   7.230  0.2405  0.4434 -0.3247
   78SLPC   H6R 7121  -0.410   6.494   7.218  0.2475  0.4526 -0.3661
   78SLPC   H6S 7122  -0.236   6.554   7.210  0.4087  0.5936  0.8296
   78SLPC   C27 7123  -0.282   6.421   7.376 -1.0695 -0.4886  0.4281
   78SLPC   H7R 7124  -0.193   6.356   7.385 -0.2115  0.4464 -0.9052
   78SLPC   H7S 7125  -0.363   6.356   7.414 -0.8727 -0.3338  1.1301
   78SLPC   C28 7126  -0.270   6.549   7.460  0.5333  0.3817  0.0209
   78SLPC   H8R 7127  -0.364   6.606   7.445 -0.7177 -1.8660 -1.3002
   78SLPC   H8S 7128  -0.189   6.621   7.438  0.5685 -0.1727 -1.8569
   78SLPC   C29 7129  -0.259   6.497   7.606  0.5443 -0.1446  0.4585
   78SLPC   H9R 7130  -0.158   6.456   7.621 -0.4111 -3.0277 -0.3200
   78SLPC  C210 7131  -0.349   6.507   7.707 -0.1251 -0.4404 -0.0094
   78SLPC  H10R 7132  -0.318   6.463   7.804 -0.1799  1.6786  1.0356
   78SLPC  C211 7133  -0.482   6.577   7.700  0.4199  0.5111  0.2981
   78SLPC  H11R 7134  -0.533   6.564   7.602  0.0276  0.8348  0.4527
   78SLPC  H11S 7135  -0.479   6.688   7.708 -1.2910  0.5530  0.7416
   78SLPC  C212 7136  -0.577   6.516   7.797 -0.1706  0.2710 -0.1470
   78SLPC  H12R 7137  -0.649   6.446   7.751  1.3790 -1.1436 -0.5493
   78SLPC  C213 7138  -0.594   6.548   7.924  0.1074  0.0361 -0.1573
   78SLPC  H13R 7139  -0.661   6.490   7.989 -1.4194  2.5045  0.5977
   78SLPC  C214 7140  -0.507   6.650   7.994 -0.3401 -0.4237  0.5816
   78SLPC  H14R 7141  -0.559   6.742   7.960  0.6487 -0.0133  0.1328
   78SLPC  H14S 7142  -0.401   6.657   7.961 -0.1066  1.9769  1.6432
   78SLPC  C215 7143  -0.508   6.646   8.146 -0.0527  0.0031 -0.4510
   78SLPC  H15R 7144  -0.442   6.726   8.185  1.8066 -1.0947 -1.2057
   78SLPC  H15S 7145  -0.468   6.550   8.186  1.5346  0.2101 -1.4367
   78SLPC  C216 7146  -0.648   6.667   8.198 -0.0292 -0.3192 -0.6370
   78SLPC  H16R 7147  -0.705   6.573   8.209 -0.5128  0.0145 -0.2194
   78SLPC  H16S 7148  -0.708   6.736   8.135 -1.4119  0.9818  1.9180
   78SLPC  C217 7149  -0.646   6.742   8.338  0.3744  0.8464  0.1970
   78SLPC  H17R 7150  -0.610   6.846   8.327 -1.1542  1.3075 -0.8794
   78SLPC  H17S 7151  -0.579   6.693   8.412 -1.6876  1.2008  2.4301
   78SLPC  C218 7152  -0.792   6.755   8.402 -0.1738 -0.1103 -0.0333
   78SLPC  H18R 7153  -0.861   6.828   8.354 -0.6820 -0.5601  0.0036
   78SLPC  H18S 7154  -0.775   6.794   8.505  0.5927 -1.3123  0.3126
   78SLPC  H18T 7155  -0.843   6.657   8.402  0.6857 -0.6841 -3.6018
   78SLPC   C33 7156  -0.365   6.919   6.946  0.1959 -1.1709 -0.2329
   78SLPC   H3X 7157  -0.293   6.840   6.978  2.9795  1.4661  0.5550
   78SLPC   H3Y 7158  -0.466   6.876   6.960 -0.3118  0.4048  1.3839
   78SLPC   C34 7159  -0.330   7.030   7.050  0.2877  0.6961  0.2639
   78SLPC   H4X 7160  -0.341   7.126   6.995  2.4717 -0.1789 -1.8817
   78SLPC   H4Y 7161  -0.222   7.020   7.074  0.1378 -0.1464  0.6164
   78SLPC   C35 7162  -0.427   7.016   7.175  0.1454 -0.7004  0.3233
   78SLPC   H5X 7163  -0.525   6.997   7.127  1.0786  0.2526 -2.0885
   78SLPC   H5Y 7164  -0.450   7.108   7.232 -1.6585 -0.8494 -0.1045
   78SLPC   C36 7165  -0.396   6.893   7.257  0.2243  0.1477 -0.9199
   78SLPC   H6X 7166  -0.289   6.896   7.286 -0.0011  0.6546 -0.1186
   78SLPC   H6Y 7167  -0.400   6.800   7.196 -0.3994 -1.9894  2.1180
   78SLPC   C37 7168  -0.502   6.878   7.367 -0.1891 -0.1611  0.0259
   78SLPC   H7X 7169  -0.526   6.773   7.392 -0.2424 -0.1688 -0.0602
   78SLPC   H7Y 7170  -0.596   6.927   7.336  0.2313  0.2450 -0.6289
   78SLPC   C38 7171  -0.465   6.958   7.497  0.1987 -0.3815 -0.5975
   78SLPC   H8X 7172  -0.397   7.036   7.456 -1.7469 -0.0084 -3.3941
   78SLPC   H8Y 7173  -0.398   6.896   7.560 -1.7636 -1.8643  0.1220
   78SLPC   C39 7174  -0.583   7.018   7.567 -0.3928 -1.0497  0.0833
   78SLPC   H9X 7175  -0.658   6.940   7.594  0.6244 -2.2546 -0.4950
   78SLPC   H9Y 7176  -0.644   7.083   7.500  0.4627  0.6364  0.8901
   78SLPC  C310 7177  -0.546   7.091   7.692 -0.3605 -0.2764 -0.5273
   78SLPC  H10X 7178  -0.639   7.129   7.739  0.5711  0.0219  1.1531
   78SLPC  H10Y 7179  -0.493   7.185   7.667  1.8244 -1.4206 -0.3786
   78SLPC  C311 7180  -0.482   7.013   7.810  0.2697 -0.2296  0.1847
   78SLPC  H11X 7181  -0.383   6.987   7.767  0.4563 -1.6777  1.3871
   78SLPC  H11Y 7182  -0.547   6.923   7.822 -0.8523  0.5845  0.3965
   78SLPC  C312 7183  -0.468   7.085   7.943 -0.3616 -0.5227  0.0558
   78SLPC  H12X 7184  -0.569   7.122   7.972  1.2327  2.6184  2.1170
   78SLPC  H12Y 7185  -0.406   7.174   7.921 -1.4704  0.6174  1.3945
   78SLPC  C313 7186  -0.417   6.994   8.049  0.5283 -0.2488  0.2421
   78SLPC  H13X 7187  -0.316   6.965   8.014  0.4299  1.2571 -1.4431
   78SLPC  H13Y 7188  -0.485   6.907   8.056 -0.1603  0.2897  0.3495
   78SLPC  C314 7189  -0.407   7.054   8.190 -0.4535 -0.0079 -0.0705
   78SLPC  H14X 7190  -0.327   7.131   8.194  0.8029 -1.3082  1.0785
   78SLPC  H14Y 7191  -0.361   6.983   8.262 -1.2642  0.7484  1.2194
   78SLPC  C315 7192  -0.539   7.112   8.247  0.1471  0.0739 -0.4947
   78SLPC  H15X 7193  -0.616   7.032   8.254  2.1690 -1.8606  1.4034
   78SLPC  H15Y 7194  -0.571   7.188   8.173 -0.4769  0.1050 -0.2015
   78SLPC  C316 7195  -0.515   7.165   8.390  0.3255  0.0614  0.1372
   78SLPC  H16X 7196  -0.452   7.256   8.379 -0.4921  0.3916 -2.3489
   78SLPC  H16Y 7197  -0.456   7.099   8.458  0.2251  0.8410  0.9986
   78SLPC  C317 7198  -0.645   7.191   8.465  0.7886 -0.0940 -1.0843
   78SLPC  H17X 7199  -0.692   7.093   8.489 -2.9952  2.1966  2.1223
   78SLPC  H17Y 7200  -0.713   7.238   8.390 -1.0930 -0.7302  0.1331
   78SLPC  C318 7201  -0.636   7.276   8.589  0.0332 -0.4661  0.4298
   78SLPC  H18X 7202  -0.562   7.242   8.665 -0.4590  3.3185  2.8531
   78SLPC  H18Y 7203  -0.730   7.304   8.641  0.4781 -1.1167  1.6232
   78SLPC  H18Z 7204  -0.598   7.373   8.549 -0.4637 -0.4942 -0.1272
   79SLPC     N 7205   4.134   1.430   6.088 -0.1807 -0.2058  0.3860
   79SLPC   C13 7206   3.996   1.458   6.043  0.1736 -0.2296 -0.2603
   79SLPC  H13A 7207   3.989   1.560   6.007 -0.5398  0.0089  0.5397
   79SLPC  H13B 7208   3.956   1.392   5.968 -0.8497  0.1968 -0.1029
   79SLPC  H13C 7209   3.919   1.453   6.118 -0.9906 -0.4840 -1.4450
   79SLPC   C14 7210   4.236   1.477   5.994  0.0571  0.1206  0.1863
   79SLPC  H14A 7211   4.216   1.581   5.970 -2.7203 -0.4104 -0.1729
   79SLPC  H14B 7212   4.336   1.459   6.030  0.3171  0.1954 -0.4884
   79SLPC  H14C 7213   4.225   1.429   5.898  1.0062 -2.0644  1.0941
   79SLPC   C15 7214   4.152   1.283   6.105 -0.6638  0.1324  0.3042
   79SLPC  H15A 7215   4.138   1.234   6.010  1.3648  1.2263 -0.6298
   79SLPC  H15B 7216   4.252   1.255   6.138 -0.9828 -1.6284 -0.0856
   79SLPC  H15C 7217   4.082   1.245   6.178  0.1132 -0.4748  0.7527
   79SLPC   C12 7218   4.157   1.503   6.215  0.1750  0.9326 -0.7248
   79SLPC  H12A 7219   4.127   1.606   6.203  0.7393  1.4693  1.8204
   79SLPC  H12B 7220   4.264   1.504   6.230 -0.2037  1.2895  2.7909
   79SLPC   C11 7221   4.093   1.437   6.350 -0.1560 -0.7379 -0.0695
   79SLPC  H11A 7222   4.107   1.506   6.436  0.4451 -1.8558  0.7574
   79SLPC  H11B 7223   4.160   1.352   6.373  0.5287 -0.7818 -2.1020
   79SLPC     P 7224   3.868   1.315   6.421 -0.0881 -0.0355 -0.2624
   79SLPC   O13 7225   3.764   1.385   6.499 -0.2651 -0.2677  0.2715
   79SLPC   O14 7226   3.821   1.210   6.327  0.0930 -0.2891  0.0258
   79SLPC   O12 7227   3.949   1.415   6.343 -0.8906 -0.3115 -0.0762
   79SLPC   O11 7228   3.962   1.251   6.526  0.1072 -0.5974  0.0955
   79SLPC    C1 7229   3.977   1.313   6.657 -0.0413 -0.0838 -0.7710
   79SLPC    HA 7230   3.990   1.423   6.658 -2.2910  0.2274  0.3372
   79SLPC    HB 7231   3.886   1.294   6.717  0.0488  1.8084  0.0183
   79SLPC    C2 7232   4.104   1.257   6.739  0.3808  0.4672  0.7087
   79SLPC    HS 7233   4.194   1.277   6.677  0.6097  1.5102  1.3524
   79SLPC   O21 7234   4.090   1.111   6.745 -0.4534 -0.5291 -0.1138
   79SLPC   C21 7235   4.209   1.057   6.779  0.4364  0.1863  0.2147
   79SLPC   O22 7236   4.318   1.115   6.790  0.4796 -0.6888  0.4263
   79SLPC   C22 7237   4.196   0.904   6.788  0.2200 -0.0404 -0.6620
   79SLPC   H2R 7238   4.090   0.871   6.787  0.3938 -1.1044  2.6947
   79SLPC   H2S 7239   4.244   0.852   6.703 -1.7553 -0.2545 -1.7154
   79SLPC    C3 7240   4.115   1.327   6.877  0.2946 -0.4024 -0.8108
   79SLPC    HX 7241   4.123   1.438   6.868  0.2577 -0.0768  2.2233
   79SLPC    HY 7242   4.204   1.281   6.925 -1.2625 -1.9594  0.7321
   79SLPC   O31 7243   3.997   1.295   6.955  0.4852 -0.7327  0.3195
   79SLPC   C31 7244   4.012   1.251   7.083 -0.2511  0.0515  0.1283
   79SLPC   O32 7245   4.119   1.228   7.139 -0.1559  0.8408  0.3801
   79SLPC   C32 7246   3.872   1.246   7.138  0.1249 -0.6599  0.1538
   79SLPC   H2X 7247   3.807   1.174   7.084  0.3523  0.7858 -2.1893
   79SLPC   H2Y 7248   3.825   1.345   7.118 -0.4471 -1.1553 -1.0375
   79SLPC   C23 7249   4.252   0.839   6.918  0.1618 -0.0863 -0.0889
   79SLPC   H3R 7250   4.344   0.894   6.948 -0.5591  1.5136 -0.7150
   79SLPC   H3S 7251   4.271   0.730   6.907 -0.9526 -0.0831 -3.0456
   79SLPC   C24 7252   4.152   0.859   7.037  0.2482  0.0359  1.1751
   79SLPC   H4R 7253   4.066   0.792   7.022  1.3500 -0.8402 -2.0516
   79SLPC   H4S 7254   4.114   0.962   7.018  1.4204  0.2515 -0.2400
   79SLPC   C25 7255   4.209   0.840   7.177  0.8437  0.9128  0.1392
   79SLPC   H5R 7256   4.289   0.917   7.179 -0.0722  1.9417 -0.9985
   79SLPC   H5S 7257   4.237   0.738   7.211 -0.7452  1.1488  2.4331
   79SLPC   C26 7258   4.096   0.880   7.274 -0.1790  0.3212  1.6029
   79SLPC   H6R 7259   4.013   0.811   7.246  0.1540  0.5131  0.0110
   79SLPC   H6S 7260   4.079   0.988   7.256  0.6823  0.1421 -0.6774
   79SLPC   C27 7261   4.147   0.863   7.419  0.5725 -0.1999  0.0759
   79SLPC   H7R 7262   4.241   0.918   7.439  1.1110 -1.0871  0.0024
   79SLPC   H7S 7263   4.180   0.758   7.429 -1.7456 -1.2132 -1.8182
   79SLPC   C28 7264   4.045   0.897   7.525  0.0623  0.0436 -0.1556
   79SLPC   H8R 7265   3.946   0.864   7.487  0.9645 -2.0358 -0.8145
   79SLPC   H8S 7266   4.031   1.006   7.541 -1.2038 -0.2317  0.7653
   79SLPC   C29 7267   4.074   0.824   7.659 -0.5201 -0.2151 -0.2537
   79SLPC   H9R 7268   4.061   0.715   7.651 -0.8321 -0.1568 -0.5572
   79SLPC  C210 7269   4.125   0.875   7.769 -0.1040  0.3224 -0.0623
   79SLPC  H10R 7270   4.164   0.798   7.837  0.1221 -1.0654 -1.6889
   79SLPC  C211 7271   4.153   1.015   7.809  0.4600  0.1797  0.4940
   79SLPC  H11R 7272   4.074   1.053   7.877  0.8450  2.7451 -0.3985
   79SLPC  H11S 7273   4.166   1.081   7.721  0.8207 -0.1769  0.2728
   79SLPC  C212 7274   4.288   1.019   7.880 -0.3194 -0.6948 -0.2901
   79SLPC  H12R 7275   4.378   0.991   7.823  1.6276  0.4328  2.0076
   79SLPC  C213 7276   4.317   1.051   8.006 -0.2589 -0.2893  0.2416
   79SLPC  H13R 7277   4.423   1.054   8.037 -0.6702  0.9032  1.5882
   79SLPC  C214 7278   4.222   1.106   8.106 -0.2680  0.3679  0.3997
   79SLPC  H14R 7279   4.177   1.201   8.070  0.6898  1.9852  3.2134
   79SLPC  H14S 7280   4.280   1.133   8.196  1.4471  2.3377 -1.1988
   79SLPC  C215 7281   4.098   1.008   8.139  0.2854 -0.0102  0.5669
   79SLPC  H15R 7282   4.021   1.000   8.060  0.1627 -0.6092  0.7477
   79SLPC  H15S 7283   4.056   1.069   8.222 -1.5751 -0.2779 -0.1439
   79SLPC  C216 7284   4.125   0.864   8.178 -0.1772 -0.1516 -0.5345
   79SLPC  H16R 7285   4.222   0.860   8.234  0.0636 -1.6771 -0.9972
   79SLPC  H16S 7286   4.141   0.803   8.087 -0.3235 -1.9740  0.6047
   79SLPC  C217 7287   3.997   0.820   8.254 -0.0022  0.4552  0.1470
   79SLPC  H17R 7288   4.000   0.851   8.361 -2.8270 -0.1658  0.4708
   79SLPC  H17S 7289   4.000   0.710   8.263 -0.5435  0.5429  1.7671
   79SLPC  C218 7290   3.858   0.852   8.198  0.4332 -0.2053 -0.1001
   79SLPC  H18R 7291   3.835   0.960   8.211  1.3194  0.0616 -0.7343
   79SLPC  H18S 7292   3.780   0.796   8.255 -0.6130  2.1147  0.8766
   79SLPC  H18T 7293   3.848   0.832   8.090 -0.3017 -0.2702 -0.0262
   79SLPC   C33 7294   3.863   1.208   7.287  0.4163  0.3165  0.1892
   79SLPC   H3X 7295   3.924   1.277   7.350  0.8093  0.2484 -0.1114
   79SLPC   H3Y 7296   3.892   1.101   7.299  2.3090  0.5458 -1.6499
   79SLPC   C34 7297   3.720   1.235   7.330  0.0614  0.0017  0.0878
   79SLPC   H4X 7298   3.644   1.188   7.264 -1.9216  0.1186  2.1493
   79SLPC   H4Y 7299   3.707   1.346   7.327  0.7150  0.0600 -0.6139
   79SLPC   C35 7300   3.686   1.184   7.475 -0.0170 -0.4862 -0.0531
   79SLPC   H5X 7301   3.693   1.074   7.486  0.0479 -0.4858 -0.0948
   79SLPC   H5Y 7302   3.582   1.210   7.507  0.0967  0.3278 -0.3194
   79SLPC   C36 7303   3.771   1.252   7.582 -0.3879  0.1002 -0.3241
   79SLPC   H6X 7304   3.752   1.361   7.574 -3.1436 -0.2977 -0.2581
   79SLPC   H6Y 7305   3.876   1.231   7.552 -1.0759 -1.4579 -1.8010
   79SLPC   C37 7306   3.753   1.202   7.726  0.4285 -0.1428 -0.0594
   79SLPC   H7X 7307   3.771   1.093   7.723 -2.8169 -0.7367 -0.9483
   79SLPC   H7Y 7308   3.646   1.210   7.755  0.5425 -0.2802  0.4157
   79SLPC   C38 7309   3.851   1.263   7.825 -0.0809 -0.6898  0.4089
   79SLPC   H8X 7310   3.832   1.373   7.817 -0.0772 -0.5800  1.7390
   79SLPC   H8Y 7311   3.958   1.240   7.810  0.4271  0.8460  1.3465
   79SLPC   C39 7312   3.823   1.226   7.975  0.0316 -0.4058 -0.1826
   79SLPC   H9X 7313   3.846   1.117   7.980 -2.5010 -1.1969 -2.7958
   79SLPC   H9Y 7314   3.714   1.241   7.988  0.4615  3.0395  0.1809
   79SLPC  C310 7315   3.899   1.329   8.070  0.7491  0.3970  0.5950
   79SLPC  H10X 7316   3.863   1.430   8.042  1.1518 -0.2326 -2.5280
   79SLPC  H10Y 7317   4.006   1.319   8.046  1.6678  4.8310  1.9041
   79SLPC  C311 7318   3.866   1.314   8.218  0.3540  0.0019 -0.1271
   79SLPC  H11X 7319   3.960   1.345   8.269  0.1542  0.2032  0.1257
   79SLPC  H11Y 7320   3.842   1.210   8.251 -4.0262  0.3097 -1.7122
   79SLPC  C312 7321   3.738   1.398   8.254 -1.0532 -0.0174 -0.3307
   79SLPC  H12X 7322   3.663   1.353   8.186 -0.2767  0.7802 -1.7563
   79SLPC  H12Y 7323   3.742   1.507   8.235 -3.6286  0.3827  0.9429
   79SLPC  C313 7324   3.685   1.381   8.396 -0.0392  0.5433  0.9433
   79SLPC  H13X 7325   3.645   1.278   8.404 -0.7104  0.7875  0.8055
   79SLPC  H13Y 7326   3.602   1.452   8.417 -0.1412  0.8631 -0.3952
   79SLPC  C314 7327   3.790   1.406   8.508 -0.2501 -0.5367  0.4559
   79SLPC  H14X 7328   3.788   1.515   8.530 -0.9711  0.2931 -3.0739
   79SLPC  H14Y 7329   3.897   1.392   8.483  0.1653  0.1607  1.7261
   79SLPC  C315 7330   3.767   1.320   8.633 -0.0559  0.2524  0.2368
   79SLPC  H15X 7331   3.848   1.339   8.707 -1.6670  0.6466  1.9880
   79SLPC  H15Y 7332   3.779   1.214   8.601 -1.4986  0.1527 -0.0618
   79SLPC  C316 7333   3.633   1.336   8.702 -0.0231 -0.3549  0.2342
   79SLPC  H16X 7334   3.551   1.316   8.630  1.8690 -1.1260 -1.8466
   79SLPC  H16Y 7335   3.625   1.445   8.724  1.6264  0.2267 -1.7090
   79SLPC  C317 7336   3.626   1.247   8.821 -0.4111  0.7465 -0.3975
   79SLPC  H17X 7337   3.660   1.146   8.787 -1.4513  0.2748 -0.0871
   79SLPC  H17Y 7338   3.524   1.233   8.864  0.8052  0.7604  2.7261
   79SLPC  C318 7339   3.715   1.281   8.942  0.1537  0.0344 -0.1016
   79SLPC  H18X 7340   3.690   1.377   8.993 -1.5780 -0.0076 -0.8113
   79SLPC  H18Y 7341   3.822   1.297   8.916  0.1642  0.0059 -0.0755
   79SLPC  H18Z 7342   3.698   1.215   9.030  0.4817  1.3119  0.9558
   80SLPC     N 7343   5.167   0.124   6.060 -0.2255 -0.2389 -0.0523
   80SLPC   C13 7344   5.213   0.264   6.056 -0.1574 -0.3002 -0.5917
   80SLPC  H13A 7345   5.145   0.334   6.102  0.0694 -0.1809 -0.4378
   80SLPC  H13B 7346   5.304   0.277   6.113 -0.8515  0.9266  0.2807
   80SLPC  H13C 7347   5.244   0.303   5.960  2.5319  0.2518  0.4164
   80SLPC   C14 7348   5.274   0.033   5.998 -0.1616  0.8374 -0.1392
   80SLPC  H14A 7349   5.245  -0.071   5.997  0.2437  0.6882  1.4319
   80SLPC  H14B 7350   5.294   0.073   5.900 -0.1244  0.7309 -0.1744
   80SLPC  H14C 7351   5.369   0.037   6.049 -1.6799  2.0218  2.8893
   80SLPC   C15 7352   5.043   0.110   5.983  0.9116 -0.7939  0.2443
   80SLPC  H15A 7353   5.056   0.116   5.876  0.8578  2.1033  0.3071
   80SLPC  H15B 7354   4.996   0.016   6.009 -2.9251  1.1818  1.1663
   80SLPC  H15C 7355   4.975   0.190   6.007  0.3549 -0.2643 -2.7033
   80SLPC   C12 7356   5.147   0.096   6.210  0.5905 -0.0323 -0.3907
   80SLPC  H12A 7357   5.072   0.164   6.249  2.9219  1.8683  1.1022
   80SLPC  H12B 7358   5.238   0.120   6.263  0.3012  0.2168  0.0082
   80SLPC   C11 7359   5.097  -0.041   6.270  0.9574  0.0751  0.5325
   80SLPC  H11A 7360   4.989  -0.057   6.250  1.2184 -0.8048 -0.2048
   80SLPC  H11B 7361   5.089  -0.050   6.380 -2.5698 -0.4050  0.3712
   80SLPC     P 7362   5.314  -0.176   6.285 -0.2713 -0.2164  0.2931
   80SLPC   O13 7363   5.371  -0.300   6.223 -0.4192 -0.6890  0.3377
   80SLPC   O14 7364   5.396  -0.058   6.289 -0.2802 -0.3317 -0.4687
   80SLPC   O12 7365   5.168  -0.151   6.221 -0.1514  0.0728  0.1403
   80SLPC   O11 7366   5.281  -0.211   6.438  0.7493  0.7062 -0.0898
   80SLPC    C1 7367   5.388  -0.222   6.532 -0.7295  0.2404  0.4366
   80SLPC    HA 7368   5.448  -0.312   6.507  0.2681  0.8873  0.4655
   80SLPC    HB 7369   5.465  -0.142   6.523 -2.4145  1.7463 -2.4093
   80SLPC    C2 7370   5.346  -0.219   6.682 -0.2153  0.2990  0.3463
   80SLPC    HS 7371   5.267  -0.296   6.695  0.3266 -0.0291  1.9583
   80SLPC   O21 7372   5.300  -0.091   6.721 -0.4834  0.5868  0.1086
   80SLPC   C21 7373   5.225  -0.077   6.825 -0.8104 -0.2151  0.1491
   80SLPC   O22 7374   5.167  -0.165   6.885  0.2031  0.8771 -0.2085
   80SLPC   C22 7375   5.228   0.071   6.855 -0.6957  0.9458 -0.3931
   80SLPC   H2R 7376   5.323   0.123   6.830  1.0895 -1.0771  1.7479
   80SLPC   H2S 7377   5.154   0.110   6.781  0.0195  1.4604 -0.8492
   80SLPC    C3 7378   5.473  -0.257   6.765 -0.4154  0.1921  0.4088
   80SLPC    HX 7379   5.545  -0.177   6.739  0.9865 -0.7749  1.1838
   80SLPC    HY 7380   5.521  -0.351   6.733 -0.9306 -0.5589  1.7466
   80SLPC   O31 7381   5.453  -0.258   6.909 -0.1637 -0.6130  0.3669
   80SLPC   C31 7382   5.427  -0.373   6.973  0.2664  0.4581 -0.5707
   80SLPC   O32 7383   5.436  -0.482   6.923 -0.2451  0.3763 -0.0817
   80SLPC   C32 7384   5.373  -0.344   7.114  0.1280  0.1076  0.1802
   80SLPC   H2X 7385   5.305  -0.256   7.109 -1.3190 -1.0118 -0.5578
   80SLPC   H2Y 7386   5.466  -0.328   7.173  1.0790 -0.6293 -1.0708
   80SLPC   C23 7387   5.186   0.112   6.993  0.0992  0.0829 -0.5192
   80SLPC   H3R 7388   5.082   0.073   6.991  1.5390 -4.3600 -0.5258
   80SLPC   H3S 7389   5.186   0.223   6.993 -0.8385  0.1243 -2.5707
   80SLPC   C24 7390   5.250   0.054   7.120 -0.8857 -0.7020  0.1811
   80SLPC   H4R 7391   5.359   0.076   7.120 -1.0023 -0.0627 -0.3661
   80SLPC   H4S 7392   5.239  -0.056   7.124 -0.3768 -0.7325  0.9252
   80SLPC   C25 7393   5.185   0.109   7.247  0.3828 -0.2363  0.3154
   80SLPC   H5R 7394   5.075   0.101   7.252  0.1970  1.6842  0.2668
   80SLPC   H5S 7395   5.203   0.217   7.266  1.4625 -0.4047  0.3211
   80SLPC   C26 7396   5.240   0.038   7.373  0.7558 -0.0209  0.4168
   80SLPC   H6R 7397   5.348   0.064   7.373  1.4734 -2.5995 -1.0410
   80SLPC   H6S 7398   5.229  -0.072   7.364 -0.9226  0.2002 -0.8972
   80SLPC   C27 7399   5.179   0.087   7.507  0.1896  0.0407 -0.2487
   80SLPC   H7R 7400   5.217   0.024   7.590 -0.1347 -0.0451 -0.1631
   80SLPC   H7S 7401   5.069   0.076   7.502  0.2307 -0.0002 -1.3435
   80SLPC   C28 7402   5.225   0.224   7.554 -0.1440  0.6635  0.1129
   80SLPC   H8R 7403   5.208   0.291   7.467 -1.5780 -3.0402 -2.6941
   80SLPC   H8S 7404   5.333   0.207   7.575 -0.3613  0.2753  0.9319
   80SLPC   C29 7405   5.168   0.277   7.680  0.2412  0.9107  1.1223
   80SLPC   H9R 7406   5.072   0.332   7.678 -2.3372 -3.1984 -1.0141
   80SLPC  C210 7407   5.230   0.262   7.796 -0.7917 -0.1441 -0.6706
   80SLPC  H10R 7408   5.172   0.289   7.885  2.7154  1.2685  1.3952
   80SLPC  C211 7409   5.364   0.202   7.833  0.4757  0.4513 -0.1378
   80SLPC  H11R 7410   5.442   0.212   7.755  0.6804  2.4785  0.2743
   80SLPC  H11S 7411   5.358   0.091   7.836 -0.3392  0.4564 -0.8866
   80SLPC  C212 7412   5.424   0.247   7.965  0.0888 -0.5966  0.4318
   80SLPC  H12R 7413   5.479   0.342   7.961 -0.6258  0.0015  2.8396
   80SLPC  C213 7414   5.413   0.200   8.094  1.1362 -0.1197 -0.2533
   80SLPC  H13R 7415   5.468   0.251   8.173  1.9256  0.5249 -1.2057
   80SLPC  C214 7416   5.323   0.077   8.131 -0.8213 -0.2605  0.8208
   80SLPC  H14R 7417   5.382   0.020   8.207  2.5691  1.0080 -0.6505
   80SLPC  H14S 7418   5.295   0.006   8.050 -0.5458 -2.4594  2.5346
   80SLPC  C215 7419   5.192   0.118   8.189  0.2526  0.4260 -0.5922
   80SLPC  H15R 7420   5.145   0.018   8.203  0.0015  0.4351 -1.3449
   80SLPC  H15S 7421   5.131   0.172   8.113 -0.8611  1.5788  1.0581
   80SLPC  C216 7422   5.186   0.199   8.319  0.0088 -0.5702  0.1880
   80SLPC  H16R 7423   5.251   0.287   8.300 -0.1274 -0.7708 -1.4121
   80SLPC  H16S 7424   5.213   0.130   8.401 -0.3173  0.4472  1.1640
   80SLPC  C217 7425   5.040   0.245   8.342 -0.4604  0.1646 -0.4348
   80SLPC  H17R 7426   5.032   0.269   8.450  1.1198  0.2740 -0.3215
   80SLPC  H17S 7427   4.971   0.158   8.331  0.7093 -0.6275 -2.1273
   80SLPC  C218 7428   4.996   0.375   8.272 -0.0210  0.0528  0.0502
   80SLPC  H18R 7429   4.902   0.409   8.321  0.3639 -0.3828  1.1127
   80SLPC  H18S 7430   4.981   0.357   8.164  1.3944  2.4320 -0.6065
   80SLPC  H18T 7431   5.073   0.454   8.284  0.1809 -0.1724  0.2438
   80SLPC   C33 7432   5.282  -0.463   7.168 -0.3222  0.3429 -0.2820
   80SLPC   H3X 7433   5.348  -0.551   7.154  2.2938  2.1417  0.2034
   80SLPC   H3Y 7434   5.190  -0.462   7.105  0.9616 -1.0271 -2.3075
   80SLPC   C34 7435   5.244  -0.441   7.308  0.5687 -0.7653 -1.0707
   80SLPC   H4X 7436   5.207  -0.340   7.333  3.7954 -0.0656  1.6505
   80SLPC   H4Y 7437   5.327  -0.447   7.382 -1.1036 -1.4365  0.8430
   80SLPC   C35 7438   5.134  -0.536   7.353 -0.0764  0.4424  0.0935
   80SLPC   H5X 7439   5.128  -0.628   7.291  1.4417  1.4434 -1.6524
   80SLPC   H5Y 7440   5.041  -0.484   7.324  1.2536  4.7243  2.7196
   80SLPC   C36 7441   5.138  -0.564   7.501 -0.1956 -0.0092 -0.2151
   80SLPC   H6X 7442   5.157  -0.468   7.554 -1.6577 -0.8850  2.0810
   80SLPC   H6Y 7443   5.228  -0.623   7.530  0.8439  1.6772  0.1834
   80SLPC   C37 7444   5.003  -0.620   7.550  0.0132 -0.0713  0.5691
   80SLPC   H7X 7445   4.916  -0.562   7.512 -0.9824 -2.0174 -0.2762
   80SLPC   H7Y 7446   5.001  -0.625   7.661 -0.4014 -3.3877  0.5074
   80SLPC   C38 7447   4.996  -0.766   7.505  0.2647 -0.5925  0.1970
   80SLPC   H8X 7448   5.074  -0.832   7.549 -0.4121 -0.8712  1.0096
   80SLPC   H8Y 7449   5.003  -0.771   7.394 -0.7197  1.2740 -0.0016
   80SLPC   C39 7450   4.871  -0.837   7.541 -0.7794  0.2405 -0.9395
   80SLPC   H9X 7451   4.886  -0.940   7.502  1.8070  0.2082 -0.0603
   80SLPC   H9Y 7452   4.781  -0.789   7.498 -2.2546 -2.4948 -1.1026
   80SLPC  C310 7453   4.876  -0.857   7.692  0.0744  0.1744  0.3755
   80SLPC  H10X 7454   4.883  -0.761   7.748 -1.1964  0.8841 -0.6432
   80SLPC  H10Y 7455   4.959  -0.927   7.717 -0.0479  0.2741  1.1106
   80SLPC  C311 7456   4.746  -0.920   7.750 -0.0650  0.2626  0.3714
   80SLPC  H11X 7457   4.720  -1.009   7.689  0.4652 -0.5604  1.3070
   80SLPC  H11Y 7458   4.658  -0.856   7.729 -0.3266 -0.6440 -1.4684
   80SLPC  C312 7459   4.754  -0.971   7.896 -0.1289  0.0247 -0.0037
   80SLPC  H12X 7460   4.817  -0.892   7.943  0.4699  0.4415 -1.4549
   80SLPC  H12Y 7461   4.804  -1.069   7.911 -0.9811 -0.6160 -1.1719
   80SLPC  C313 7462   4.619  -0.976   7.968  0.3466 -0.1480 -0.5833
   80SLPC  H13X 7463   4.549  -1.059   7.946 -0.1501  0.2427 -0.5064
   80SLPC  H13Y 7464   4.565  -0.879   7.966  0.2548 -0.0633  2.2586
   80SLPC  C314 7465   4.639  -0.989   8.119 -0.2324  0.2201 -0.5321
   80SLPC  H14X 7466   4.539  -0.991   8.167 -0.7380  0.0703 -1.5759
   80SLPC  H14Y 7467   4.698  -0.901   8.153  0.3459 -0.0806 -0.7292
   80SLPC  C315 7468   4.714  -1.113   8.173 -0.6253  0.1836 -0.3828
   80SLPC  H15X 7469   4.821  -1.103   8.146 -0.1782 -0.8148  0.9373
   80SLPC  H15Y 7470   4.673  -1.197   8.113  0.9302  0.4131 -1.8387
   80SLPC  C316 7471   4.701  -1.152   8.322  0.4016 -0.5943 -0.3609
   80SLPC  H16X 7472   4.758  -1.247   8.336  3.2699  1.3084  1.9978
   80SLPC  H16Y 7473   4.594  -1.163   8.352  0.3775  0.5928  0.0409
   80SLPC  C317 7474   4.780  -1.056   8.404 -0.0714  0.0491 -0.7920
   80SLPC  H17X 7475   4.729  -0.958   8.417 -0.1771 -0.0935 -0.0664
   80SLPC  H17Y 7476   4.872  -1.049   8.343  1.4994  0.2326  1.4720
   80SLPC  C318 7477   4.814  -1.104   8.547 -0.0494  0.3675  0.6325
   80SLPC  H18X 7478   4.895  -1.180   8.537  1.0494  1.5138  0.5923
   80SLPC  H18Y 7479   4.729  -1.155   8.597 -0.1330 -0.9674 -0.8106
   80SLPC  H18Z 7480   4.857  -1.025   8.612  0.0468  0.5192  0.3852
   81SAPS     N 7481   6.496   1.688  11.170  0.0224 -0.3410  0.2182
   81SAPS   HN1 7482   6.521   1.767  11.108  0.3309 -0.6812 -0.0964
   81SAPS   HN2 7483   6.440   1.722  11.251  0.7926 -0.0336  0.6329
   81SAPS   HN3 7484   6.573   1.640  11.221 -0.4758 -1.7733 -0.3260
   81SAPS   C12 7485   6.433   1.587  11.084  0.2676 -0.1903  0.3956
   81SAPS  H12A 7486   6.512   1.524  11.046  1.0141  0.7397  0.3668
   81SAPS   C13 7487   6.336   1.486  11.146  0.1606 -0.0347  0.6043
   81SAPS  O13A 7488   6.337   1.459  11.274  0.3926 -0.7004  0.2541
   81SAPS  O13B 7489   6.300   1.393  11.067 -0.2042  0.1875 -0.4450
   81SAPS   C11 7490   6.354   1.665  10.975 -0.2021  0.1636  0.0342
   81SAPS  H11A 7491   6.292   1.592  10.918  0.7349 -0.7211  0.1165
   81SAPS  H11B 7492   6.431   1.700  10.902 -1.1899 -1.2313 -1.7824
   81SAPS     P 7493   6.146   1.827  10.971 -0.0940 -0.5507  0.2008
   81SAPS   O13 7494   6.038   1.741  11.021  0.3635  0.0633  0.1743
   81SAPS   O14 7495   6.130   1.977  10.995 -0.0039  0.3960 -0.2824
   81SAPS   O12 7496   6.284   1.778  11.035  0.0191  0.2204  0.3912
   81SAPS   O11 7497   6.156   1.813  10.808 -0.1275  0.5344 -0.0121
   81SAPS    C1 7498   6.272   1.865  10.750 -0.5448 -0.0791 -0.3111
   81SAPS    HA 7499   6.333   1.932  10.813 -0.2645  0.5518 -1.2303
   81SAPS    HB 7500   6.328   1.778  10.710 -1.9752 -0.5587 -1.3938
   81SAPS    C2 7501   6.225   1.951  10.625 -0.2321  0.3514  0.0107
   81SAPS    HS 7502   6.162   2.034  10.665 -0.5740 -0.3038  0.8850
   81SAPS   O21 7503   6.146   1.863  10.537  0.4207  0.1007 -0.4758
   81SAPS   C21 7504   6.020   1.900  10.517  0.5367 -0.5217 -0.0759
   81SAPS   O22 7505   5.965   1.999  10.566 -0.0315  0.3950 -0.2131
   81SAPS   C22 7506   5.957   1.807  10.412 -0.8795  0.6890 -0.3184
   81SAPS   H2R 7507   5.983   1.700  10.422 -0.6029  0.6951 -0.9342
   81SAPS   H2S 7508   5.848   1.815  10.431 -0.7245 -1.5879  2.0998
   81SAPS    C3 7509   6.343   2.017  10.546 -0.0365  0.3909 -0.5511
   81SAPS    HX 7510   6.404   1.927  10.523 -1.5882 -1.1262  0.9406
   81SAPS    HY 7511   6.393   2.087  10.616  0.1859 -0.8823  0.6010
   81SAPS   O31 7512   6.287   2.072  10.422 -0.1488  0.1446 -0.0020
   81SAPS   C31 7513   6.286   2.203  10.412 -0.6542  0.0596  0.8667
   81SAPS   O32 7514   6.330   2.281  10.495 -0.0524  0.5940 -0.3237
   81SAPS   C32 7515   6.209   2.234  10.289 -0.0043 -0.6112  0.2817
   81SAPS   H2X 7516   6.206   2.345  10.283  0.3631 -0.5662  0.8115
   81SAPS   H2Y 7517   6.104   2.199  10.302  0.3739 -1.0493  2.5355
   81SAPS   C23 7518   5.978   1.859  10.263 -0.7104 -0.1111 -0.1005
   81SAPS   H3R 7519   5.976   1.970  10.259  3.3977  0.1920  1.4135
   81SAPS   H3S 7520   5.885   1.817  10.219  1.4101 -3.3117 -1.9960
   81SAPS   C24 7521   6.089   1.819  10.169 -0.8897  0.3701 -0.0923
   81SAPS   H4R 7522   6.184   1.853  10.214 -0.0525  0.9067 -2.1471
   81SAPS   H4S 7523   6.073   1.868  10.070  0.9297 -1.1175 -1.1797
   81SAPS   C25 7524   6.092   1.677  10.136 -0.4996  0.7532  0.3037
   81SAPS   H5R 7525   6.090   1.617  10.228  0.6761 -0.1473 -0.2397
   81SAPS   C26 7526   6.090   1.616  10.014  0.3832 -0.3927 -0.4013
   81SAPS   H6R 7527   6.106   1.507  10.017 -0.7929 -0.5695  1.5853
   81SAPS   C27 7528   6.088   1.680   9.875  0.1361  0.5515  0.2360
   81SAPS   H7R 7529   6.190   1.699   9.836 -0.3133  2.7389  0.0380
   81SAPS   H7S 7530   6.037   1.779   9.877  0.0278  0.4929  0.4752
   81SAPS   C28 7531   6.018   1.600   9.766  0.2882  0.0950  0.1675
   81SAPS   H8R 7532   5.925   1.643   9.725 -0.5903 -1.2858  0.6317
   81SAPS   C29 7533   6.063   1.492   9.700 -0.1994  0.0311 -0.0433
   81SAPS   H9R 7534   5.995   1.437   9.634 -0.0956  0.1508 -0.2480
   81SAPS  C210 7535   6.191   1.419   9.729 -0.1142 -0.5774  0.1204
   81SAPS  H10R 7536   6.250   1.473   9.806  0.1941 -0.7737  0.0212
   81SAPS  H10S 7537   6.258   1.415   9.640  0.2245 -0.7997  0.3885
   81SAPS  C211 7538   6.165   1.272   9.775 -0.6475 -0.0969 -0.2601
   81SAPS  H11R 7539   6.204   1.246   9.874  0.4652  0.9397 -0.4099
   81SAPS  C212 7540   6.133   1.171   9.694 -0.5089 -0.5219 -1.3610
   81SAPS  H12R 7541   6.110   1.073   9.739 -2.7599 -0.0022 -1.2175
   81SAPS  C213 7542   6.108   1.181   9.544  0.1575 -0.3400 -0.1759
   81SAPS  H13R 7543   6.050   1.267   9.505  1.4190  0.6884  0.1340
   81SAPS  H13S 7544   6.062   1.085   9.515  0.5179 -0.5661 -0.0033
   81SAPS  C214 7545   6.246   1.192   9.477 -0.0767  0.5390  0.4996
   81SAPS  H14R 7546   6.327   1.196   9.551 -2.0891  1.3285  2.7883
   81SAPS  C215 7547   6.282   1.202   9.343  0.1502  0.0003 -0.4203
   81SAPS  H15R 7548   6.390   1.201   9.318  0.5005 -0.6937  1.0331
   81SAPS  C216 7549   6.177   1.195   9.234  0.0021 -0.5104 -0.0723
   81SAPS  H16R 7550   6.112   1.285   9.232  1.6005  0.7556  1.8053
   81SAPS  H16S 7551   6.118   1.101   9.244 -1.6260  0.4182 -0.5212
   81SAPS  C217 7552   6.228   1.186   9.089  0.5358  0.1998 -0.1788
   81SAPS  H17R 7553   6.145   1.176   9.016  0.2699  4.0183 -0.6418
   81SAPS  H17S 7554   6.290   1.095   9.075 -0.4793 -0.6581  0.7502
   81SAPS  C218 7555   6.306   1.314   9.050 -0.7712  0.2026  0.2232
   81SAPS  H18R 7556   6.379   1.338   9.131 -0.1419  0.2459 -0.3472
   81SAPS  H18S 7557   6.236   1.400   9.059  0.3892  1.0464  1.8103
   81SAPS  C219 7558   6.354   1.306   8.902 -0.7051 -0.6309 -0.6008
   81SAPS  H19R 7559   6.258   1.283   8.850 -0.9039 -0.0597 -0.4980
   81SAPS  H19S 7560   6.412   1.212   8.900 -0.0897 -0.2757  0.1662
   81SAPS  C220 7561   6.425   1.417   8.829  0.1518 -0.5552  0.0448
   81SAPS  H20R 7562   6.469   1.377   8.735 -0.6576  2.0628 -1.5730
   81SAPS  H20S 7563   6.506   1.458   8.893 -2.4991  0.7350  2.8232
   81SAPS  H20T 7564   6.364   1.508   8.810 -1.0062 -1.4302 -0.4850
   81SAPS   C33 7565   6.265   2.183  10.157  0.1982  0.5823  0.1502
   81SAPS   H3X 7566   6.270   2.072  10.157  0.3492  0.5774  1.3746
   81SAPS   H3Y 7567   6.367   2.222  10.138  0.1330  1.4876  1.5695
   81SAPS   C34 7568   6.182   2.228  10.043  1.1604  0.3345 -0.0884
   81SAPS   H4X 7569   6.178   2.338  10.030  1.1935  0.5304  1.3561
   81SAPS   H4Y 7570   6.078   2.196  10.065  1.2380  2.6765  5.1383
   81SAPS   C35 7571   6.247   2.173   9.906 -0.4393  0.1252 -0.0413
   81SAPS   H5X 7572   6.230   2.063   9.901 -1.6421  0.1893  1.5783
   81SAPS   H5Y 7573   6.356   2.196   9.909 -0.1696 -0.6659 -2.1809
   81SAPS   C36 7574   6.182   2.231   9.776 -0.4242 -0.5347 -0.3513
   81SAPS   H6X 7575   6.212   2.338   9.766 -2.9494  0.4018  0.9742
   81SAPS   H6Y 7576   6.071   2.229   9.785 -0.3561  1.1523  1.8855
   81SAPS   C37 7577   6.229   2.163   9.652  0.8710  0.6604  0.4840
   81SAPS   H7X 7578   6.186   2.060   9.657 -0.4103  1.2157  1.4037
   81SAPS   H7Y 7579   6.339   2.145   9.662  0.5065 -1.4243  1.4232
   81SAPS   C38 7580   6.204   2.230   9.521 -0.0013 -0.0785 -0.0447
   81SAPS   H8X 7581   6.198   2.149   9.444  0.1813  1.1593 -1.4045
   81SAPS   H8Y 7582   6.295   2.292   9.508  0.9742 -1.4826 -0.1636
   81SAPS   C39 7583   6.078   2.310   9.519 -0.6952  0.5785  0.8873
   81SAPS   H9X 7584   6.066   2.389   9.596 -0.5919  2.1086 -0.5979
   81SAPS   H9Y 7585   5.989   2.244   9.509 -1.1226  1.1204  1.0506
   81SAPS  C310 7586   6.081   2.406   9.401  0.1975 -0.0870  0.1738
   81SAPS  H10X 7587   6.160   2.483   9.388  0.7877 -1.1167 -3.5842
   81SAPS  H10Y 7588   5.983   2.457   9.390  1.4144  2.1673 -0.8630
   81SAPS  C311 7589   6.078   2.326   9.268 -0.6253 -0.5016  0.2122
   81SAPS  H11X 7590   6.004   2.243   9.265 -0.0274 -1.0191 -0.8303
   81SAPS  H11Y 7591   6.180   2.283   9.253 -0.5330  0.3361 -1.7695
   81SAPS  C312 7592   6.042   2.427   9.151  0.1598  0.2831  0.0043
   81SAPS  H12X 7593   6.097   2.519   9.179  1.1189 -0.6679  1.3673
   81SAPS  H12Y 7594   5.932   2.446   9.151  0.0325 -0.3232 -1.6550
   81SAPS  C313 7595   6.091   2.360   9.023  0.3502 -0.1804  0.3580
   81SAPS  H13X 7596   6.050   2.258   9.026  0.1473 -0.0846  2.0259
   81SAPS  H13Y 7597   6.201   2.352   9.008  0.3626 -0.0827  0.3950
   81SAPS  C314 7598   6.026   2.433   8.896  0.1079 -0.0312 -0.3867
   81SAPS  H14X 7599   6.053   2.541   8.904  0.2467 -0.2116  2.9048
   81SAPS  H14Y 7600   5.918   2.414   8.911 -0.0487  0.8195 -0.3757
   81SAPS  C315 7601   6.066   2.374   8.759 -0.7510 -0.3406 -0.5519
   81SAPS  H15X 7602   6.021   2.273   8.744 -2.0114 -0.3974  2.8009
   81SAPS  H15Y 7603   6.175   2.353   8.760 -1.0249 -1.8152  0.4900
   81SAPS  C316 7604   6.032   2.462   8.639  0.5998  0.3838 -0.2072
   81SAPS  H16X 7605   6.097   2.551   8.653  1.8697 -0.5135 -0.2726
   81SAPS  H16Y 7606   5.930   2.507   8.643  0.5383  0.1799  0.5743
   81SAPS  C317 7607   6.034   2.390   8.508  0.1868  0.4148 -0.3107
   81SAPS  H17X 7608   5.931   2.365   8.474 -0.0841 -2.5589  2.1694
   81SAPS  H17Y 7609   6.066   2.284   8.515 -0.7314  0.0587 -1.2763
   81SAPS  C318 7610   6.112   2.464   8.401  0.6497 -0.6354  0.0854
   81SAPS  H18X 7611   6.103   2.428   8.296 -1.3825  1.2239 -0.4393
   81SAPS  H18Y 7612   6.220   2.471   8.428  0.6531  2.1051 -0.3980
   81SAPS  H18Z 7613   6.071   2.567   8.396  0.8434 -0.6169 -1.5714
   82SAPS     N 7614   4.498   1.397  11.055  0.3245  0.0973  1.4830
   82SAPS   HN1 7615   4.506   1.491  11.011 -1.1909 -1.1097 -1.6583
   82SAPS   HN2 7616   4.539   1.328  10.989  1.7780  0.9162  1.4789
   82SAPS   HN3 7617   4.400   1.368  11.073  0.1074  0.5179  0.9959
   82SAPS   C12 7618   4.568   1.396  11.186 -0.1377  0.0582 -0.2806
   82SAPS  H12A 7619   4.536   1.484  11.240 -0.8896 -1.2099  1.4001
   82SAPS   C13 7620   4.536   1.269  11.264  0.1719 -0.6746  0.4297
   82SAPS  O13A 7621   4.478   1.174  11.204  0.0240  0.2620 -0.1140
   82SAPS  O13B 7622   4.592   1.252  11.373 -0.3815  0.2075  0.1007
   82SAPS   C11 7623   4.725   1.395  11.152 -0.0358 -0.2456 -0.2866
   82SAPS  H11A 7624   4.736   1.295  11.104 -1.9447 -0.4031 -0.4553
   82SAPS  H11B 7625   4.784   1.388  11.245 -0.1730 -0.2044 -0.1973
   82SAPS     P 7626   4.908   1.529  11.018 -0.4376  0.3258 -0.0944
   82SAPS   O13 7627   4.924   1.677  11.024  0.5361  0.0979 -0.1495
   82SAPS   O14 7628   5.009   1.444  11.089 -0.1112 -1.1994  0.6921
   82SAPS   O12 7629   4.769   1.505  11.070  0.4303 -0.1233  0.2630
   82SAPS   O11 7630   4.913   1.497  10.862  0.2903 -0.2667  0.5226
   82SAPS    C1 7631   4.836   1.384  10.804  0.7049 -0.4834  0.5672
   82SAPS    HA 7632   4.891   1.292  10.833  1.8819 -0.1207 -0.4649
   82SAPS    HB 7633   4.732   1.385  10.845 -0.0255  0.1229 -1.1731
   82SAPS    C2 7634   4.840   1.381  10.650  1.3094 -0.3225  0.2959
   82SAPS    HS 7635   4.804   1.284  10.610 -2.1389  0.3062  1.5665
   82SAPS   O21 7636   4.963   1.430  10.596  0.1116 -0.4773  0.7994
   82SAPS   C21 7637   5.061   1.346  10.602 -0.1665 -0.3715 -0.2922
   82SAPS   O22 7638   5.047   1.230  10.632 -0.0344  0.2528  0.3212
   82SAPS   C22 7639   5.200   1.401  10.561 -0.0306 -0.5504 -0.1026
   82SAPS   H2R 7640   5.232   1.460  10.650 -1.2250 -1.3294  0.8764
   82SAPS   H2S 7641   5.281   1.327  10.541  1.9510  1.9878 -2.0610
   82SAPS    C3 7642   4.726   1.477  10.597 -0.2859 -0.0871 -0.3905
   82SAPS    HX 7643   4.757   1.582  10.618 -0.0334  0.0452 -1.3867
   82SAPS    HY 7644   4.631   1.464  10.652 -0.1174 -0.3486 -0.1624
   82SAPS   O31 7645   4.701   1.442  10.462  0.4231  0.2214 -0.4323
   82SAPS   C31 7646   4.758   1.519  10.368  0.7265 -0.9940 -0.2700
   82SAPS   O32 7647   4.822   1.619  10.396 -0.2741  0.8149  0.1237
   82SAPS   C32 7648   4.763   1.447  10.231  0.1127  0.6799 -1.1390
   82SAPS   H2X 7649   4.661   1.409  10.209  0.1291 -0.8908  1.1527
   82SAPS   H2Y 7650   4.823   1.353  10.235 -0.5729  0.2444 -0.9528
   82SAPS   C23 7651   5.202   1.491  10.436  0.0431  0.4390  0.3085
   82SAPS   H3R 7652   5.292   1.552  10.412  0.9944 -0.9913  0.0757
   82SAPS   H3S 7653   5.125   1.566  10.463 -0.8181 -1.2317  2.8923
   82SAPS   C24 7654   5.170   1.412  10.309  0.4352 -0.8137  0.0317
   82SAPS   H4R 7655   5.133   1.475  10.225 -0.3586 -2.0791 -0.5915
   82SAPS   H4S 7656   5.078   1.351  10.324 -1.5590  1.6890 -1.2566
   82SAPS   C25 7657   5.277   1.316  10.266  0.0712 -0.5729  0.0987
   82SAPS   H5R 7658   5.313   1.250  10.346 -0.6368  1.6174  2.3305
   82SAPS   C26 7659   5.311   1.300  10.134 -0.2768 -0.0883 -0.4347
   82SAPS   H6R 7660   5.383   1.220  10.111 -0.0884  0.1847 -0.8203
   82SAPS   C27 7661   5.260   1.356  10.002 -0.3506  0.4192  0.0994
   82SAPS   H7R 7662   5.343   1.373   9.931  0.0361 -0.9096  0.2030
   82SAPS   H7S 7663   5.213   1.456  10.013  0.0071  0.7763 -1.4710
   82SAPS   C28 7664   5.159   1.262   9.947  0.4712  0.0190 -0.1701
   82SAPS   H8R 7665   5.095   1.216  10.023  0.7466  0.8087  0.5591
   82SAPS   C29 7666   5.139   1.230   9.818  0.4775 -0.1121 -0.0487
   82SAPS   H9R 7667   5.052   1.165   9.802  0.5075 -0.9280  2.5919
   82SAPS  C210 7668   5.204   1.287   9.692 -0.4866 -0.6049  0.3464
   82SAPS  H10R 7669   5.261   1.205   9.643 -0.2357 -0.3218  0.1631
   82SAPS  H10S 7670   5.266   1.373   9.726  0.3372 -1.8857  2.3415
   82SAPS  C211 7671   5.107   1.349   9.589  0.4745  0.5789 -0.2449
   82SAPS  H11R 7672   5.107   1.459   9.583  2.1808  0.6930  1.0934
   82SAPS  C212 7673   5.032   1.277   9.499  1.4912 -0.4508 -0.1484
   82SAPS  H12R 7674   4.955   1.321   9.434  0.3114 -0.5919  1.0964
   82SAPS  C213 7675   5.021   1.128   9.491 -0.1632 -0.3609  0.9291
   82SAPS  H13R 7676   5.004   1.090   9.594  1.8362  0.3681  1.5896
   82SAPS  H13S 7677   5.124   1.095   9.463  0.7097  0.8592  2.5040
   82SAPS  C214 7678   4.910   1.071   9.405  0.1473  0.2719  0.5686
   82SAPS  H14R 7679   4.818   1.030   9.449  0.1685  0.8860  1.1845
   82SAPS  C215 7680   4.905   1.067   9.272  0.2310  0.2767  0.0457
   82SAPS  H15R 7681   4.818   1.015   9.228  0.9987 -0.6106 -0.4521
   82SAPS  C216 7682   5.000   1.113   9.167 -0.7547 -0.5503  0.5686
   82SAPS  H16R 7683   5.030   1.029   9.102  1.3731 -0.8220  1.8183
   82SAPS  H16S 7684   5.096   1.148   9.208 -0.9055 -0.2444  0.6609
   82SAPS  C217 7685   4.940   1.226   9.086  0.7827 -0.4384  0.2278
   82SAPS  H17R 7686   5.023   1.254   9.019 -0.5948  1.5932 -0.7071
   82SAPS  H17S 7687   4.913   1.317   9.143  0.0883  0.9986 -2.2480
   82SAPS  C218 7688   4.820   1.193   8.990  0.0434  0.5687  0.1790
   82SAPS  H18R 7689   4.739   1.154   9.055  0.2885 -0.8267 -0.3096
   82SAPS  H18S 7690   4.844   1.121   8.908  0.6210  0.5763  0.3365
   82SAPS  C219 7691   4.762   1.317   8.924  0.2132 -0.3301 -0.5199
   82SAPS  H19R 7692   4.842   1.364   8.863  1.3472  0.2460  1.3389
   82SAPS  H19S 7693   4.723   1.392   8.996 -0.3537  0.9588 -2.1179
   82SAPS  C220 7694   4.640   1.285   8.837  0.9729  0.0793 -0.0890
   82SAPS  H20R 7695   4.562   1.225   8.889  0.7671 -1.0789 -1.6828
   82SAPS  H20S 7696   4.693   1.225   8.761  5.6912 -0.9468  3.5167
   82SAPS  H20T 7697   4.595   1.372   8.785  2.6052 -0.7199 -3.0919
   82SAPS   C33 7698   4.807   1.543  10.119  0.3250 -0.5099  0.2388
   82SAPS   H3X 7699   4.813   1.479  10.028  0.9681 -2.3646  1.5448
   82SAPS   H3Y 7700   4.902   1.590  10.151  1.2309 -2.0119 -0.2050
   82SAPS   C34 7701   4.691   1.642  10.089  0.4751 -0.3804 -0.4130
   82SAPS   H4X 7702   4.664   1.701  10.179  0.8132 -0.6764 -0.1166
   82SAPS   H4Y 7703   4.603   1.577  10.067  1.0814 -1.6973  0.8324
   82SAPS   C35 7704   4.723   1.729   9.969 -0.0238  0.9341  0.4967
   82SAPS   H5X 7705   4.709   1.675   9.873  0.5278  0.2201  0.8113
   82SAPS   H5Y 7706   4.830   1.755   9.986  0.9210 -1.8281 -0.6831
   82SAPS   C36 7707   4.635   1.855   9.962  0.0459 -0.2818  0.0286
   82SAPS   H6X 7708   4.681   1.917  10.042 -1.8809  1.1964  0.0515
   82SAPS   H6Y 7709   4.530   1.834   9.991 -0.9077  1.7686 -1.6903
   82SAPS   C37 7710   4.622   1.944   9.837 -0.1075 -0.5289 -0.0942
   82SAPS   H7X 7711   4.718   1.951   9.782  1.3718 -0.6229  2.3004
   82SAPS   H7Y 7712   4.596   2.049   9.863 -0.0525 -0.4363 -0.4123
   82SAPS   C38 7713   4.524   1.882   9.745 -0.5461 -0.6167  0.5585
   82SAPS   H8X 7714   4.422   1.879   9.788 -1.4613  1.9072 -1.1665
   82SAPS   H8Y 7715   4.553   1.775   9.734  0.2312 -0.5985  2.1979
   82SAPS   C39 7716   4.541   1.952   9.616  0.3576  0.2345  0.2578
   82SAPS   H9X 7717   4.618   2.032   9.617  1.5329 -0.8703  1.2965
   82SAPS   H9Y 7718   4.439   1.989   9.593  0.2636 -0.5191 -0.6042
   82SAPS  C310 7719   4.582   1.865   9.493 -0.4571  0.0490 -0.2924
   82SAPS  H10X 7720   4.496   1.797   9.477 -0.8384  0.0093  1.6637
   82SAPS  H10Y 7721   4.677   1.807   9.493  0.1778  1.0532 -1.2987
   82SAPS  C311 7722   4.587   1.945   9.359  0.1547  0.9777 -0.2610
   82SAPS  H11X 7723   4.674   2.014   9.353  0.7841  0.1489 -0.7642
   82SAPS  H11Y 7724   4.489   1.996   9.345  0.3142  0.7349 -2.7187
   82SAPS  C312 7725   4.596   1.847   9.241  0.4264 -0.0255 -0.3687
   82SAPS  H12X 7726   4.503   1.785   9.238 -0.5721  1.4165 -4.0316
   82SAPS  H12Y 7727   4.685   1.783   9.260  0.2694  0.4492  2.4092
   82SAPS  C313 7728   4.586   1.917   9.106 -0.3897 -0.0336  0.1110
   82SAPS  H13X 7729   4.672   1.986   9.102 -0.8887  0.5588 -0.6169
   82SAPS  H13Y 7730   4.492   1.975   9.093 -0.5148 -0.5454 -1.4763
   82SAPS  C314 7731   4.588   1.805   8.995  0.0783 -0.5084 -0.2408
   82SAPS  H14X 7732   4.485   1.774   8.965 -0.9739  1.3828  1.1634
   82SAPS  H14Y 7733   4.657   1.721   9.018  1.7197  1.0455  0.7824
   82SAPS  C315 7734   4.640   1.869   8.869 -0.3109  0.4246 -0.0629
   82SAPS  H15X 7735   4.721   1.942   8.892 -1.0025  0.6512  1.7715
   82SAPS  H15Y 7736   4.556   1.934   8.837 -0.3422  0.4024 -0.0246
   82SAPS  C316 7737   4.663   1.762   8.759  0.0527 -0.1119 -0.1824
   82SAPS  H16X 7738   4.591   1.679   8.773  1.3341 -1.3394 -0.6160
   82SAPS  H16Y 7739   4.762   1.713   8.771  0.4478  0.9454  1.2398
   82SAPS  C317 7740   4.650   1.822   8.621 -0.3206  0.4741 -0.3121
   82SAPS  H17X 7741   4.735   1.892   8.609  0.1381 -0.0021  0.0795
   82SAPS  H17Y 7742   4.563   1.891   8.615  1.0464  2.2166 -1.0154
   82SAPS  C318 7743   4.638   1.728   8.508  0.1900  0.0469 -0.5355
   82SAPS  H18X 7744   4.571   1.640   8.522  0.4439 -0.2852 -1.3253
   82SAPS  H18Y 7745   4.734   1.677   8.483  1.1258  1.1716  0.6254
   82SAPS  H18Z 7746   4.599   1.779   8.417 -3.1084 -1.5522 -0.1681
   83SAPS     N 7747   5.883   4.545  11.276 -0.1461 -0.8271  0.0419
   83SAPS   HN1 7748   5.898   4.631  11.219 -1.9844  0.1600  0.9482
   83SAPS   HN2 7749   5.940   4.461  11.255  1.0507 -0.6731  2.2776
   83SAPS   HN3 7750   5.782   4.523  11.277 -0.6603  1.1427 -1.8217
   83SAPS   C12 7751   5.932   4.593  11.409  0.0717  0.2410  0.4963
   83SAPS  H12A 7752   6.019   4.655  11.394 -0.8005  1.1439 -1.1016
   83SAPS   C13 7753   5.841   4.685  11.485 -0.2053  0.0514 -0.1071
   83SAPS  O13A 7754   5.731   4.710  11.439  0.5829 -0.2171  0.0383
   83SAPS  O13B 7755   5.888   4.756  11.581 -0.4637 -0.2427  0.4037
   83SAPS   C11 7756   5.968   4.468  11.495 -0.4629  0.7990  0.9350
   83SAPS  H11A 7757   5.871   4.422  11.526 -1.6087  1.4120 -1.5342
   83SAPS  H11B 7758   6.024   4.494  11.588  0.3300  0.0159  0.6910
   83SAPS     P 7759   6.003   4.237  11.367  0.3299  0.3642 -0.1585
   83SAPS   O13 7760   6.124   4.153  11.362 -0.5151 -0.5856 -0.1390
   83SAPS   O14 7761   5.898   4.192  11.462 -0.1200  0.0115  0.6459
   83SAPS   O12 7762   6.048   4.380  11.416  0.0347  0.2373  0.3119
   83SAPS   O11 7763   5.955   4.280  11.227 -0.1130  0.0626  0.1833
   83SAPS    C1 7764   5.864   4.206  11.147  0.5319 -0.2724 -0.1281
   83SAPS    HA 7765   5.786   4.162  11.212  0.0301  0.1018 -0.4577
   83SAPS    HB 7766   5.819   4.283  11.080 -0.5642 -1.6130 -1.0059
   83SAPS    C2 7767   5.939   4.109  11.059 -0.4166 -0.2789  0.0538
   83SAPS    HS 7768   6.011   4.040  11.107  1.3318 -0.0950 -2.1220
   83SAPS   O21 7769   6.006   4.198  10.962 -0.4450  0.8475  0.6116
   83SAPS   C21 7770   6.136   4.196  10.968  0.7082 -0.5388 -0.4081
   83SAPS   O22 7771   6.206   4.135  11.051 -0.1810 -0.3517 -0.1679
   83SAPS   C22 7772   6.189   4.267  10.845  0.2784 -0.2248  0.0628
   83SAPS   H2R 7773   6.131   4.245  10.753 -1.0824 -0.9007  1.0517
   83SAPS   H2S 7774   6.179   4.377  10.857  0.6938 -0.1726 -0.0553
   83SAPS    C3 7775   5.839   4.017  10.981 -0.5948 -0.1815 -0.1171
   83SAPS    HX 7776   5.755   3.995  11.050  0.5829  2.1531  2.1908
   83SAPS    HY 7777   5.872   3.912  10.961  0.8335  0.6553 -2.6063
   83SAPS   O31 7778   5.786   4.087  10.863 -0.1559 -0.7839 -0.4746
   83SAPS   C31 7779   5.840   4.047  10.741 -0.5828 -0.4293  0.4973
   83SAPS   O32 7780   5.895   3.940  10.724 -0.1778 -0.2611 -0.4177
   83SAPS   C32 7781   5.804   4.150  10.633 -0.2524  0.5599  0.5594
   83SAPS   H2X 7782   5.820   4.249  10.680 -1.1590  0.6861  0.6324
   83SAPS   H2Y 7783   5.692   4.149  10.637 -0.5383 -0.4514 -3.3934
   83SAPS   C23 7784   6.347   4.248  10.830  0.1689  0.2313 -0.1618
   83SAPS   H3R 7785   6.398   4.264  10.927  0.1619 -3.5905  0.6434
   83SAPS   H3S 7786   6.381   4.318  10.750 -0.3543 -0.1177 -0.7051
   83SAPS   C24 7787   6.392   4.105  10.787 -0.4050 -0.1741  0.4712
   83SAPS   H4R 7788   6.368   4.032  10.867 -1.1080 -0.7830 -0.2719
   83SAPS   H4S 7789   6.500   4.125  10.768 -0.7132  0.7615 -0.3871
   83SAPS   C25 7790   6.332   4.059  10.657 -0.2183  0.2026  0.2744
   83SAPS   H5R 7791   6.250   3.987  10.675 -0.3309  0.5460  1.2095
   83SAPS   C26 7792   6.370   4.095  10.532 -1.0300  0.3173  0.6211
   83SAPS   H6R 7793   6.320   4.052  10.443  1.4778  1.4103 -1.4542
   83SAPS   C27 7794   6.477   4.188  10.489 -0.4773  1.2793  0.6508
   83SAPS   H7R 7795   6.520   4.145  10.396 -3.7620  1.4898 -1.1220
   83SAPS   H7S 7796   6.562   4.187  10.561  0.9226 -1.3407 -0.8527
   83SAPS   C28 7797   6.429   4.329  10.455 -0.4293 -0.0378  0.3622
   83SAPS   H8R 7798   6.439   4.393  10.543 -0.3834 -2.7634  2.4856
   83SAPS   C29 7799   6.378   4.373  10.335 -0.7154  0.1412  0.4684
   83SAPS   H9R 7800   6.356   4.480  10.337  0.6694  0.4442  0.3074
   83SAPS  C210 7801   6.359   4.291  10.213 -0.0619  0.3580 -0.5311
   83SAPS  H10R 7802   6.268   4.332  10.166 -1.6029 -0.1453  1.8300
   83SAPS  H10S 7803   6.330   4.185  10.228 -1.6105  0.4831 -2.3547
   83SAPS  C211 7804   6.470   4.302  10.111 -0.3578 -0.2768 -0.3672
   83SAPS  H11R 7805   6.570   4.272  10.144 -0.0441  1.0901 -0.0184
   83SAPS  C212 7806   6.453   4.312   9.981 -0.4505  0.3733  0.5970
   83SAPS  H12R 7807   6.544   4.332   9.923 -1.1594  0.0422 -0.6734
   83SAPS  C213 7808   6.327   4.322   9.905 -0.0377 -1.1106  0.5097
   83SAPS  H13R 7809   6.248   4.256   9.947 -1.2987  1.5561  2.5904
   83SAPS  H13S 7810   6.356   4.287   9.803  0.5228  1.1530 -0.1634
   83SAPS  C214 7811   6.267   4.464   9.907  0.4379  1.4223  0.1831
   83SAPS  H14R 7812   6.190   4.476   9.985 -1.8312  1.1281 -1.8749
   83SAPS  C215 7813   6.290   4.568   9.825 -0.2076 -0.3311  0.7256
   83SAPS  H15R 7814   6.251   4.664   9.861 -0.0055 -0.5627  1.5723
   83SAPS  C216 7815   6.391   4.572   9.709 -0.6964  0.0751 -0.4809
   83SAPS  H16R 7816   6.377   4.485   9.641 -0.1352  0.2621 -0.8420
   83SAPS  H16S 7817   6.491   4.565   9.757 -1.4529  1.4048  1.4024
   83SAPS  C217 7818   6.371   4.692   9.625  0.0802 -0.6627  0.8508
   83SAPS  H17R 7819   6.446   4.689   9.543  1.7587 -0.5174  2.3047
   83SAPS  H17S 7820   6.393   4.788   9.677  0.8331  0.9775 -2.2537
   83SAPS  C218 7821   6.230   4.721   9.556 -0.1021 -0.1676  0.2803
   83SAPS  H18R 7822   6.169   4.795   9.612 -0.0973 -0.9047  1.2765
   83SAPS  H18S 7823   6.181   4.621   9.556  1.1538 -0.8292 -1.0962
   83SAPS  C219 7824   6.244   4.786   9.413 -0.4728 -0.0833  0.2876
   83SAPS  H19R 7825   6.306   4.720   9.350  1.6085  1.8948  0.1320
   83SAPS  H19S 7826   6.300   4.881   9.431 -0.0278 -0.2199 -0.3676
   83SAPS  C220 7827   6.112   4.817   9.348  0.5408 -0.7329  0.1984
   83SAPS  H20R 7828   6.057   4.902   9.391 -0.9845 -2.4878  1.9102
   83SAPS  H20S 7829   6.045   4.733   9.375  0.8406 -0.2369  2.6581
   83SAPS  H20T 7830   6.105   4.824   9.237  0.4808 -0.9904  0.1847
   83SAPS   C33 7831   5.861   4.140  10.487 -0.5610 -0.4785  0.6843
   83SAPS   H3X 7832   5.848   4.037  10.449  0.5912 -0.2758 -0.3264
   83SAPS   H3Y 7833   5.970   4.162  10.489 -0.5613 -0.1542 -1.1041
   83SAPS   C34 7834   5.786   4.228  10.386  0.3688 -0.8732  0.0011
   83SAPS   H4X 7835   5.787   4.331  10.429  1.3865 -0.9228  0.1124
   83SAPS   H4Y 7836   5.682   4.190  10.375  0.1494 -0.3413  0.1670
   83SAPS   C35 7837   5.844   4.221  10.246 -0.3689 -0.4626  0.1310
   83SAPS   H5X 7838   5.819   4.118  10.212  1.1084 -0.2989 -1.6212
   83SAPS   H5Y 7839   5.953   4.238  10.247 -0.4954  0.6578 -1.4065
   83SAPS   C36 7840   5.772   4.307  10.139 -0.1728 -0.2435 -0.2397
   83SAPS   H6X 7841   5.794   4.414  10.163  1.2576 -0.2224 -1.4571
   83SAPS   H6Y 7842   5.665   4.282  10.151  0.3133 -1.7765  1.2294
   83SAPS   C37 7843   5.829   4.271  10.002 -0.0372 -0.1486  0.1582
   83SAPS   H7X 7844   5.794   4.169   9.976 -1.8005  0.2237  0.9485
   83SAPS   H7Y 7845   5.940   4.280   9.997  0.0828 -0.5154  1.5941
   83SAPS   C38 7846   5.775   4.365   9.886 -1.0312  0.2519 -0.3770
   83SAPS   H8X 7847   5.826   4.463   9.901  0.3398 -0.5225  0.2427
   83SAPS   H8Y 7848   5.664   4.370   9.885 -1.0570 -0.1498  0.3026
   83SAPS   C39 7849   5.817   4.328   9.738  0.2197 -0.1135 -0.5028
   83SAPS   H9X 7850   5.780   4.402   9.664 -3.2249 -1.0938  0.0586
   83SAPS   H9Y 7851   5.766   4.232   9.717 -0.8159  0.0827  0.9837
   83SAPS  C310 7852   5.964   4.302   9.718  0.5901  0.0586 -0.5200
   83SAPS  H10X 7853   6.013   4.246   9.801 -2.6600 -2.9742 -0.4183
   83SAPS  H10Y 7854   5.999   4.408   9.717 -0.2042  0.3759  1.3121
   83SAPS  C311 7855   5.999   4.249   9.575 -0.8057  0.1454  0.0733
   83SAPS  H11X 7856   5.974   4.321   9.493  1.0122  1.0113  0.2337
   83SAPS  H11Y 7857   5.948   4.151   9.566  0.1276 -0.5055  1.5819
   83SAPS  C312 7858   6.152   4.232   9.571  0.0853  0.3372 -0.6678
   83SAPS  H12X 7859   6.189   4.151   9.637 -0.4471 -0.3021 -1.1433
   83SAPS  H12Y 7860   6.198   4.324   9.612  2.4248 -0.2106 -1.8827
   83SAPS  C313 7861   6.196   4.219   9.423 -0.5847  0.3902 -0.4896
   83SAPS  H13X 7862   6.178   4.323   9.388 -1.3613  0.2918 -0.4046
   83SAPS  H13Y 7863   6.121   4.159   9.367 -0.8075 -0.4203  0.6445
   83SAPS  C314 7864   6.342   4.170   9.410 -0.9750  0.0941 -0.3006
   83SAPS  H14X 7865   6.344   4.067   9.452 -3.3129  0.9228  2.1553
   83SAPS  H14Y 7866   6.406   4.230   9.479 -2.8538  1.8790 -0.0152
   83SAPS  C315 7867   6.389   4.179   9.265 -0.3806  0.9718 -0.3514
   83SAPS  H15X 7868   6.317   4.113   9.211 -0.5173 -0.7601  1.7916
   83SAPS  H15Y 7869   6.492   4.137   9.254 -1.3908 -1.1276 -2.9043
   83SAPS  C316 7870   6.382   4.322   9.209  0.3932  0.5089 -0.5486
   83SAPS  H16X 7871   6.482   4.346   9.167  0.4535  0.0649 -0.6604
   83SAPS  H16Y 7872   6.358   4.401   9.284  0.3740 -0.2945  0.3116
   83SAPS  C317 7873   6.280   4.328   9.104 -0.3798 -0.3143  0.8401
   83SAPS  H17X 7874   6.181   4.346   9.150 -0.3934  0.1351  0.6444
   83SAPS  H17Y 7875   6.270   4.231   9.050 -2.4446 -0.6212  1.6991
   83SAPS  C318 7876   6.309   4.439   9.001  0.5162  0.1958 -0.8325
   83SAPS  H18X 7877   6.229   4.432   8.925 -1.0455 -1.9675  0.8787
   83SAPS  H18Y 7878   6.401   4.402   8.951 -0.3607 -0.3782 -2.0460
   83SAPS  H18Z 7879   6.309   4.543   9.040 -1.6026  0.8665 -2.4655
   84SAPS     N 7880   6.671   2.544  11.349 -0.0474 -0.4652 -0.0561
   84SAPS   HN1 7881   6.630   2.579  11.438  1.1656  1.3086 -0.1523
   84SAPS   HN2 7882   6.771   2.569  11.341  0.1846 -1.6483 -1.2973
   84SAPS   HN3 7883   6.617   2.593  11.275  0.2823 -0.4886 -0.3117
   84SAPS   C12 7884   6.640   2.400  11.348  0.4160 -0.1441 -0.6786
   84SAPS  H12A 7885   6.699   2.349  11.274 -0.0342  1.3825 -2.1570
   84SAPS   C13 7886   6.668   2.320  11.482  0.4008  0.8498  0.0732
   84SAPS  O13A 7887   6.731   2.372  11.577 -0.1449  0.3622 -0.4228
   84SAPS  O13B 7888   6.642   2.198  11.472 -0.2772 -0.1640 -0.0290
   84SAPS   C11 7889   6.491   2.388  11.291  0.1383 -0.2061  0.3087
   84SAPS  H11A 7890   6.420   2.430  11.366  1.9875  2.5719  0.6399
   84SAPS  H11B 7891   6.479   2.277  11.288  0.9085 -0.2977  0.5986
   84SAPS     P 7892   6.350   2.467  11.070 -0.1676 -0.0901 -0.1566
   84SAPS   O13 7893   6.258   2.345  11.077  0.3097  0.0912  0.1192
   84SAPS   O14 7894   6.299   2.598  11.118 -0.8830 -0.4490 -0.7069
   84SAPS   O12 7895   6.478   2.433  11.150 -0.0838  0.4960  0.3924
   84SAPS   O11 7896   6.397   2.488  10.919 -0.1833  0.3893  0.4987
   84SAPS    C1 7897   6.463   2.373  10.855  0.2101  0.6997 -0.4888
   84SAPS    HA 7898   6.409   2.279  10.879  0.0812  1.2783  1.6783
   84SAPS    HB 7899   6.465   2.392  10.745  0.9695 -0.4798 -0.6971
   84SAPS    C2 7900   6.608   2.343  10.894  0.1810 -0.0636  0.2256
   84SAPS    HS 7901   6.607   2.334  11.005  0.8202  2.7088  0.5442
   84SAPS   O21 7902   6.688   2.456  10.858  0.3451 -0.2379  0.0525
   84SAPS   C21 7903   6.799   2.465  10.931 -0.4907 -0.1876 -0.5763
   84SAPS   O22 7904   6.823   2.397  11.032 -0.5471 -0.0448  0.7366
   84SAPS   C22 7905   6.870   2.595  10.887  0.5214  0.1762 -0.2308
   84SAPS   H2R 7906   6.790   2.658  10.842 -1.0821 -1.4853  0.1585
   84SAPS   H2S 7907   6.899   2.653  10.977 -1.6898 -1.2207  1.4898
   84SAPS    C3 7908   6.650   2.205  10.826  0.7142 -0.4492  0.0347
   84SAPS    HX 7909   6.579   2.128  10.864  0.8793 -0.5719  0.0971
   84SAPS    HY 7910   6.748   2.170  10.863  0.7955  0.2088  0.4579
   84SAPS   O31 7911   6.646   2.199  10.684  0.0227  0.1489  0.3115
   84SAPS   C31 7912   6.756   2.254  10.630  0.1424  0.1356  1.0256
   84SAPS   O32 7913   6.856   2.292  10.687  0.4154  0.3611  0.3075
   84SAPS   C32 7914   6.732   2.261  10.475 -0.2481 -0.0401 -0.3764
   84SAPS   H2X 7915   6.621   2.261  10.468 -0.4891  2.4889  1.9561
   84SAPS   H2Y 7916   6.778   2.174  10.423 -1.6640 -1.4955  0.7092
   84SAPS   C23 7917   6.992   2.566  10.801  0.2851 -0.2254  0.1746
   84SAPS   H3R 7918   6.980   2.492  10.719  2.0642 -1.5752  1.0761
   84SAPS   H3S 7919   7.072   2.526  10.865  0.4108 -2.2266 -1.1571
   84SAPS   C24 7920   7.052   2.692  10.735  0.7004 -0.3931  0.5971
   84SAPS   H4R 7921   7.138   2.653  10.677  1.2566  0.8770  0.5493
   84SAPS   H4S 7922   7.080   2.757  10.820  1.4233 -0.0814  0.1324
   84SAPS   C25 7923   6.958   2.778  10.642 -0.8880 -0.0762 -1.2028
   84SAPS   H5R 7924   6.877   2.828  10.698 -1.0202 -0.5258 -0.9855
   84SAPS   C26 7925   6.974   2.800  10.510  0.1089 -0.0458  0.3011
   84SAPS   H6R 7926   6.886   2.848  10.465 -2.2306 -2.3778  2.0510
   84SAPS   C27 7927   7.077   2.751  10.409  0.1835 -0.7714 -0.1715
   84SAPS   H7R 7928   7.148   2.687  10.466  0.4753 -2.1169 -1.9587
   84SAPS   H7S 7929   7.136   2.836  10.370 -2.2644 -0.0141 -2.5399
   84SAPS   C28 7930   7.021   2.668  10.303 -0.8209  0.4388 -0.2253
   84SAPS   H8R 7931   7.062   2.566  10.309  2.4452  1.5422 -1.4675
   84SAPS   C29 7932   6.947   2.712  10.196 -0.9924 -0.2299 -0.4377
   84SAPS   H9R 7933   6.931   2.644  10.111  0.2218 -2.3598  0.9640
   84SAPS  C210 7934   6.904   2.855  10.175  0.1795  0.0277 -0.4573
   84SAPS  H10R 7935   6.961   2.889  10.086 -0.5758  1.0999 -0.5526
   84SAPS  H10S 7936   6.924   2.928  10.257 -0.4493 -0.2037 -0.0875
   84SAPS  C211 7937   6.761   2.875  10.134 -0.0034  0.3886  0.2453
   84SAPS  H11R 7938   6.684   2.879  10.213 -0.7809  2.7103 -0.5239
   84SAPS  C212 7939   6.720   2.862  10.010  0.6521  0.0848  0.0211
   84SAPS  H12R 7940   6.614   2.876   9.985  0.8286 -0.5839 -1.1470
   84SAPS  C213 7941   6.797   2.829   9.876  0.9788  0.4352 -0.0304
   84SAPS  H13R 7942   6.906   2.847   9.885  1.0887 -0.3607  0.3381
   84SAPS  H13S 7943   6.754   2.909   9.812  2.0592  1.6308  0.6801
   84SAPS  C214 7944   6.776   2.696   9.817  0.1252 -0.1434  0.2652
   84SAPS  H14R 7945   6.719   2.623   9.877  0.3460 -1.1286 -0.6905
   84SAPS  C215 7946   6.829   2.660   9.696  0.4867 -0.5997 -0.3493
   84SAPS  H15R 7947   6.828   2.553   9.673 -1.3806 -0.2705 -2.0812
   84SAPS  C216 7948   6.906   2.750   9.602 -0.3639  0.0992  0.1372
   84SAPS  H16R 7949   7.016   2.743   9.610 -0.3711  1.2249  1.5008
   84SAPS  H16S 7950   6.890   2.858   9.622  0.5803  0.3389 -0.3599
   84SAPS  C217 7951   6.870   2.728   9.451 -0.7771  0.3518  0.1246
   84SAPS  H17R 7952   6.875   2.825   9.399 -3.1818 -0.5065 -1.9318
   84SAPS  H17S 7953   6.768   2.685   9.441 -1.7251  1.9966  1.9910
   84SAPS  C218 7954   6.970   2.628   9.398 -0.2046 -0.4715 -0.1401
   84SAPS  H18R 7955   6.978   2.532   9.454 -0.6024 -2.0757 -2.6490
   84SAPS  H18S 7956   7.075   2.664   9.407 -0.0688 -0.9974  0.4722
   84SAPS  C219 7957   6.946   2.596   9.244 -0.1432  0.1083 -0.2598
   84SAPS  H19R 7958   6.935   2.685   9.179  1.8405 -0.9255 -2.1212
   84SAPS  H19S 7959   6.845   2.554   9.260  0.4691 -0.5482  2.4065
   84SAPS  C220 7960   7.040   2.495   9.178 -0.0916  0.3962 -0.5574
   84SAPS  H20R 7961   7.013   2.480   9.072 -0.2136  1.0559 -0.6245
   84SAPS  H20S 7962   7.042   2.403   9.240  0.6421  1.7898  1.6062
   84SAPS  H20T 7963   7.146   2.529   9.176  0.7096 -1.8930  0.1147
   84SAPS   C33 7964   6.799   2.386  10.413 -0.5805 -0.4115 -0.0196
   84SAPS   H3X 7965   6.902   2.382  10.372 -1.1871 -0.7897 -1.5830
   84SAPS   H3Y 7966   6.778   2.472  10.480 -2.0436 -0.0042 -0.9624
   84SAPS   C34 7967   6.725   2.407  10.277 -0.0932  0.0062  0.2235
   84SAPS   H4X 7968   6.726   2.514  10.246  0.8899  0.1452  0.7143
   84SAPS   H4Y 7969   6.617   2.385  10.292  0.2915 -1.1625  1.4147
   84SAPS   C35 7970   6.771   2.317  10.160 -0.4163  0.2120  0.1177
   84SAPS   H5X 7971   6.774   2.210  10.191  0.6821 -1.2376 -4.3597
   84SAPS   H5Y 7972   6.877   2.345  10.140  0.4752 -1.6368  1.7591
   84SAPS   C36 7973   6.691   2.329  10.032 -0.1742  0.1435 -0.2206
   84SAPS   H6X 7974   6.673   2.439  10.025  0.9351  0.2153 -3.3732
   84SAPS   H6Y 7975   6.601   2.270  10.058 -0.5111  1.5539  2.1186
   84SAPS   C37 7976   6.751   2.288   9.895  0.6787 -0.3469 -0.2367
   84SAPS   H7X 7977   6.823   2.204   9.905  3.6377  2.1275  1.0441
   84SAPS   H7Y 7978   6.814   2.377   9.869 -1.4208  2.1682  2.6083
   84SAPS   C38 7979   6.645   2.260   9.793  0.4960 -0.7820 -0.2104
   84SAPS   H8X 7980   6.557   2.327   9.785  0.3473 -1.0141 -0.5453
   84SAPS   H8Y 7981   6.610   2.162   9.832 -0.1395 -0.2468  0.5672
   84SAPS   C39 7982   6.697   2.243   9.652 -0.2531  0.8270  0.3835
   84SAPS   H9X 7983   6.774   2.166   9.630  0.8536  2.1692 -0.7275
   84SAPS   H9Y 7984   6.753   2.338   9.636  0.5499  0.0023 -2.2179
   84SAPS  C310 7985   6.584   2.234   9.540  0.6249  0.4675  0.1025
   84SAPS  H10X 7986   6.502   2.302   9.569  0.3971  1.8934 -3.4816
   84SAPS  H10Y 7987   6.562   2.125   9.530 -0.0983  0.0896  4.1209
   84SAPS  C311 7988   6.637   2.275   9.406 -0.0513 -0.3088  0.2557
   84SAPS  H11X 7989   6.736   2.228   9.394 -0.3589 -0.8106 -0.3628
   84SAPS  H11Y 7990   6.661   2.384   9.403 -0.8589 -0.1476 -1.2757
   84SAPS  C312 7991   6.544   2.251   9.282  0.3409  0.6649  0.7881
   84SAPS  H12X 7992   6.447   2.304   9.284  0.7090  1.3554  2.2985
   84SAPS  H12Y 7993   6.523   2.142   9.280  0.2026  0.7045 -1.1521
   84SAPS  C313 7994   6.610   2.296   9.148  0.4428 -0.1090  0.3797
   84SAPS  H13X 7995   6.636   2.404   9.152 -0.6457  0.1363  1.1949
   84SAPS  H13Y 7996   6.526   2.288   9.076  0.9310 -1.3897 -0.0774
   84SAPS  C314 7997   6.731   2.217   9.099 -0.0112  1.3206  0.1427
   84SAPS  H14X 7998   6.694   2.114   9.082  0.3699  1.1685  0.2510
   84SAPS  H14Y 7999   6.811   2.216   9.175  0.8190 -1.8694 -0.6363
   84SAPS  C315 8000   6.780   2.269   8.972 -0.4362 -0.2724  0.8897
   84SAPS  H15X 8001   6.807   2.376   8.986  0.0590 -0.5735  2.3647
   84SAPS  H15Y 8002   6.710   2.258   8.886  0.6671 -0.0269 -0.0684
   84SAPS  C316 8003   6.918   2.215   8.930  0.4290  0.2094 -0.0609
   84SAPS  H16X 8004   6.910   2.104   8.925  1.6434  0.0360  1.1036
   84SAPS  H16Y 8005   6.994   2.232   9.010 -0.4437 -1.8981  1.3105
   84SAPS  C317 8006   6.958   2.291   8.797  0.1300  0.5369 -1.2028
   84SAPS  H17X 8007   6.939   2.398   8.821 -0.2200 -0.1261  1.9367
   84SAPS  H17Y 8008   6.891   2.257   8.715  1.1235  1.3886 -2.4179
   84SAPS  C318 8009   7.104   2.255   8.764 -0.0361 -0.4599  0.4524
   84SAPS  H18X 8010   7.132   2.291   8.663 -3.5971 -0.6391 -0.7354
   84SAPS  H18Y 8011   7.129   2.147   8.774  4.0493  0.1498 -1.3729
   84SAPS  H18Z 8012   7.175   2.302   8.835 -1.8749  2.9717  0.2343
   85SAPS     N 8013   5.629   4.043  11.534 -0.0057 -0.6800  0.2981
   85SAPS   HN1 8014   5.577   4.031  11.623 -0.9988 -0.0914 -0.1811
   85SAPS   HN2 8015   5.717   3.987  11.534  1.2267  1.1388 -1.2521
   85SAPS   HN3 8016   5.639   4.144  11.514 -0.8491 -0.5320  0.5664
   85SAPS   C12 8017   5.529   3.998  11.424 -0.3527  0.4882 -0.0899
   85SAPS  H12A 8018   5.582   3.940  11.350 -0.5914  0.5458 -0.3111
   85SAPS   C13 8019   5.413   3.906  11.467  0.2097 -0.3910  0.3210
   85SAPS  O13A 8020   5.400   3.881  11.588  0.1757 -0.5353 -0.6207
   85SAPS  O13B 8021   5.326   3.871  11.380 -0.2997 -0.5863  0.6198
   85SAPS   C11 8022   5.457   4.131  11.379 -0.6980  0.8093 -0.2228
   85SAPS  H11A 8023   5.402   4.170  11.468 -3.3370 -2.7382 -0.1015
   85SAPS  H11B 8024   5.385   4.106  11.299  0.7262 -0.6224 -1.1199
   85SAPS     P 8025   5.514   4.325  11.228  0.4258 -0.2418  0.3396
   85SAPS   O13 8026   5.371   4.343  11.246 -0.6580 -0.2758  0.4728
   85SAPS   O14 8027   5.597   4.447  11.247  0.0305  0.2460 -0.0486
   85SAPS   O12 8028   5.558   4.219  11.328  1.0379 -0.2074 -0.6503
   85SAPS   O11 8029   5.545   4.256  11.093  0.8885  0.0900 -0.4570
   85SAPS    C1 8030   5.484   4.137  11.050  0.5289  0.3807  0.4549
   85SAPS    HA 8031   5.545   4.051  11.085  0.1994 -0.0191  0.0560
   85SAPS    HB 8032   5.390   4.110  11.103  0.8427  1.4938  1.6448
   85SAPS    C2 8033   5.474   4.133  10.896 -0.2050  0.8302  0.0072
   85SAPS    HS 8034   5.569   4.171  10.852  0.6468 -0.4024  0.7415
   85SAPS   O21 8035   5.354   4.202  10.852 -0.4699 -0.0995 -0.1400
   85SAPS   C21 8036   5.377   4.308  10.791 -0.3944 -0.2955  0.4023
   85SAPS   O22 8037   5.490   4.365  10.785  0.3577 -0.4882  0.7983
   85SAPS   C22 8038   5.251   4.363  10.717 -0.0450  0.1729  0.2410
   85SAPS   H2R 8039   5.179   4.278  10.712 -0.3138  0.1544  2.8520
   85SAPS   H2S 8040   5.219   4.455  10.769 -2.4736  0.6575 -1.9352
   85SAPS    C3 8041   5.461   3.987  10.842  0.2005  0.3888  0.3627
   85SAPS    HX 8042   5.378   3.941  10.901  1.1997 -1.1138  0.6479
   85SAPS    HY 8043   5.550   3.923  10.861  0.0660 -0.7852 -2.4276
   85SAPS   O31 8044   5.442   3.995  10.701 -0.1558  0.0161  0.1644
   85SAPS   C31 8045   5.388   3.893  10.649 -0.3025 -0.5193  0.4150
   85SAPS   O32 8046   5.341   3.793  10.703 -0.2652  0.0633  0.0157
   85SAPS   C32 8047   5.415   3.908  10.499 -0.0546  0.4785  0.4162
   85SAPS   H2X 8048   5.510   3.854  10.481 -0.7479 -0.6963  0.1679
   85SAPS   H2Y 8049   5.441   4.009  10.463 -0.0036  0.7842  1.2946
   85SAPS   C23 8050   5.291   4.418  10.573 -0.6299 -0.2061 -0.0270
   85SAPS   H3R 8051   5.354   4.509  10.587 -2.0375  1.0347 -1.4678
   85SAPS   H3S 8052   5.193   4.447  10.530 -1.0334  0.8663  1.5048
   85SAPS   C24 8053   5.376   4.326  10.487 -0.3025 -0.1272  0.4447
   85SAPS   H4R 8054   5.320   4.237  10.451 -0.7764  1.2008 -2.2800
   85SAPS   H4S 8055   5.466   4.297  10.545  1.6869  1.2077 -1.8175
   85SAPS   C25 8056   5.428   4.396  10.363 -0.0070  1.0014 -0.4984
   85SAPS   H5R 8057   5.496   4.478  10.390 -2.3732  3.0573 -0.4739
   85SAPS   C26 8058   5.408   4.366  10.231  0.3528 -0.6323  0.1147
   85SAPS   H6R 8059   5.443   4.443  10.161  2.1460  1.7076  3.3014
   85SAPS   C27 8060   5.334   4.256  10.170 -0.3239 -0.3314 -0.3786
   85SAPS   H7R 8061   5.312   4.185  10.253 -2.2031  0.9564  0.2863
   85SAPS   H7S 8062   5.403   4.195  10.108  0.7156 -0.2692  0.6718
   85SAPS   C28 8063   5.200   4.291  10.108  0.2365 -0.1870 -0.1676
   85SAPS   H8R 8064   5.132   4.327  10.185  2.3162 -2.2087  2.8299
   85SAPS   C29 8065   5.152   4.261   9.988  0.5613  0.9535  0.5404
   85SAPS   H9R 8066   5.060   4.308   9.951  1.1646  0.9663 -1.0324
   85SAPS  C210 8067   5.227   4.184   9.883 -0.8853 -0.3906  0.3707
   85SAPS  H10R 8068   5.314   4.237   9.839 -0.4510 -2.2070 -1.0449
   85SAPS  H10S 8069   5.158   4.174   9.797  0.7805 -1.0383 -0.9456
   85SAPS  C211 8070   5.252   4.037   9.926 -0.3100 -0.0844  0.5310
   85SAPS  H11R 8071   5.155   3.989   9.941 -0.4465 -0.1478 -0.4940
   85SAPS  C212 8072   5.369   3.959   9.959 -0.2758 -0.1256  0.4845
   85SAPS  H12R 8073   5.351   3.861  10.006 -0.4619 -0.0941  0.4807
   85SAPS  C213 8074   5.519   4.002   9.938 -0.3516  0.4785 -0.5386
   85SAPS  H13R 8075   5.570   4.028  10.033 -0.7281  0.6511 -0.3802
   85SAPS  H13S 8076   5.517   4.097   9.880 -2.9296  0.0871 -1.2540
   85SAPS  C214 8077   5.589   3.898   9.860  0.5795  0.8727  0.5628
   85SAPS  H14R 8078   5.574   3.886   9.752 -1.0992  1.5788  0.6948
   85SAPS  C215 8079   5.702   3.830   9.910  0.9043 -0.2401  0.9538
   85SAPS  H15R 8080   5.748   3.753   9.847 -2.2459 -0.9411 -0.6995
   85SAPS  C216 8081   5.763   3.841  10.057  0.4456  0.1015  0.6753
   85SAPS  H16R 8082   5.809   3.942  10.061 -0.4773  0.5798 -0.2394
   85SAPS  H16S 8083   5.848   3.769  10.059 -1.4680 -2.3217  1.0428
   85SAPS  C217 8084   5.674   3.824  10.181  0.2893 -0.7005  0.2388
   85SAPS  H17R 8085   5.594   3.902  10.186  1.2353  0.2461  0.8564
   85SAPS  H17S 8086   5.737   3.818  10.272  0.1126  1.0960  0.5152
   85SAPS  C218 8087   5.607   3.687  10.175  0.4243 -0.3445 -0.6627
   85SAPS  H18R 8088   5.563   3.679  10.073  1.0757 -0.7740 -0.9184
   85SAPS  H18S 8089   5.529   3.676  10.253 -1.0973  1.5017 -1.8483
   85SAPS  C219 8090   5.700   3.568  10.183  0.2168 -0.3025  0.3784
   85SAPS  H19R 8091   5.761   3.568  10.276  0.9006 -0.4420 -0.0608
   85SAPS  H19S 8092   5.779   3.577  10.106  1.4453  0.9744  1.7271
   85SAPS  C220 8093   5.620   3.443  10.174 -0.9333  0.7462  0.4849
   85SAPS  H20R 8094   5.571   3.425  10.273  0.7276 -2.6268  0.8234
   85SAPS  H20S 8095   5.684   3.353  10.170  0.9066  1.8286  2.6385
   85SAPS  H20T 8096   5.549   3.448  10.089 -1.3684 -1.0506  0.7154
   85SAPS   C33 8097   5.303   3.841  10.413 -0.6538  0.8062  0.0897
   85SAPS   H3X 8098   5.280   3.738  10.448  0.3815  0.8653  1.0166
   85SAPS   H3Y 8099   5.341   3.826  10.310 -0.2036 -4.4447  0.7756
   85SAPS   C34 8100   5.183   3.931  10.423  0.6408 -0.3952  0.0864
   85SAPS   H4X 8101   5.198   4.038  10.401 -4.2538  0.9097  1.7740
   85SAPS   H4Y 8102   5.146   3.927  10.528  0.0691 -0.7535 -0.1180
   85SAPS   C35 8103   5.069   3.877  10.331  0.2872 -0.2397  0.3877
   85SAPS   H5X 8104   5.062   3.768  10.346 -1.1814 -0.0258  1.5423
   85SAPS   H5Y 8105   5.117   3.889  10.232 -1.5043  1.5222 -0.3374
   85SAPS   C36 8106   4.931   3.953  10.337  0.4479 -0.5669  0.1504
   85SAPS   H6X 8107   4.961   4.060  10.329 -1.9715  0.1670 -0.0592
   85SAPS   H6Y 8108   4.881   3.942  10.435  2.6826  0.7590  1.5319
   85SAPS   C37 8109   4.836   3.934  10.210 -0.0427 -0.0634 -0.1262
   85SAPS   H7X 8110   4.734   3.977  10.219  0.1126  0.2322  0.2541
   85SAPS   H7Y 8111   4.825   3.824  10.198  3.2906 -0.4986 -0.1150
   85SAPS   C38 8112   4.899   3.978  10.076 -0.4092  0.5474  0.3212
   85SAPS   H8X 8113   5.001   3.933  10.071 -0.2464  0.9780 -0.5032
   85SAPS   H8Y 8114   4.932   4.084  10.085  1.1322  0.2947 -1.5632
   85SAPS   C39 8115   4.820   3.928   9.960  0.3547  0.7436 -0.9387
   85SAPS   H9X 8116   4.713   3.940   9.988  0.7419  0.5820  0.7461
   85SAPS   H9Y 8117   4.837   3.819   9.943  1.2561  0.9789 -1.6130
   85SAPS  C310 8118   4.828   4.013   9.836 -0.5836  0.6894  0.1331
   85SAPS  H10X 8119   4.937   4.032   9.829 -0.0051 -2.4697 -1.2643
   85SAPS  H10Y 8120   4.766   4.103   9.854 -2.7843 -0.8067  0.4514
   85SAPS  C311 8121   4.767   3.949   9.720 -0.0199 -0.1034  0.0465
   85SAPS  H11X 8122   4.660   3.919   9.730  0.6140 -2.1708  1.3293
   85SAPS  H11Y 8123   4.817   3.850   9.711 -2.0226 -1.0701 -1.1954
   85SAPS  C312 8124   4.778   4.037   9.593 -0.0677 -0.3194  0.6132
   85SAPS  H12X 8125   4.714   4.126   9.612 -0.2549 -0.5144  0.8846
   85SAPS  H12Y 8126   4.749   3.988   9.497  1.1564  1.1551 -0.5758
   85SAPS  C313 8127   4.917   4.103   9.577  0.5971  0.8667  0.0530
   85SAPS  H13X 8128   4.991   4.020   9.587 -0.1625 -0.0914 -1.8138
   85SAPS  H13Y 8129   4.947   4.179   9.652 -1.1478  1.7001 -0.0526
   85SAPS  C314 8130   4.947   4.159   9.434  0.0121  0.4133  0.1048
   85SAPS  H14X 8131   5.054   4.190   9.426 -0.4741  2.0822 -0.2448
   85SAPS  H14Y 8132   4.873   4.240   9.420 -1.1052 -0.5276  0.3582
   85SAPS  C315 8133   4.905   4.054   9.329 -0.4012 -1.0196 -0.1311
   85SAPS  H15X 8134   4.795   4.059   9.324 -0.4416 -2.2557 -0.7861
   85SAPS  H15Y 8135   4.929   3.949   9.357 -2.1183 -1.3871  0.0770
   85SAPS  C316 8136   4.956   4.083   9.190  0.1236  0.1432 -0.0127
   85SAPS  H16X 8137   5.066   4.096   9.179 -0.0301  2.0076  0.2335
   85SAPS  H16Y 8138   4.907   4.176   9.153  0.1401  0.5308  0.9119
   85SAPS  C317 8139   4.906   3.977   9.090 -0.1315  0.1417 -0.1103
   85SAPS  H17X 8140   4.867   4.029   9.000  1.4652  0.5029 -0.6219
   85SAPS  H17Y 8141   4.824   3.922   9.141 -0.5854 -1.2198 -2.1778
   85SAPS  C318 8142   5.019   3.880   9.050 -0.8642 -0.3146 -0.0533
   85SAPS  H18X 8143   4.991   3.834   8.953  0.5568  0.6526 -0.9790
   85SAPS  H18Y 8144   5.038   3.799   9.123  2.2903 -1.4173 -1.9063
   85SAPS  H18Z 8145   5.119   3.929   9.041 -0.7715 -0.6066 -0.6820
   86SAPS     N 8146   0.718   5.369  10.738  0.8270 -0.2869 -0.1044
   86SAPS   HN1 8147   0.750   5.299  10.668 -1.3763  0.0245 -1.4968
   86SAPS   HN2 8148   0.614   5.360  10.733  0.6089  1.7576  0.0254
   86SAPS   HN3 8149   0.757   5.464  10.720  1.1603 -0.3865  0.0806
   86SAPS   C12 8150   0.742   5.330  10.887  0.4004  0.3085  0.0667
   86SAPS  H12A 8151   0.849   5.331  10.901  0.2684 -1.2994  1.4275
   86SAPS   C13 8152   0.681   5.415  11.001  0.6560 -0.8050  0.0021
   86SAPS  O13A 8153   0.638   5.534  10.976  0.1566 -0.2701 -0.2420
   86SAPS  O13B 8154   0.741   5.403  11.110  0.0283  0.0116  0.0163
   86SAPS   C11 8155   0.686   5.181  10.915  0.6152 -0.5192  0.0947
   86SAPS  H11A 8156   0.683   5.142  11.019 -3.5322 -0.9567 -0.0205
   86SAPS  H11B 8157   0.755   5.108  10.869 -1.2527 -2.7101  0.5931
   86SAPS     P 8158   0.475   5.030  10.876 -0.0285 -0.0477 -0.2750
   86SAPS   O13 8159   0.498   4.971  11.011 -0.0526 -0.3071 -0.7591
   86SAPS   O14 8160   0.331   5.054  10.845  0.2767  0.0390  0.3020
   86SAPS   O12 8161   0.556   5.163  10.864  0.0235 -0.9499 -0.4095
   86SAPS   O11 8162   0.544   4.934  10.769 -0.4083  0.3365  0.0905
   86SAPS    C1 8163   0.576   4.974  10.636  0.1711 -0.1276  0.6603
   86SAPS    HA 8164   0.514   4.918  10.563  0.2128 -1.3581  1.5298
   86SAPS    HB 8165   0.564   5.082  10.614 -2.7036 -0.1644  1.6437
   86SAPS    C2 8166   0.721   4.934  10.610 -0.1058  0.3673 -0.0525
   86SAPS    HS 8167   0.790   4.974  10.687  1.4061 -0.2093 -1.0586
   86SAPS   O21 8168   0.759   4.984  10.478  0.9218 -0.0716 -0.3675
   86SAPS   C21 8169   0.777   5.114  10.459 -0.2072  0.2773 -0.5336
   86SAPS   O22 8170   0.764   5.198  10.545 -0.2170  0.0772 -0.2477
   86SAPS   C22 8171   0.811   5.141  10.311 -0.4179 -0.2439 -0.5866
   86SAPS   H2R 8172   0.914   5.180  10.321 -1.2022  1.4551  2.1228
   86SAPS   H2S 8173   0.814   5.040  10.265 -0.8416 -0.2261 -0.6605
   86SAPS    C3 8174   0.732   4.775  10.614 -0.3906 -0.1738  0.2827
   86SAPS    HX 8175   0.683   4.746  10.709  1.8731 -0.0385  1.5665
   86SAPS    HY 8176   0.842   4.763  10.617 -0.0881  2.1514  2.2385
   86SAPS   O31 8177   0.675   4.710  10.494 -0.2616 -0.0277  0.2147
   86SAPS   C31 8178   0.759   4.706  10.397  0.1244  0.4125 -0.7184
   86SAPS   O32 8179   0.873   4.749  10.387 -0.3386  0.1097 -0.2901
   86SAPS   C32 8180   0.686   4.635  10.281 -0.0735 -0.3342 -0.2189
   86SAPS   H2X 8181   0.577   4.650  10.299  0.0155  0.8167 -0.5313
   86SAPS   H2Y 8182   0.714   4.529  10.292 -1.0483 -0.5274  0.4986
   86SAPS   C23 8183   0.720   5.245  10.242  1.1279 -0.1652  0.1791
   86SAPS   H3R 8184   0.771   5.276  10.149  0.5588 -1.3271 -0.5461
   86SAPS   H3S 8185   0.715   5.334  10.308  1.6104  0.2632 -0.3549
   86SAPS   C24 8186   0.583   5.190  10.195  0.4809 -0.3720 -0.1460
   86SAPS   H4R 8187   0.590   5.092  10.145  1.4340 -0.2804 -0.2202
   86SAPS   H4S 8188   0.526   5.264  10.135 -1.5260  1.2869  3.4356
   86SAPS   C25 8189   0.490   5.177  10.320 -0.6033 -0.1123 -0.5935
   86SAPS   H5R 8190   0.502   5.266  10.384 -2.1410  0.3397 -0.9131
   86SAPS   C26 8191   0.406   5.078  10.353  0.0606 -0.2527  0.0027
   86SAPS   H6R 8192   0.339   5.096  10.438  0.4364  0.2027  0.2059
   86SAPS   C27 8193   0.369   4.952  10.276  0.4183 -0.4291 -0.4953
   86SAPS   H7R 8194   0.410   4.864  10.331 -0.0525  0.8989  2.1407
   86SAPS   H7S 8195   0.426   4.945  10.181  2.4409  1.6138  0.4728
   86SAPS   C28 8196   0.224   4.945  10.252  0.1919 -1.3735  0.1186
   86SAPS   H8R 8197   0.148   4.956  10.330 -0.7638  0.0296 -0.9696
   86SAPS   C29 8198   0.162   4.940  10.128 -0.2039  0.4188  0.1161
   86SAPS   H9R 8199   0.054   4.930  10.114 -0.3272  1.2557  0.4454
   86SAPS  C210 8200   0.241   4.938   9.993 -0.1374 -0.1288 -0.7850
   86SAPS  H10R 8201   0.178   4.908   9.906 -1.0192  0.6398 -0.4384
   86SAPS  H10S 8202   0.313   4.854   9.997 -0.9513 -0.8060  2.0653
   86SAPS  C211 8203   0.322   5.062   9.962  0.3780 -0.2117 -0.5239
   86SAPS  H11R 8204   0.329   5.134  10.044 -0.5405  0.8026 -1.3128
   86SAPS  C212 8205   0.366   5.105   9.844  0.4459 -0.7325  0.2784
   86SAPS  H12R 8206   0.403   5.208   9.851  1.1814 -0.9062 -0.9111
   86SAPS  C213 8207   0.353   5.037   9.708 -0.4771 -0.3516 -0.8658
   86SAPS  H13R 8208   0.280   4.955   9.698 -0.9202  0.2019 -2.4529
   86SAPS  H13S 8209   0.453   4.991   9.691  0.2818  0.6489  0.7192
   86SAPS  C214 8210   0.318   5.132   9.597 -0.1695  0.2401  0.0587
   86SAPS  H14R 8211   0.325   5.237   9.629  1.4211 -0.3858  1.9567
   86SAPS  C215 8212   0.265   5.096   9.483 -0.1156 -0.2576  0.5619
   86SAPS  H15R 8213   0.226   5.176   9.418  2.1822  1.9743  1.7683
   86SAPS  C216 8214   0.240   4.956   9.435 -0.7510  0.3901  0.3428
   86SAPS  H16R 8215   0.129   4.950   9.438 -0.8466  1.1009 -0.7465
   86SAPS  H16S 8216   0.289   4.872   9.487 -1.5192  0.4294  1.1606
   86SAPS  C217 8217   0.264   4.937   9.283 -0.0250 -0.3635 -0.0037
   86SAPS  H17R 8218   0.232   5.026   9.224  0.8423  0.0473  0.1298
   86SAPS  H17S 8219   0.202   4.852   9.245  1.7062 -1.5661 -0.2583
   86SAPS  C218 8220   0.410   4.919   9.240 -0.2494  0.6306 -0.0778
   86SAPS  H18R 8221   0.452   4.827   9.285 -1.4712  0.8262  1.5573
   86SAPS  H18S 8222   0.464   4.996   9.300  0.7403  1.7687 -2.2925
   86SAPS  C219 8223   0.444   4.930   9.093 -0.2316  0.1278  0.0308
   86SAPS  H19R 8224   0.547   4.969   9.082 -2.0727  5.3342 -1.9892
   86SAPS  H19S 8225   0.391   5.022   9.061 -0.9239 -0.4635 -0.5761
   86SAPS  C220 8226   0.407   4.806   9.008 -0.3459 -0.3254 -0.1295
   86SAPS  H20R 8227   0.462   4.719   9.051 -0.8435  0.1174  1.4581
   86SAPS  H20S 8228   0.450   4.826   8.908  0.3780  1.2284  0.4535
   86SAPS  H20T 8229   0.297   4.791   9.008 -0.6778  1.4098  2.7812
   86SAPS   C33 8230   0.728   4.697  10.153 -0.0945 -0.1214 -0.0191
   86SAPS   H3X 8231   0.828   4.671  10.111  0.3949  1.4537  0.1372
   86SAPS   H3Y 8232   0.726   4.808  10.157  1.2638 -0.0654 -0.2844
   86SAPS   C34 8233   0.634   4.668  10.033 -0.5325  0.6334 -0.1437
   86SAPS   H4X 8234   0.535   4.698  10.075 -0.8696 -0.9208  0.2534
   86SAPS   H4Y 8235   0.614   4.560  10.018  2.0171  0.4940 -3.8701
   86SAPS   C35 8236   0.670   4.737   9.894 -0.3265  0.0843  0.2190
   86SAPS   H5X 8237   0.769   4.694   9.865 -0.8998 -0.9082 -0.3291
   86SAPS   H5Y 8238   0.688   4.840   9.931  3.1174 -0.7133  1.1614
   86SAPS   C36 8239   0.568   4.739   9.785 -0.0607 -0.1638  0.3788
   86SAPS   H6X 8240   0.583   4.830   9.724 -1.5048  0.0097  0.2382
   86SAPS   H6Y 8241   0.463   4.755   9.820 -0.1895  0.8629 -0.4228
   86SAPS   C37 8242   0.557   4.620   9.694 -0.1440 -0.0446 -0.2693
   86SAPS   H7X 8243   0.493   4.537   9.734 -0.7529  0.5254 -0.0425
   86SAPS   H7Y 8244   0.661   4.583   9.694  0.4033  1.3591  1.7467
   86SAPS   C38 8245   0.512   4.650   9.553  0.3803  0.5751 -0.4337
   86SAPS   H8X 8246   0.571   4.728   9.500  1.4903 -0.5486 -0.8738
   86SAPS   H8Y 8247   0.407   4.687   9.557  0.5776  1.3194 -1.6760
   86SAPS   C39 8248   0.534   4.518   9.471  0.0497 -0.9792 -0.0707
   86SAPS   H9X 8249   0.470   4.444   9.525 -1.8141 -0.1491 -1.0696
   86SAPS   H9Y 8250   0.641   4.489   9.479  0.7819  1.0303 -1.6831
   86SAPS  C310 8251   0.500   4.521   9.325  0.4123  0.1577 -0.2755
   86SAPS  H10X 8252   0.582   4.589   9.292  2.0271 -0.2099  2.6978
   86SAPS  H10Y 8253   0.408   4.578   9.298  0.3729  0.6903  0.9525
   86SAPS  C311 8254   0.493   4.380   9.267 -0.0414  0.1821 -0.0481
   86SAPS  H11X 8255   0.387   4.346   9.269 -0.0506  0.2341  1.2135
   86SAPS  H11Y 8256   0.545   4.312   9.337 -0.9991  0.6448  1.1520
   86SAPS  C312 8257   0.554   4.362   9.127  0.0566  0.0816 -0.0206
   86SAPS  H12X 8258   0.656   4.405   9.119  0.0471  0.0111 -0.5429
   86SAPS  H12Y 8259   0.493   4.423   9.056  0.1452 -0.9757 -1.0415
   86SAPS  C313 8260   0.554   4.224   9.082 -0.3032 -0.0781  0.1613
   86SAPS  H13X 8261   0.449   4.189   9.073 -0.2399  0.1793 -2.1163
   86SAPS  H13Y 8262   0.601   4.157   9.157 -2.1628 -0.5237  0.9645
   86SAPS  C314 8263   0.632   4.200   8.950  0.4451  0.4417  0.0060
   86SAPS  H14X 8264   0.603   4.280   8.879  1.2286  1.3860  0.7165
   86SAPS  H14Y 8265   0.589   4.108   8.905  2.9984 -0.9043  0.1133
   86SAPS  C315 8266   0.780   4.193   8.972 -0.3453  0.4739  0.0231
   86SAPS  H15X 8267   0.807   4.100   9.028 -3.6025 -2.3488 -2.6508
   86SAPS  H15Y 8268   0.814   4.283   9.027 -0.0111 -0.5360  1.5607
   86SAPS  C316 8269   0.867   4.172   8.841  0.0104  0.6533 -0.5544
   86SAPS  H16X 8270   0.824   4.244   8.768  0.1098  1.2376 -0.0468
   86SAPS  H16Y 8271   0.836   4.067   8.818 -1.9179  1.0412  0.0843
   86SAPS  C317 8272   1.015   4.191   8.879  0.1169  0.2518  0.1785
   86SAPS  H17X 8273   1.035   4.108   8.951  0.5874  1.6306  1.7029
   86SAPS  H17Y 8274   1.026   4.281   8.944  4.1829  1.5764 -1.9627
   86SAPS  C318 8275   1.106   4.202   8.764 -0.7722  0.0812  0.2306
   86SAPS  H18X 8276   1.112   4.298   8.708  2.3631 -1.3862 -2.2389
   86SAPS  H18Y 8277   1.079   4.135   8.680 -0.5111  0.7328 -0.3831
   86SAPS  H18Z 8278   1.206   4.165   8.794  0.0012  3.0235  1.6539
   87SAPS     N 8279   0.566   5.788  11.072 -0.0637 -0.1735  0.0921
   87SAPS   HN1 8280   0.605   5.694  11.052 -1.9132 -1.5416  2.2941
   87SAPS   HN2 8281   0.473   5.770  11.117  1.2582 -2.0156  2.3108
   87SAPS   HN3 8282   0.552   5.833  10.979  1.9531  1.4424  0.4991
   87SAPS   C12 8283   0.649   5.874  11.154 -0.3152  0.0756  0.1645
   87SAPS  H12A 8284   0.603   5.970  11.166 -1.5939 -0.4867 -0.0594
   87SAPS   C13 8285   0.666   5.842  11.303 -0.4011 -0.3012 -0.0304
   87SAPS  O13A 8286   0.618   5.731  11.346 -0.0591 -0.3765  0.5492
   87SAPS  O13B 8287   0.734   5.915  11.382  0.5075 -0.9285 -0.0986
   87SAPS   C11 8288   0.787   5.892  11.090 -0.8517  0.2240  0.2515
   87SAPS  H11A 8289   0.832   5.791  11.092 -2.9528 -0.8213 -1.6354
   87SAPS  H11B 8290   0.855   5.952  11.155 -1.9560  2.2408 -0.3648
   87SAPS     P 8291   0.767   6.076  10.910 -0.2372 -0.3379 -0.1013
   87SAPS   O13 8292   0.642   6.080  10.830 -0.0430  0.0256 -0.1522
   87SAPS   O14 8293   0.767   6.156  11.038 -0.7874 -0.2059  0.0992
   87SAPS   O12 8294   0.786   5.928  10.952  0.4933 -0.1560  0.5877
   87SAPS   O11 8295   0.899   6.099  10.824  0.2821 -0.0035  0.0223
   87SAPS    C1 8296   1.023   6.036  10.834  0.1983 -0.6105 -0.1566
   87SAPS    HA 8297   1.092   6.123  10.838  1.6477 -1.7408  0.0127
   87SAPS    HB 8298   1.047   5.992  10.933  0.2794  1.0059  0.5863
   87SAPS    C2 8299   1.042   5.946  10.715  0.2800  0.0846 -0.8471
   87SAPS    HS 8300   1.153   5.935  10.712  0.0701 -4.4387 -0.0618
   87SAPS   O21 8301   0.990   6.004  10.594  0.4178  0.2629  0.2926
   87SAPS   C21 8302   1.073   6.075  10.522 -0.9296 -0.1485 -0.0165
   87SAPS   O22 8303   1.195   6.064  10.528 -0.0930  0.1904 -0.2310
   87SAPS   C22 8304   0.990   6.167  10.428 -0.4956  0.4140 -0.1110
   87SAPS   H2R 8305   0.879   6.161  10.435 -0.3846 -0.0001  2.0975
   87SAPS   H2S 8306   1.020   6.271  10.453 -1.7672  0.6291  0.6457
   87SAPS    C3 8307   0.982   5.800  10.734 -0.1529  0.2563  0.6162
   87SAPS    HX 8308   0.872   5.801  10.750 -0.1587 -4.0343  2.1750
   87SAPS    HY 8309   1.034   5.756  10.822 -0.0504  0.6798  0.7718
   87SAPS   O31 8310   1.020   5.720  10.628 -0.4295  0.3320  0.2331
   87SAPS   C31 8311   0.941   5.621  10.583  0.2997  1.1344 -0.1519
   87SAPS   O32 8312   0.844   5.574  10.642 -0.0546  0.0676 -0.5239
   87SAPS   C32 8313   0.992   5.562  10.459 -0.1914  0.0671  1.3119
   87SAPS   H2X 8314   0.973   5.453  10.462 -0.9048  0.1377  0.0543
   87SAPS   H2Y 8315   1.102   5.574  10.449 -0.4218  0.7329 -1.0090
   87SAPS   C23 8316   1.037   6.130  10.280  0.9533 -0.0803 -0.1710
   87SAPS   H3R 8317   1.148   6.132  10.289  0.9840 -0.6612 -0.3901
   87SAPS   H3S 8318   1.009   6.206  10.203  0.6662  0.2007  0.2109
   87SAPS   C24 8319   0.999   5.996  10.218 -0.2641 -0.0088  0.0210
   87SAPS   H4R 8320   1.029   5.911  10.283 -1.6439 -2.6134 -2.5138
   87SAPS   H4S 8321   1.057   5.975  10.126  0.8564  1.7482  0.2861
   87SAPS   C25 8322   0.851   5.975  10.189  0.1090 -0.6984 -0.0313
   87SAPS   H5R 8323   0.787   5.951  10.276  0.6670  1.9274  1.2043
   87SAPS   C26 8324   0.794   6.002  10.070 -0.0557  0.5582  0.0487
   87SAPS   H6R 8325   0.684   5.997  10.069 -0.0237 -0.6340  0.3763
   87SAPS   C27 8326   0.852   6.064   9.946  0.3925 -0.1119  0.7887
   87SAPS   H7R 8327   0.938   6.122   9.987  0.4549  1.0353 -0.8474
   87SAPS   H7S 8328   0.785   6.136   9.894  1.6165  1.1416  0.8664
   87SAPS   C28 8329   0.914   5.955   9.859  0.9437  0.7782 -0.2585
   87SAPS   H8R 8330   0.998   5.902   9.905  0.6664  1.8929  1.6115
   87SAPS   C29 8331   0.884   5.927   9.731 -0.6145  0.5754 -0.4362
   87SAPS   H9R 8332   0.940   5.849   9.678 -0.2679  0.3906  0.1928
   87SAPS  C210 8333   0.782   5.993   9.641 -0.1699  0.3206  0.0950
   87SAPS  H10R 8334   0.744   6.086   9.687 -0.6862 -0.1294  0.6010
   87SAPS  H10S 8335   0.688   5.935   9.631 -0.1054  0.3017 -0.4152
   87SAPS  C211 8336   0.833   6.032   9.502  0.2731 -0.2684  0.1715
   87SAPS  H11R 8337   0.890   6.125   9.489 -0.4373 -0.1023 -2.3797
   87SAPS  C212 8338   0.811   5.954   9.395 -0.7440  0.0667 -0.2469
   87SAPS  H12R 8339   0.850   5.984   9.297  0.0174 -2.0493 -0.6443
   87SAPS  C213 8340   0.737   5.826   9.393 -0.3782  0.3103  0.6751
   87SAPS  H13R 8341   0.700   5.791   9.491  0.2185 -2.3410  0.0338
   87SAPS  H13S 8342   0.814   5.761   9.347 -0.4943  1.5072 -1.3453
   87SAPS  C214 8343   0.615   5.850   9.310 -0.2095 -0.5148 -0.3491
   87SAPS  H14R 8344   0.540   5.907   9.368  0.0398 -0.1174 -0.4139
   87SAPS  C215 8345   0.595   5.831   9.181  0.1211 -0.1593  0.3628
   87SAPS  H15R 8346   0.501   5.860   9.133 -0.0137 -0.0954  0.6658
   87SAPS  C216 8347   0.698   5.767   9.088  0.9029  0.2465 -0.0984
   87SAPS  H16R 8348   0.677   5.659   9.098  2.2404  0.0869  1.4052
   87SAPS  H16S 8349   0.800   5.780   9.131  0.1849  1.5279  1.3427
   87SAPS  C217 8350   0.696   5.822   8.940 -0.0359 -0.2169 -0.5937
   87SAPS  H17R 8351   0.780   5.772   8.887  0.5708 -1.8846  1.7594
   87SAPS  H17S 8352   0.723   5.930   8.948 -0.3356 -0.1232 -0.8517
   87SAPS  C218 8353   0.570   5.783   8.862  0.2678  0.5833 -0.5431
   87SAPS  H18R 8354   0.480   5.820   8.916 -1.2458 -2.5057 -0.6893
   87SAPS  H18S 8355   0.560   5.672   8.868  2.2295  0.4286  1.0031
   87SAPS  C219 8356   0.567   5.813   8.717 -0.0043  0.2734  0.5605
   87SAPS  H19R 8357   0.608   5.915   8.706 -0.1682  0.1009 -2.4902
   87SAPS  H19S 8358   0.465   5.808   8.675  0.3017 -4.5135 -0.2474
   87SAPS  C220 8359   0.639   5.705   8.625 -0.4402 -0.4755 -0.8892
   87SAPS  H20R 8360   0.747   5.730   8.632 -0.5483  0.8063 -3.0473
   87SAPS  H20S 8361   0.610   5.715   8.518 -1.4468  3.0211 -0.4022
   87SAPS  H20T 8362   0.615   5.600   8.653 -1.4880 -0.2301 -0.8213
   87SAPS   C33 8363   0.925   5.610  10.332  0.2579 -0.5449 -0.1997
   87SAPS   H3X 8364   0.888   5.714  10.347  1.5090 -0.2199  0.7821
   87SAPS   H3Y 8365   0.830   5.553  10.321 -0.0369 -0.2135  0.5852
   87SAPS   C34 8366   1.024   5.634  10.211 -0.3917 -0.8127 -0.5109
   87SAPS   H4X 8367   1.099   5.707  10.248 -0.9300 -0.0451 -0.8987
   87SAPS   H4Y 8368   0.971   5.693  10.133  2.2177  1.7950 -0.4857
   87SAPS   C35 8369   1.096   5.510  10.158  0.0547 -0.1164 -0.4259
   87SAPS   H5X 8370   1.020   5.433  10.135 -1.2356  0.9994 -0.0592
   87SAPS   H5Y 8371   1.177   5.476  10.226  1.6028  0.0859 -2.0909
   87SAPS   C36 8372   1.158   5.538  10.021 -0.6084 -0.2725  0.6762
   87SAPS   H6X 8373   1.228   5.454  10.001  0.2162  0.4886  0.3005
   87SAPS   H6Y 8374   1.208   5.637  10.018 -1.7589  0.3081 -0.6732
   87SAPS   C37 8375   1.052   5.541   9.914 -0.4256  0.0328 -0.0453
   87SAPS   H7X 8376   0.982   5.619   9.950 -0.7236 -0.7380  1.1098
   87SAPS   H7Y 8377   1.000   5.443   9.906  3.6086 -2.2492 -1.1485
   87SAPS   C38 8378   1.118   5.570   9.779  0.0074  0.0445 -0.1881
   87SAPS   H8X 8379   1.210   5.507   9.774  0.4287  0.4250  1.8698
   87SAPS   H8Y 8380   1.157   5.673   9.775 -1.2776  0.5663  0.2907
   87SAPS   C39 8381   1.039   5.546   9.650 -0.0731  0.1006 -0.2714
   87SAPS   H9X 8382   0.956   5.620   9.656  1.0479  1.6306 -2.3647
   87SAPS   H9Y 8383   1.001   5.442   9.638  0.0981  0.0753 -0.6198
   87SAPS  C310 8384   1.137   5.575   9.526  0.8127  0.2138 -0.4837
   87SAPS  H10X 8385   1.202   5.485   9.525  0.4529 -0.0793  0.7207
   87SAPS  H10Y 8386   1.190   5.670   9.550  1.3898  0.4580 -2.5274
   87SAPS  C311 8387   1.057   5.600   9.399 -0.1067 -0.2862 -0.0876
   87SAPS  H11X 8388   1.004   5.698   9.399 -3.3107 -1.8788  0.8570
   87SAPS  H11Y 8389   0.971   5.529   9.398 -2.5954  2.4914 -2.3465
   87SAPS  C312 8390   1.140   5.578   9.269 -0.2103  0.0969  0.2619
   87SAPS  H12X 8391   1.186   5.477   9.269  0.2783  0.2948 -1.0409
   87SAPS  H12Y 8392   1.220   5.655   9.278 -1.6123  1.6187  0.1914
   87SAPS  C313 8393   1.051   5.592   9.147  0.1090 -0.5894  0.0274
   87SAPS  H13X 8394   1.022   5.700   9.150 -1.7665 -1.0531 -0.3380
   87SAPS  H13Y 8395   0.973   5.514   9.153  2.2693 -2.9216 -0.6194
   87SAPS  C314 8396   1.128   5.564   9.020  0.0780  0.9733 -0.6851
   87SAPS  H14X 8397   1.162   5.458   9.023 -2.5394  0.0803  1.1399
   87SAPS  H14Y 8398   1.218   5.629   9.020 -0.3517  1.5996  0.3435
   87SAPS  C315 8399   1.039   5.584   8.893 -0.3229  0.0833 -0.2940
   87SAPS  H15X 8400   1.028   5.688   8.856 -0.6159 -0.6301 -2.3812
   87SAPS  H15Y 8401   0.934   5.558   8.918 -0.1801  1.1225  1.5525
   87SAPS  C316 8402   1.081   5.500   8.774  0.5172  0.1010  0.8339
   87SAPS  H16X 8403   1.069   5.392   8.797  1.4858 -0.8279 -2.4263
   87SAPS  H16Y 8404   1.192   5.505   8.766  0.4692  0.6391  0.4731
   87SAPS  C317 8405   1.003   5.533   8.645  0.4106 -0.3677  0.1694
   87SAPS  H17X 8406   0.893   5.523   8.664  0.8156 -1.6169  2.2608
   87SAPS  H17Y 8407   1.040   5.447   8.586  2.6264  0.0929  0.8070
   87SAPS  C318 8408   1.055   5.663   8.579  0.4473 -0.0848 -0.3252
   87SAPS  H18X 8409   1.024   5.671   8.472  1.1913 -0.4524 -0.5731
   87SAPS  H18Y 8410   1.165   5.677   8.571  0.3287  0.7356 -0.6594
   87SAPS  H18Z 8411   1.030   5.754   8.637 -0.1420 -0.1455 -0.4781
   88SAPS     N 8412   3.721   3.248  11.084  0.1938  0.3691  0.1436
   88SAPS   HN1 8413   3.726   3.348  11.112 -1.1953  0.8349 -1.1603
   88SAPS   HN2 8414   3.793   3.191  11.133 -0.1094  0.5835  0.8585
   88SAPS   HN3 8415   3.730   3.239  10.981 -1.6535  0.3992 -0.0546
   88SAPS   C12 8416   3.588   3.194  11.111  0.2789  0.0164  0.0445
   88SAPS  H12A 8417   3.579   3.180  11.218  3.4303  0.0646  0.4128
   88SAPS   C13 8418   3.480   3.288  11.053  0.5851 -0.9739 -0.4551
   88SAPS  O13A 8419   3.499   3.377  10.964  0.2362  0.1424 -0.2008
   88SAPS  O13B 8420   3.366   3.265  11.091  0.1681 -0.9589  0.0231
   88SAPS   C11 8421   3.570   3.048  11.047 -0.1950 -0.7754 -0.2621
   88SAPS  H11A 8422   3.571   3.066  10.937  5.8770  0.5255 -0.3126
   88SAPS  H11B 8423   3.468   3.022  11.083  0.4713  0.0022  2.4055
   88SAPS     P 8424   3.643   2.807  11.011  0.0085  0.0829 -0.2208
   88SAPS   O13 8425   3.757   2.722  11.041  0.2931  0.6611 -0.0897
   88SAPS   O14 8426   3.509   2.753  11.046 -0.4889 -0.0935 -0.2663
   88SAPS   O12 8427   3.669   2.952  11.075 -0.8178 -0.1111 -0.0764
   88SAPS   O11 8428   3.644   2.836  10.856  0.2593 -0.2211  0.0530
   88SAPS    C1 8429   3.749   2.879  10.776 -0.1054  0.6037 -0.3863
   88SAPS    HA 8430   3.824   2.940  10.831  1.0976 -0.4028 -0.8340
   88SAPS    HB 8431   3.803   2.787  10.744 -1.0875 -0.5042  1.0028
   88SAPS    C2 8432   3.709   2.946  10.641  0.5427 -0.5016  0.3105
   88SAPS    HS 8433   3.631   3.021  10.668  0.3681 -0.7994  0.6455
   88SAPS   O21 8434   3.640   2.834  10.571  0.1260 -0.9196  0.1547
   88SAPS   C21 8435   3.538   2.875  10.495 -0.4483  0.0502  0.3035
   88SAPS   O22 8436   3.498   2.989  10.491 -0.2965 -0.0372 -0.1192
   88SAPS   C22 8437   3.476   2.758  10.421 -0.0277  0.5025  0.0904
   88SAPS   H2R 8438   3.541   2.667  10.421 -1.1156 -0.2919 -0.6144
   88SAPS   H2S 8439   3.379   2.733  10.469 -0.4696 -0.4265 -1.2458
   88SAPS    C3 8440   3.824   3.013  10.555  0.3254  0.9385 -0.2590
   88SAPS    HX 8441   3.886   2.923  10.537 -2.7234 -2.0961  2.9519
   88SAPS    HY 8442   3.891   3.081  10.613 -2.3191  3.1913  0.3617
   88SAPS   O31 8443   3.786   3.071  10.435  0.3442 -0.2787  0.4734
   88SAPS   C31 8444   3.718   3.188  10.454 -1.0451  0.7247  0.3048
   88SAPS   O32 8445   3.706   3.241  10.563  0.4159 -0.4421  0.3789
   88SAPS   C32 8446   3.667   3.245  10.322  0.2333 -0.8489  0.6720
   88SAPS   H2X 8447   3.564   3.276  10.350 -0.4523 -1.6732 -0.8151
   88SAPS   H2Y 8448   3.654   3.162  10.249  0.5691 -0.4064  0.1071
   88SAPS   C23 8449   3.452   2.803  10.280  0.6158  0.8065 -0.1963
   88SAPS   H3R 8450   3.551   2.808  10.230  0.6140 -0.3629 -0.3509
   88SAPS   H3S 8451   3.394   2.898  10.278 -0.0964  0.3931  0.4771
   88SAPS   C24 8452   3.371   2.696  10.194  0.2302  0.0649  0.0315
   88SAPS   H4R 8453   3.316   2.762  10.123  2.1088 -0.0738 -1.6472
   88SAPS   H4S 8454   3.300   2.652  10.268 -0.2958  0.5004 -0.2009
   88SAPS   C25 8455   3.428   2.579  10.121  0.1691  0.1935  0.3024
   88SAPS   H5R 8456   3.495   2.519  10.184 -2.1294 -1.4142  1.3164
   88SAPS   C26 8457   3.394   2.543   9.999  0.0904  0.6379  0.8322
   88SAPS   H6R 8458   3.450   2.463   9.949 -0.1508  0.4204  0.9133
   88SAPS   C27 8459   3.297   2.619   9.911  0.0865  0.2303 -1.1139
   88SAPS   H7R 8460   3.360   2.701   9.871  3.2055 -1.9354 -0.9666
   88SAPS   H7S 8461   3.223   2.668   9.977  0.1055 -1.8949  0.5987
   88SAPS   C28 8462   3.228   2.532   9.814  1.0992  0.1996  0.9812
   88SAPS   H8R 8463   3.169   2.449   9.855 -1.2528  0.4118 -1.6955
   88SAPS   C29 8464   3.220   2.554   9.684  0.3174  0.0276 -0.5872
   88SAPS   H9R 8465   3.162   2.486   9.620 -0.9915  0.3206  0.2556
   88SAPS  C210 8466   3.280   2.664   9.601  0.2789 -0.0526 -0.3701
   88SAPS  H10R 8467   3.293   2.745   9.677  0.5545 -0.8610  0.4719
   88SAPS  H10S 8468   3.201   2.696   9.530 -0.6976 -2.0585 -0.2717
   88SAPS  C211 8469   3.416   2.635   9.531 -0.2107 -0.3109  0.1037
   88SAPS  H11R 8470   3.499   2.662   9.598  0.1522  0.0014 -0.4594
   88SAPS  C212 8471   3.444   2.571   9.414  0.5906 -0.0071 -0.1744
   88SAPS  H12R 8472   3.547   2.555   9.378  0.0413 -3.5317 -0.5529
   88SAPS  C213 8473   3.350   2.493   9.324 -0.6623  0.2956  0.0780
   88SAPS  H13R 8474   3.296   2.425   9.394 -1.3484  0.9789  0.2195
   88SAPS  H13S 8475   3.420   2.430   9.265 -1.1301 -0.6751  0.5412
   88SAPS  C214 8476   3.258   2.585   9.245  0.6846 -0.0139 -0.0828
   88SAPS  H14R 8477   3.196   2.634   9.322  3.2015 -0.5775  2.5100
   88SAPS  C215 8478   3.256   2.594   9.107 -0.5513  0.1786 -0.4348
   88SAPS  H15R 8479   3.195   2.668   9.052 -2.6541  0.4472  2.0269
   88SAPS  C216 8480   3.342   2.507   9.022 -0.4664 -0.1990 -0.2534
   88SAPS  H16R 8481   3.292   2.413   8.991  0.8747 -0.9392 -0.2628
   88SAPS  H16S 8482   3.437   2.478   9.073  0.5012  0.3078 -1.6765
   88SAPS  C217 8483   3.396   2.594   8.902  0.7306 -0.6546  0.4451
   88SAPS  H17R 8484   3.316   2.638   8.839  1.2482  1.8423  1.4468
   88SAPS  H17S 8485   3.450   2.525   8.833  2.1718  0.3068  0.5776
   88SAPS  C218 8486   3.486   2.699   8.949 -0.1628  0.6585  0.0924
   88SAPS  H18R 8487   3.564   2.662   9.020  1.0045  1.6477 -0.6324
   88SAPS  H18S 8488   3.435   2.771   9.016  0.7034  0.6688  0.7736
   88SAPS  C219 8489   3.551   2.785   8.839 -0.5339  0.0014 -0.0930
   88SAPS  H19R 8490   3.597   2.877   8.882  0.6263 -1.2459  1.4718
   88SAPS  H19S 8491   3.467   2.827   8.779 -0.9141 -0.4490  0.1168
   88SAPS  C220 8492   3.651   2.718   8.747  0.0629 -0.3059  0.2580
   88SAPS  H20R 8493   3.677   2.793   8.669 -0.9789 -0.2666 -0.0674
   88SAPS  H20S 8494   3.605   2.628   8.701 -1.1614 -0.6378  2.0277
   88SAPS  H20T 8495   3.741   2.699   8.809  0.1187  1.0197  0.6276
   88SAPS   C33 8496   3.760   3.362  10.265  0.1359 -0.4120  0.5789
   88SAPS   H3X 8497   3.856   3.315  10.234  0.6760 -0.3259  2.0355
   88SAPS   H3Y 8498   3.787   3.442  10.337  2.0422 -1.4912  1.1281
   88SAPS   C34 8499   3.693   3.434  10.133 -0.6699  0.3008 -0.4276
   88SAPS   H4X 8500   3.753   3.526  10.118  2.2519 -1.3115  0.5461
   88SAPS   H4Y 8501   3.588   3.462  10.156 -1.2247 -1.9646  0.1308
   88SAPS   C35 8502   3.695   3.336  10.013  0.3924  0.0936 -0.0119
   88SAPS   H5X 8503   3.642   3.242  10.039 -1.2869  1.6050  2.4132
   88SAPS   H5Y 8504   3.803   3.326   9.987  0.8008  0.6987  1.3624
   88SAPS   C36 8505   3.625   3.396   9.890  0.1680 -0.3106  0.1047
   88SAPS   H6X 8506   3.665   3.499   9.874  0.1720 -0.2991  0.1860
   88SAPS   H6Y 8507   3.519   3.401   9.921 -0.0425 -4.2292  0.5345
   88SAPS   C37 8508   3.626   3.292   9.776  0.0483 -0.0052  0.2365
   88SAPS   H7X 8509   3.577   3.195   9.801 -1.5924  0.7429  0.0403
   88SAPS   H7Y 8510   3.729   3.264   9.746 -0.9571 -1.3574 -2.3039
   88SAPS   C38 8511   3.583   3.353   9.644 -0.1935 -0.8076 -0.9516
   88SAPS   H8X 8512   3.616   3.460   9.642 -2.3666  0.0176  1.9677
   88SAPS   H8Y 8513   3.473   3.367   9.649  0.2048  3.2010  0.6084
   88SAPS   C39 8514   3.633   3.274   9.524 -0.2396  0.0499 -0.0257
   88SAPS   H9X 8515   3.612   3.167   9.540 -0.4474 -0.0729 -1.0295
   88SAPS   H9Y 8516   3.743   3.287   9.511 -0.2173  0.4693  0.5346
   88SAPS  C310 8517   3.566   3.332   9.394  0.6076 -0.5611  0.0440
   88SAPS  H10X 8518   3.605   3.435   9.377  0.4612 -0.7448 -1.5916
   88SAPS  H10Y 8519   3.457   3.337   9.415  1.0530  2.2436  2.3736
   88SAPS  C311 8520   3.602   3.253   9.269  0.0719  0.1955 -0.1128
   88SAPS  H11X 8521   3.577   3.145   9.274 -0.3347  0.3244  1.0599
   88SAPS  H11Y 8522   3.712   3.251   9.253  0.2427  0.2364  0.9826
   88SAPS  C312 8523   3.532   3.290   9.140  0.2318 -0.4837  0.3584
   88SAPS  H12X 8524   3.430   3.331   9.155  1.2525  2.1275  0.6522
   88SAPS  H12Y 8525   3.536   3.201   9.073  2.4051 -0.7725  0.7955
   88SAPS  C313 8526   3.619   3.405   9.073  0.6721 -0.0638  0.2909
   88SAPS  H13X 8527   3.721   3.368   9.048 -0.1162 -1.3667 -1.1775
   88SAPS  H13Y 8528   3.620   3.500   9.129  0.5163  1.2255 -1.7717
   88SAPS  C314 8529   3.548   3.445   8.939 -0.4858  0.3738 -0.8936
   88SAPS  H14X 8530   3.445   3.484   8.953 -0.6038 -0.3656  0.4312
   88SAPS  H14Y 8531   3.544   3.355   8.874  1.5295 -0.6296  0.2623
   88SAPS  C315 8532   3.650   3.554   8.877  0.5657  0.0684  0.4044
   88SAPS  H15X 8533   3.730   3.493   8.831  0.3068  0.5745 -0.7458
   88SAPS  H15Y 8534   3.687   3.624   8.955 -0.5150  1.3194 -0.1658
   88SAPS  C316 8535   3.582   3.631   8.762  0.3344  0.5285 -0.6891
   88SAPS  H16X 8536   3.504   3.558   8.729  0.5360  0.7760 -1.7570
   88SAPS  H16Y 8537   3.662   3.641   8.686  1.3606 -0.3288  0.2486
   88SAPS  C317 8538   3.511   3.770   8.797 -0.4919  1.1017  0.5836
   88SAPS  H17X 8539   3.576   3.832   8.862  0.4779 -0.2722  0.9520
   88SAPS  H17Y 8540   3.419   3.745   8.855 -1.0660  1.6525 -0.0676
   88SAPS  C318 8541   3.472   3.850   8.678 -0.8200 -0.2490 -0.0277
   88SAPS  H18X 8542   3.439   3.950   8.713 -0.5937  1.2273 -3.5959
   88SAPS  H18Y 8543   3.391   3.809   8.614  0.2978 -0.7355 -1.1757
   88SAPS  H18Z 8544   3.561   3.881   8.620 -0.0375  1.2097  1.8691
   89SAPS     N 8545   2.584   6.410  10.992  0.5819  0.3549 -0.2563
   89SAPS   HN1 8546   2.572   6.324  10.934  0.9388  0.7291 -0.8938
   89SAPS   HN2 8547   2.556   6.383  11.089 -1.2911  1.3374 -0.4756
   89SAPS   HN3 8548   2.521   6.488  10.963 -0.8500 -1.0517 -1.1048
   89SAPS   C12 8549   2.719   6.450  11.001 -0.0327  0.9693  0.0889
   89SAPS  H12A 8550   2.734   6.510  10.912 -3.7859  0.2271 -1.2142
   89SAPS   C13 8551   2.766   6.523  11.124 -0.4464  0.1662 -0.0047
   89SAPS  O13A 8552   2.681   6.549  11.212 -0.4944  0.3391 -0.5932
   89SAPS  O13B 8553   2.888   6.545  11.135  0.3725 -0.4210  0.4385
   89SAPS   C11 8554   2.805   6.320  10.961 -0.1459  1.2783  0.3820
   89SAPS  H11A 8555   2.824   6.257  11.051 -0.0462  0.8601  0.0717
   89SAPS  H11B 8556   2.903   6.361  10.929  0.2904  1.2786  1.6590
   89SAPS     P 8557   2.833   6.143  10.764  0.5385  0.2353 -0.2547
   89SAPS   O13 8558   2.922   6.056  10.853 -0.7123 -0.8274  0.7234
   89SAPS   O14 8559   2.733   6.088  10.668  0.2752  0.3555  0.0989
   89SAPS   O12 8560   2.750   6.239  10.858  0.0791  0.8202  0.9226
   89SAPS   O11 8561   2.925   6.243  10.689 -0.1557  0.2902  0.4302
   89SAPS    C1 8562   2.880   6.332  10.589  0.0268 -0.2708 -0.0184
   89SAPS    HA 8563   2.827   6.276  10.509  0.2605 -2.4935  1.3128
   89SAPS    HB 8564   2.816   6.406  10.642  0.2052 -0.6470  0.7416
   89SAPS    C2 8565   3.004   6.405  10.528 -0.3812  1.1357 -0.9742
   89SAPS    HS 8566   2.963   6.503  10.495 -0.2281  1.0584 -1.4040
   89SAPS   O21 8567   3.064   6.329  10.420  0.4386 -0.6624 -0.5934
   89SAPS   C21 8568   2.993   6.331  10.303 -0.0337  0.3169  0.3068
   89SAPS   O22 8569   2.892   6.389  10.281  0.7870  0.0045  0.4694
   89SAPS   C22 8570   3.056   6.223  10.207  0.0144 -0.3537 -0.4670
   89SAPS   H2R 8571   3.146   6.270  10.162  2.4426 -0.7871  3.4151
   89SAPS   H2S 8572   3.101   6.137  10.262 -1.4123 -0.8758 -0.0787
   89SAPS    C3 8573   3.111   6.450  10.623 -0.6074  0.1162 -0.0379
   89SAPS    HX 8574   3.163   6.357  10.657 -0.7390 -0.4981 -1.4552
   89SAPS    HY 8575   3.069   6.509  10.708  0.4573  1.3641 -0.3461
   89SAPS   O31 8576   3.213   6.522  10.559  0.3349 -0.1117 -0.3279
   89SAPS   C31 8577   3.181   6.645  10.532  0.3749  0.6194 -0.2587
   89SAPS   O32 8578   3.071   6.697  10.536  0.2169 -0.2012 -0.3788
   89SAPS   C32 8579   3.311   6.717  10.504 -0.7613 -0.1041 -0.1728
   89SAPS   H2X 8580   3.365   6.660  10.426  0.3782  1.2288 -0.4061
   89SAPS   H2Y 8581   3.373   6.718  10.595 -2.8921 -1.4858  1.3864
   89SAPS   C23 8582   2.961   6.167  10.096  0.1293  0.6365 -0.1643
   89SAPS   H3R 8583   2.932   6.253  10.032 -0.9235  2.6237  2.7891
   89SAPS   H3S 8584   2.874   6.126  10.152  0.2488 -1.6233 -1.4874
   89SAPS   C24 8585   3.032   6.057  10.015 -0.0166  0.0053  0.6672
   89SAPS   H4R 8586   3.067   5.982  10.088  1.2970  0.5637  0.6346
   89SAPS   H4S 8587   3.113   6.112   9.963  1.9484 -1.8898  1.6095
   89SAPS   C25 8588   2.939   5.990   9.927  0.2695 -0.2772  0.9962
   89SAPS   H5R 8589   2.886   5.903   9.968 -3.4094 -0.1504 -2.7338
   89SAPS   C26 8590   2.918   6.023   9.793 -0.2478 -0.7214 -0.9077
   89SAPS   H6R 8591   2.838   5.985   9.727  0.0886  2.5784 -3.4638
   89SAPS   C27 8592   2.992   6.141   9.721  0.0248  0.4727  0.4918
   89SAPS   H7R 8593   3.034   6.097   9.628  0.2242  3.4806 -0.9666
   89SAPS   H7S 8594   3.082   6.172   9.777 -0.5010 -2.0002  2.9535
   89SAPS   C28 8595   2.918   6.263   9.667  0.2369 -0.0269 -1.2869
   89SAPS   H8R 8596   2.921   6.347   9.738 -0.4568 -1.7604  0.8937
   89SAPS   C29 8597   2.857   6.263   9.549 -0.7263 -0.3291 -0.2621
   89SAPS   H9R 8598   2.800   6.356   9.533  0.3594  0.7492  1.7533
   89SAPS  C210 8599   2.852   6.158   9.445  0.6310  0.2935 -0.4577
   89SAPS  H10R 8600   2.748   6.150   9.407  0.2679  2.4989 -0.1014
   89SAPS  H10S 8601   2.872   6.054   9.477 -2.5705 -0.4828 -0.5689
   89SAPS  C211 8602   2.932   6.175   9.308 -0.0051  0.2922 -0.3784
   89SAPS  H11R 8603   3.030   6.125   9.303 -0.5002 -1.0114  1.6467
   89SAPS  C212 8604   2.882   6.235   9.197  0.3608  0.3432 -0.0634
   89SAPS  H12R 8605   2.945   6.237   9.107 -0.6202 -0.8853 -0.8255
   89SAPS  C213 8606   2.746   6.299   9.188  0.4988  0.2757 -0.1071
   89SAPS  H13R 8607   2.706   6.342   9.282  1.0102 -1.5561  0.9854
   89SAPS  H13S 8608   2.676   6.214   9.173  2.0284 -0.8527 -1.1540
   89SAPS  C214 8609   2.718   6.386   9.068  0.5076  0.4589 -0.6893
   89SAPS  H14R 8610   2.762   6.487   9.078 -1.2458  1.2064  0.0783
   89SAPS  C215 8611   2.647   6.368   8.956 -0.3160  0.0859  0.8204
   89SAPS  H15R 8612   2.645   6.447   8.879 -0.3150 -0.9787 -0.2958
   89SAPS  C216 8613   2.574   6.240   8.912 -0.3794  0.1795  0.0672
   89SAPS  H16R 8614   2.529   6.253   8.812  0.4223 -0.3267 -0.3703
   89SAPS  H16S 8615   2.490   6.213   8.980  0.0179 -0.3684  0.3439
   89SAPS  C217 8616   2.671   6.120   8.890 -0.0263  0.2361  0.4746
   89SAPS  H17R 8617   2.706   6.092   8.992  1.4650 -0.2423 -0.1387
   89SAPS  H17S 8618   2.760   6.148   8.831 -0.0732 -0.1527  0.2171
   89SAPS  C218 8619   2.601   6.009   8.812  0.2259  0.0374  0.1696
   89SAPS  H18R 8620   2.548   6.047   8.722  0.1669 -1.0010 -0.2385
   89SAPS  H18S 8621   2.530   5.972   8.889 -1.1831 -1.2132 -1.6480
   89SAPS  C219 8622   2.695   5.887   8.792 -0.4651 -0.2382 -0.1154
   89SAPS  H19R 8623   2.782   5.922   8.733 -1.0893  2.4445  0.3909
   89SAPS  H19S 8624   2.637   5.812   8.735 -0.4941  0.2935 -0.7983
   89SAPS  C220 8625   2.738   5.826   8.926 -1.2256  0.4755  0.2498
   89SAPS  H20R 8626   2.821   5.758   8.897  0.5622  2.6401  0.0832
   89SAPS  H20S 8627   2.662   5.760   8.974  1.5923 -2.2913  1.2638
   89SAPS  H20T 8628   2.776   5.895   9.005  0.3240 -1.5862  1.4077
   89SAPS   C33 8629   3.300   6.859  10.455  0.5797 -0.3640 -0.5330
   89SAPS   H3X 8630   3.401   6.903  10.443  0.6269 -0.4597 -0.4832
   89SAPS   H3Y 8631   3.232   6.915  10.523 -0.1462  0.1054 -1.6173
   89SAPS   C34 8632   3.251   6.884  10.306 -0.2893 -0.8602 -0.8748
   89SAPS   H4X 8633   3.225   6.991  10.293  1.1440 -0.6508 -2.2686
   89SAPS   H4Y 8634   3.172   6.810  10.279 -0.4977 -0.1971 -2.1624
   89SAPS   C35 8635   3.358   6.862  10.198  0.3899 -0.6169  0.7517
   89SAPS   H5X 8636   3.393   6.759  10.218 -0.3226 -0.6645  1.8181
   89SAPS   H5Y 8637   3.441   6.934  10.211  1.3804 -1.6980  0.5540
   89SAPS   C36 8638   3.305   6.862  10.056 -0.0639 -0.2979  0.8667
   89SAPS   H6X 8639   3.230   6.943  10.043  0.1387 -0.1457  0.6383
   89SAPS   H6Y 8640   3.235   6.775  10.055 -0.5863  0.0779  2.4509
   89SAPS   C37 8641   3.404   6.868   9.944  0.8801  0.6742 -0.4712
   89SAPS   H7X 8642   3.472   6.781   9.950 -1.1926 -1.0695 -0.7841
   89SAPS   H7Y 8643   3.463   6.961   9.952  1.1586  0.4457  0.1673
   89SAPS   C38 8644   3.342   6.871   9.812  0.1560  0.7943  0.4736
   89SAPS   H8X 8645   3.266   6.952   9.805 -0.7040 -0.0920 -0.8578
   89SAPS   H8Y 8646   3.291   6.776   9.787  1.2650  0.9069 -2.7397
   89SAPS   C39 8647   3.449   6.890   9.707 -0.1072  0.2128 -0.1514
   89SAPS   H9X 8648   3.527   6.812   9.713 -0.7099 -0.2931  2.5623
   89SAPS   H9Y 8649   3.500   6.988   9.723 -0.4405  0.5577 -1.1377
   89SAPS  C310 8650   3.384   6.897   9.568  0.1698  0.4646 -0.2506
   89SAPS  H10X 8651   3.329   6.993   9.564 -0.7848  0.1052  2.0005
   89SAPS  H10Y 8652   3.318   6.807   9.566  3.5405 -2.2101 -2.9171
   89SAPS  C311 8653   3.484   6.879   9.457 -0.6148 -0.1394  0.6765
   89SAPS  H11X 8654   3.563   6.808   9.491 -0.6109  0.0530  1.0786
   89SAPS  H11Y 8655   3.541   6.974   9.458  1.7160 -1.4757  1.5055
   89SAPS  C312 8656   3.426   6.848   9.323  0.2169 -0.0656  0.1390
   89SAPS  H12X 8657   3.354   6.932   9.315  2.0961  1.5400 -0.8132
   89SAPS  H12Y 8658   3.367   6.754   9.324  2.0921 -1.3037  1.5585
   89SAPS  C313 8659   3.523   6.857   9.202  0.9294  0.2962 -0.9103
   89SAPS  H13X 8660   3.620   6.809   9.228  1.8329  1.6306 -1.7119
   89SAPS  H13Y 8661   3.554   6.960   9.172 -0.3852  0.7301 -0.8396
   89SAPS  C314 8662   3.468   6.780   9.079 -0.1681  0.0535 -0.7179
   89SAPS  H14X 8663   3.359   6.800   9.072 -0.1765  0.8129  0.9578
   89SAPS  H14Y 8664   3.494   6.675   9.103 -2.1258 -0.1773  0.7372
   89SAPS  C315 8665   3.530   6.817   8.947  0.7001 -0.1969  0.3332
   89SAPS  H15X 8666   3.638   6.829   8.973  0.1179  0.1433  2.9538
   89SAPS  H15Y 8667   3.492   6.912   8.904 -0.0592 -1.4927 -1.9704
   89SAPS  C316 8668   3.513   6.724   8.824  0.1175  0.0898 -0.3778
   89SAPS  H16X 8669   3.582   6.743   8.739 -0.4162 -1.5584 -1.2466
   89SAPS  H16Y 8670   3.405   6.730   8.797  0.0013  0.3006  0.1232
   89SAPS  C317 8671   3.540   6.579   8.855  0.0794  0.5180  0.0563
   89SAPS  H17X 8672   3.521   6.513   8.767  0.8213 -1.5105  1.3552
   89SAPS  H17Y 8673   3.472   6.534   8.930 -0.9259  0.1092 -1.0538
   89SAPS  C318 8674   3.687   6.558   8.900  0.9482 -0.0858  0.2262
   89SAPS  H18X 8675   3.694   6.451   8.931  0.6701  0.0037  0.6098
   89SAPS  H18Y 8676   3.712   6.616   8.991  0.2157 -0.0193  0.3896
   89SAPS  H18Z 8677   3.769   6.579   8.828  0.9370  1.6607  0.6860
   90SAPS     N 8678   4.877   5.866  11.129 -0.1092  0.0463 -0.2148
   90SAPS   HN1 8679   4.883   5.822  11.223 -1.7151  0.2731  0.0292
   90SAPS   HN2 8680   4.945   5.826  11.062  0.6854  3.3704 -1.5625
   90SAPS   HN3 8681   4.893   5.969  11.129 -0.9230  0.1900  0.5624
   90SAPS   C12 8682   4.740   5.837  11.066 -0.2829  0.4151 -0.2287
   90SAPS  H12A 8683   4.721   5.731  11.079  1.4698 -0.2573 -2.4294
   90SAPS   C13 8684   4.616   5.906  11.136 -0.4487  0.6257 -0.1488
   90SAPS  O13A 8685   4.633   5.973  11.242 -0.2077 -0.4052 -0.2015
   90SAPS  O13B 8686   4.497   5.871  11.099  0.3383 -0.1029 -0.0080
   90SAPS   C11 8687   4.730   5.856  10.912  0.3444  0.8992  0.2712
   90SAPS  H11A 8688   4.739   5.963  10.887  1.0666  0.6433 -0.5925
   90SAPS  H11B 8689   4.628   5.829  10.876 -0.0102  0.0917  1.7796
   90SAPS     P 8690   4.818   5.630  10.791  0.1607 -0.4041  0.0631
   90SAPS   O13 8691   4.951   5.579  10.767 -0.0765  0.3393 -0.9361
   90SAPS   O14 8692   4.730   5.558  10.887 -0.2042  0.2266 -1.2295
   90SAPS   O12 8693   4.831   5.781  10.845 -0.3137  0.1815 -0.1532
   90SAPS   O11 8694   4.745   5.647  10.653 -0.2250  0.2447  0.6885
   90SAPS    C1 8695   4.783   5.736  10.545  0.1415  0.1075 -0.5174
   90SAPS    HA 8696   4.872   5.798  10.570 -1.6639  2.1499  1.2640
   90SAPS    HB 8697   4.784   5.675  10.452 -2.6085 -0.1810 -0.4455
   90SAPS    C2 8698   4.675   5.846  10.518  0.4237 -0.4559 -0.1130
   90SAPS    HS 8699   4.649   5.899  10.612  2.7540 -1.9022  1.4315
   90SAPS   O21 8700   4.566   5.768  10.471  0.4410  0.0084  0.0105
   90SAPS   C21 8701   4.481   5.725  10.568 -0.4218 -0.0303  0.2832
   90SAPS   O22 8702   4.472   5.770  10.678  0.1919  0.2050 -0.3001
   90SAPS   C22 8703   4.374   5.618  10.512  0.8010  0.5693  0.2740
   90SAPS   H2R 8704   4.432   5.524  10.499 -1.7206 -1.0686  0.1789
   90SAPS   H2S 8705   4.306   5.596  10.598  0.8727 -0.6034  0.0509
   90SAPS    C3 8706   4.716   5.941  10.406 -0.4648 -0.0888  0.0868
   90SAPS    HX 8707   4.796   6.006  10.447 -0.8383 -1.1410  2.6609
   90SAPS    HY 8708   4.625   6.003  10.394 -0.7793 -0.5013  0.3076
   90SAPS   O31 8709   4.746   5.872  10.280  0.4411 -0.4193  0.3547
   90SAPS   C31 8710   4.852   5.918  10.207  0.5581  0.4290  0.2695
   90SAPS   O32 8711   4.916   6.012  10.232 -0.3303 -0.2226  0.2549
   90SAPS   C32 8712   4.872   5.809  10.101  0.4806 -0.1356  0.0522
   90SAPS   H2X 8713   4.771   5.783  10.062 -0.6589  2.6070  0.9170
   90SAPS   H2Y 8714   4.929   5.722  10.140 -2.9457 -1.8068  1.8332
   90SAPS   C23 8715   4.301   5.654  10.379 -0.1463 -0.1622 -0.8397
   90SAPS   H3R 8716   4.377   5.664  10.299 -1.1237  1.6431 -1.5981
   90SAPS   H3S 8717   4.259   5.757  10.382 -0.5412 -0.3129 -1.0709
   90SAPS   C24 8718   4.187   5.560  10.349 -0.5068  0.3521  0.6232
   90SAPS   H4R 8719   4.126   5.600  10.265 -1.1506 -0.2715  0.7763
   90SAPS   H4S 8720   4.126   5.565  10.442 -0.4197  0.4871  0.6722
   90SAPS   C25 8721   4.219   5.416  10.319  0.0816 -1.2278 -0.2447
   90SAPS   H5R 8722   4.279   5.372  10.400 -0.1017 -1.2165 -0.1047
   90SAPS   C26 8723   4.195   5.347  10.206 -1.3882 -0.1766 -0.6821
   90SAPS   H6R 8724   4.224   5.241  10.205 -1.5276 -0.2146 -1.0936
   90SAPS   C27 8725   4.133   5.401  10.079 -0.7367 -0.4305  0.2056
   90SAPS   H7R 8726   4.059   5.479  10.105 -0.2398  0.2174 -0.3008
   90SAPS   H7S 8727   4.074   5.318  10.036 -0.0459 -1.4244  1.0975
   90SAPS   C28 8728   4.238   5.467   9.991  0.7605  0.0230 -0.6415
   90SAPS   H8R 8729   4.334   5.480  10.044  0.3483 -3.5495  1.2712
   90SAPS   C29 8730   4.216   5.485   9.863  0.1118  0.3190 -0.0339
   90SAPS   H9R 8731   4.298   5.525   9.802 -0.4684 -1.2801 -1.9618
   90SAPS  C210 8732   4.089   5.460   9.786 -0.3528  0.4810  0.5588
   90SAPS  H10R 8733   4.069   5.552   9.726  0.8050  0.4864  0.1489
   90SAPS  H10S 8734   4.000   5.437   9.848 -1.5387 -0.9073 -1.5302
   90SAPS  C211 8735   4.131   5.339   9.699 -0.0950  0.3755  0.1393
   90SAPS  H11R 8736   4.149   5.251   9.762 -0.2946  0.7780  0.7754
   90SAPS  C212 8737   4.126   5.316   9.566  0.0766 -0.0694 -0.7917
   90SAPS  H12R 8738   4.172   5.225   9.525 -0.2651 -0.6366  0.0468
   90SAPS  C213 8739   4.083   5.414   9.461  0.1302  0.8217 -0.4555
   90SAPS  H13R 8740   4.164   5.429   9.386  1.1549  2.7873  0.9481
   90SAPS  H13S 8741   4.057   5.512   9.506 -0.7859  0.1895  0.4343
   90SAPS  C214 8742   3.958   5.383   9.377 -0.6261 -0.4414  0.5623
   90SAPS  H14R 8743   3.873   5.334   9.426 -1.2013  1.4754  1.5679
   90SAPS  C215 8744   3.937   5.426   9.243  0.2287  1.0125 -0.4026
   90SAPS  H15R 8745   3.839   5.397   9.202  1.4122 -2.5652 -0.9935
   90SAPS  C216 8746   4.042   5.501   9.168  0.4202 -0.4882  0.0645
   90SAPS  H16R 8747   4.116   5.435   9.119 -0.4114 -0.5917 -1.0903
   90SAPS  H16S 8748   4.083   5.578   9.237 -1.9131  0.2546  0.7522
   90SAPS  C217 8749   3.965   5.585   9.061 -0.2466  0.1083 -0.7775
   90SAPS  H17R 8750   3.895   5.656   9.110 -0.3282  0.0801 -0.8526
   90SAPS  H17S 8751   3.893   5.515   9.013 -2.6513  1.2768  0.9134
   90SAPS  C218 8752   4.045   5.647   8.947 -0.9396 -0.1814  0.6678
   90SAPS  H18R 8753   4.082   5.558   8.893  2.2596  1.8679 -0.8564
   90SAPS  H18S 8754   4.130   5.711   8.980 -1.0617  0.1713  0.3138
   90SAPS  C219 8755   3.973   5.736   8.848  0.2033 -0.2564  0.0985
   90SAPS  H19R 8756   3.933   5.825   8.900  4.0230  2.0911 -0.6076
   90SAPS  H19S 8757   3.889   5.678   8.804  0.0064 -1.2430  1.7025
   90SAPS  C220 8758   4.062   5.797   8.738 -0.0060  0.5436 -0.0151
   90SAPS  H20R 8759   4.003   5.808   8.644  0.9148 -2.4555 -1.0429
   90SAPS  H20S 8760   4.147   5.733   8.708  1.5927  1.6360  1.9182
   90SAPS  H20T 8761   4.105   5.895   8.768 -0.4286  0.0486  2.3869
   90SAPS   C33 8762   4.937   5.864   9.976 -0.1233 -0.3365  0.0221
   90SAPS   H3X 8763   5.041   5.893  10.001  0.0052 -0.7390 -0.0319
   90SAPS   H3Y 8764   4.888   5.952   9.930  0.5766  0.4412  0.7315
   90SAPS   C34 8765   4.946   5.762   9.866 -0.3391  0.2147  0.4080
   90SAPS   H4X 8766   4.845   5.730   9.831 -0.7901  1.5648  0.4326
   90SAPS   H4Y 8767   4.997   5.670   9.900 -1.4352 -0.5675  0.0089
   90SAPS   C35 8768   5.008   5.828   9.742  0.0250 -0.8759 -0.1054
   90SAPS   H5X 8769   5.112   5.865   9.756 -0.5166  1.5105 -1.7374
   90SAPS   H5Y 8770   4.954   5.922   9.716  1.0004 -0.0474  0.7686
   90SAPS   C36 8771   5.013   5.730   9.626  0.0481 -0.2980 -0.5992
   90SAPS   H6X 8772   4.916   5.679   9.609  0.7516 -1.8401 -0.1348
   90SAPS   H6Y 8773   5.079   5.643   9.646  0.1060 -0.3362 -0.9469
   90SAPS   C37 8774   5.056   5.801   9.499 -0.3720  0.0687 -0.6292
   90SAPS   H7X 8775   5.165   5.818   9.507 -0.0574 -1.5259 -1.1247
   90SAPS   H7Y 8776   5.011   5.899   9.475  0.3410  0.2468 -1.2807
   90SAPS   C38 8777   5.040   5.707   9.382  0.0962  0.5417 -0.4682
   90SAPS   H8X 8778   4.946   5.651   9.395 -0.6117  1.7138 -0.3495
   90SAPS   H8Y 8779   5.128   5.640   9.393  0.4812  1.2766  1.4487
   90SAPS   C39 8780   5.055   5.780   9.247 -0.0004  0.4197 -0.2491
   90SAPS   H9X 8781   5.162   5.810   9.244  0.5859 -1.4632  0.1187
   90SAPS   H9Y 8782   4.983   5.865   9.245  0.6473  0.9686 -2.6442
   90SAPS  C310 8783   5.031   5.693   9.129  0.0362  0.6712  0.9738
   90SAPS  H10X 8784   4.927   5.656   9.126 -0.0154  0.8726 -0.5986
   90SAPS  H10Y 8785   5.107   5.614   9.152  1.5281  1.9102  0.5018
   90SAPS  C311 8786   5.051   5.759   8.993  0.0843 -0.4039 -0.6354
   90SAPS  H11X 8787   5.024   5.687   8.913  0.0193  0.6757 -1.6004
   90SAPS  H11Y 8788   5.156   5.794   8.982 -0.1898  0.4255 -0.6621
   90SAPS  C312 8789   4.960   5.879   8.971 -0.8132 -0.0979 -0.4954
   90SAPS  H12X 8790   5.007   5.931   8.885  0.0826 -2.9321 -1.8545
   90SAPS  H12Y 8791   4.951   5.948   9.058 -0.3407  0.0883 -0.5933
   90SAPS  C313 8792   4.816   5.840   8.936  0.2873 -0.0658 -0.0248
   90SAPS  H13X 8793   4.775   5.795   9.029  0.9113 -1.2974 -0.3242
   90SAPS  H13Y 8794   4.805   5.754   8.867 -2.5326 -0.3818  0.6947
   90SAPS  C314 8795   4.733   5.957   8.887  0.0619 -0.0248 -0.2646
   90SAPS  H14X 8796   4.762   5.985   8.783 -1.2605  1.8283 -0.1794
   90SAPS  H14Y 8797   4.747   6.049   8.949 -3.6627  0.8078 -0.4262
   90SAPS  C315 8798   4.580   5.935   8.900  0.0482  0.3377 -0.8450
   90SAPS  H15X 8799   4.517   6.026   8.893 -1.2037 -0.4367 -0.0986
   90SAPS  H15Y 8800   4.570   5.897   9.004  2.6535  1.8761  0.0535
   90SAPS  C316 8801   4.531   5.821   8.812 -0.7856 -0.8238 -0.4235
   90SAPS  H16X 8802   4.426   5.797   8.839 -0.8538  0.7069  0.7873
   90SAPS  H16Y 8803   4.598   5.733   8.825  0.6579  0.3497  0.5098
   90SAPS  C317 8804   4.529   5.861   8.662  0.4762 -0.5693 -0.0840
   90SAPS  H17X 8805   4.623   5.907   8.624 -0.5722  0.4339 -1.5416
   90SAPS  H17Y 8806   4.466   5.952   8.650 -1.2475 -1.6809  0.2192
   90SAPS  C318 8807   4.470   5.756   8.574  0.0246  0.4022  0.2050
   90SAPS  H18X 8808   4.369   5.735   8.617  0.2994 -0.6439  0.3432
   90SAPS  H18Y 8809   4.535   5.667   8.572  0.3635  0.6433  0.4803
   90SAPS  H18Z 8810   4.461   5.796   8.470 -0.2045 -1.1527 -0.3939
   91SAPS     N 8811   3.265   3.427   6.027  0.5270  0.2919 -0.2469
   91SAPS   HN1 8812   3.210   3.497   5.974 -1.8675 -1.2765  0.0278
   91SAPS   HN2 8813   3.194   3.357   6.057  0.0801  0.4706 -0.8700
   91SAPS   HN3 8814   3.309   3.479   6.106  1.8695  2.2023 -2.1452
   91SAPS   C12 8815   3.373   3.382   5.946 -0.2514 -0.4038 -0.2100
   91SAPS  H12A 8816   3.333   3.331   5.861 -0.6503  0.1295 -0.3505
   91SAPS   C13 8817   3.455   3.493   5.877 -0.0583  0.1212 -0.0816
   91SAPS  O13A 8818   3.413   3.607   5.896  0.5412 -0.0073 -0.6869
   91SAPS  O13B 8819   3.542   3.462   5.792  0.7766  0.0979  0.1945
   91SAPS   C11 8820   3.473   3.292   6.029 -0.0788 -0.5406  0.8594
   91SAPS  H11A 8821   3.519   3.344   6.116  2.1115 -0.8814 -0.0377
   91SAPS  H11B 8822   3.562   3.252   5.975  1.2463 -0.6183  2.9569
   91SAPS     P 8823   3.488   3.089   6.182  0.2364  0.3751  0.1048
   91SAPS   O13 8824   3.392   2.981   6.218 -0.4730  0.2043  0.1949
   91SAPS   O14 8825   3.617   3.041   6.123 -0.2456 -0.0428  0.0161
   91SAPS   O12 8826   3.418   3.174   6.073 -0.0500  0.0910 -0.1583
   91SAPS   O11 8827   3.516   3.186   6.301  0.8800 -0.0375  0.0471
   91SAPS    C1 8828   3.395   3.254   6.351 -0.7016  0.2265 -0.3221
   91SAPS    HA 8829   3.360   3.325   6.272 -0.2977 -0.0033 -0.7143
   91SAPS    HB 8830   3.317   3.179   6.373 -0.6620  0.1173 -0.5546
   91SAPS    C2 8831   3.427   3.319   6.484 -0.0220 -0.3342 -0.0249
   91SAPS    HS 8832   3.482   3.413   6.461  1.0980 -1.1209 -0.7052
   91SAPS   O21 8833   3.492   3.228   6.569  0.9994 -0.2654  0.1079
   91SAPS   C21 8834   3.594   3.277   6.641  0.1588  0.2253  0.3354
   91SAPS   O22 8835   3.628   3.396   6.648 -0.2069  0.3019 -0.0491
   91SAPS   C22 8836   3.664   3.154   6.717  0.1197 -0.0936 -0.6497
   91SAPS   H2R 8837   3.585   3.080   6.740 -1.3939  1.1233 -1.7480
   91SAPS   H2S 8838   3.729   3.105   6.640 -2.6226 -0.2562 -3.0284
   91SAPS    C3 8839   3.289   3.367   6.538  0.3379  1.3033  0.5693
   91SAPS    HX 8840   3.213   3.292   6.569  0.7461  1.3715  1.7610
   91SAPS    HY 8841   3.253   3.425   6.450  0.9969  0.1586 -0.4822
   91SAPS   O31 8842   3.306   3.449   6.656 -0.2360 -0.0809 -0.1563
   91SAPS   C31 8843   3.253   3.574   6.657 -0.6765 -0.5534  0.5061
   91SAPS   O32 8844   3.169   3.610   6.577 -0.5885 -0.7568  0.8938
   91SAPS   C32 8845   3.313   3.652   6.772 -0.1344 -0.1025  1.2924
   91SAPS   H2X 8846   3.257   3.747   6.784  0.2318  0.1367  1.1097
   91SAPS   H2Y 8847   3.413   3.685   6.736 -1.8170  1.3540 -2.5333
   91SAPS   C23 8848   3.753   3.183   6.842  0.3106  0.0974 -0.4533
   91SAPS   H3R 8849   3.826   3.261   6.811  0.0591  0.5679  0.1184
   91SAPS   H3S 8850   3.793   3.082   6.867  1.4746  0.7865  0.5656
   91SAPS   C24 8851   3.663   3.239   6.955 -0.7281  0.0189  0.1675
   91SAPS   H4R 8852   3.594   3.317   6.916  0.2281 -0.0934 -1.8712
   91SAPS   H4S 8853   3.735   3.283   7.028  1.0918 -1.6544 -0.5336
   91SAPS   C25 8854   3.581   3.127   7.010  0.0795  0.2269 -0.0634
   91SAPS   H5R 8855   3.500   3.094   6.943  1.2572  0.2797 -1.5752
   91SAPS   C26 8856   3.598   3.055   7.122  0.1204  0.2240  0.5408
   91SAPS   H6R 8857   3.514   2.990   7.151 -1.2159  0.4017 -2.6389
   91SAPS   C27 8858   3.710   3.066   7.220  0.0489  0.2771 -0.1879
   91SAPS   H7R 8859   3.804   3.099   7.171 -0.1431 -0.4732 -1.0951
   91SAPS   H7S 8860   3.733   2.972   7.275  1.3091  1.2924  1.1313
   91SAPS   C28 8861   3.673   3.175   7.320  0.5593 -0.2842 -0.3759
   91SAPS   H8R 8862   3.610   3.257   7.282  0.8033 -0.9396 -2.3616
   91SAPS   C29 8863   3.709   3.183   7.452 -0.3200  1.0685  0.0498
   91SAPS   H9R 8864   3.673   3.257   7.525  1.7656 -0.2365  2.5625
   91SAPS  C210 8865   3.811   3.092   7.518 -0.5346 -0.6099  0.8649
   91SAPS  H10R 8866   3.905   3.151   7.516 -0.7137 -0.3338 -0.0605
   91SAPS  H10S 8867   3.840   3.010   7.448  1.6994 -0.3000  1.3482
   91SAPS  C211 8868   3.771   3.048   7.656 -0.1657 -0.0841 -0.4695
   91SAPS  H11R 8869   3.736   2.944   7.656 -1.5543  0.3617 -1.2880
   91SAPS  C212 8870   3.765   3.120   7.768  0.1912 -0.2901 -0.0621
   91SAPS  H12R 8871   3.719   3.074   7.857 -1.2130  4.0929  1.7426
   91SAPS  C213 8872   3.793   3.270   7.782 -0.1698 -0.0926  0.2732
   91SAPS  H13R 8873   3.703   3.316   7.828 -0.4924 -3.3167  3.3181
   91SAPS  H13S 8874   3.820   3.315   7.684  2.4953 -0.9609  0.5384
   91SAPS  C214 8875   3.912   3.274   7.873 -0.3238 -0.0743 -0.3587
   91SAPS  H14R 8876   3.999   3.221   7.832  1.8532  3.1456 -0.2054
   91SAPS  C215 8877   3.919   3.326   7.998 -0.0558 -0.6621  0.2386
   91SAPS  H15R 8878   4.008   3.311   8.061 -1.0730  0.2725  1.9408
   91SAPS  C216 8879   3.804   3.403   8.062  0.1505 -0.6414 -0.4034
   91SAPS  H16R 8880   3.753   3.351   8.146 -2.8997  2.2454 -0.2693
   91SAPS  H16S 8881   3.719   3.428   7.994  0.0679  2.0733  0.5770
   91SAPS  C217 8882   3.866   3.536   8.104 -0.2308 -0.6844  0.2039
   91SAPS  H17R 8883   3.921   3.584   8.020  3.5126  0.2317  2.9278
   91SAPS  H17S 8884   3.941   3.518   8.185 -0.7676 -0.6663  0.7098
   91SAPS  C218 8885   3.774   3.644   8.169  0.2339 -0.5400  0.5738
   91SAPS  H18R 8886   3.674   3.655   8.121  1.2408 -0.2525 -1.5835
   91SAPS  H18S 8887   3.802   3.751   8.168 -1.4335  0.0576  4.1207
   91SAPS  C219 8888   3.753   3.624   8.321 -0.1205 -0.1699  0.4029
   91SAPS  H19R 8889   3.845   3.600   8.378  1.5400  2.4964 -0.9530
   91SAPS  H19S 8890   3.698   3.528   8.326  0.7848 -0.7769 -0.6288
   91SAPS  C220 8891   3.674   3.739   8.376 -1.2253 -0.1027 -0.4312
   91SAPS  H20R 8892   3.635   3.709   8.476  0.6441 -0.9402  0.1079
   91SAPS  H20S 8893   3.581   3.763   8.321 -0.8835  0.3880 -0.7960
   91SAPS  H20T 8894   3.730   3.835   8.374 -0.6461 -0.4539 -1.7739
   91SAPS   C33 8895   3.316   3.589   6.911 -0.4599  0.3736 -0.1348
   91SAPS   H3X 8896   3.286   3.483   6.898  0.6634 -0.2846  2.1987
   91SAPS   H3Y 8897   3.242   3.632   6.981  0.5219  0.4112  0.9147
   91SAPS   C34 8898   3.451   3.617   6.988  0.0027  0.4444  0.4582
   91SAPS   H4X 8899   3.452   3.722   7.022  0.5229  0.8621 -0.7781
   91SAPS   H4Y 8900   3.523   3.614   6.903 -1.3689  2.2593 -0.8432
   91SAPS   C35 8901   3.472   3.510   7.098 -0.6077  0.1761  0.2179
   91SAPS   H5X 8902   3.583   3.504   7.099 -0.2321  4.3522  0.4785
   91SAPS   H5Y 8903   3.445   3.409   7.061 -2.7882  0.4540  0.9005
   91SAPS   C36 8904   3.406   3.535   7.227 -0.3450 -0.2048  0.0683
   91SAPS   H6X 8905   3.439   3.453   7.295 -0.5275 -2.7528 -2.6688
   91SAPS   H6Y 8906   3.296   3.544   7.215 -0.4708  0.9134  1.7940
   91SAPS   C37 8907   3.450   3.669   7.287 -0.2656 -1.1202  0.1902
   91SAPS   H7X 8908   3.418   3.756   7.226  3.0947  1.1106  1.3419
   91SAPS   H7Y 8909   3.561   3.665   7.288 -0.1806  0.7325  0.7468
   91SAPS   C38 8910   3.398   3.694   7.437 -0.3359 -0.1005 -0.6765
   91SAPS   H8X 8911   3.432   3.795   7.467 -3.4845  0.8141  0.1457
   91SAPS   H8Y 8912   3.453   3.621   7.500  2.2952  1.0511 -1.4934
   91SAPS   C39 8913   3.248   3.682   7.469  0.3520 -0.1073 -0.4133
   91SAPS   H9X 8914   3.203   3.582   7.452 -0.9493  0.1978  0.9736
   91SAPS   H9Y 8915   3.197   3.753   7.400  0.1325  1.5086  1.3242
   91SAPS  C310 8916   3.221   3.725   7.610 -0.0261 -0.2723 -0.1636
   91SAPS  H10X 8917   3.122   3.775   7.620  0.2433  0.0126  1.4058
   91SAPS  H10Y 8918   3.294   3.807   7.628 -0.0612 -0.0818 -0.8537
   91SAPS  C311 8919   3.228   3.616   7.717  0.6025 -0.2004  0.0236
   91SAPS  H11X 8920   3.329   3.569   7.710  1.9028  2.6831 -3.5950
   91SAPS  H11Y 8921   3.152   3.540   7.691 -1.0960  1.6392 -0.6367
   91SAPS  C312 8922   3.191   3.677   7.849 -0.1215  0.0336  0.2323
   91SAPS  H12X 8923   3.174   3.594   7.919 -0.6609 -0.4642 -0.4719
   91SAPS  H12Y 8924   3.099   3.737   7.830 -0.3313 -0.8043 -1.7351
   91SAPS  C313 8925   3.281   3.782   7.918 -0.0161 -0.3936  0.2411
   91SAPS  H13X 8926   3.288   3.876   7.859 -0.0795 -0.7377 -0.3266
   91SAPS  H13Y 8927   3.385   3.743   7.917 -0.2580 -1.1474  1.5409
   91SAPS  C314 8928   3.237   3.797   8.065 -0.4065 -0.7508  0.2650
   91SAPS  H14X 8929   3.335   3.792   8.118  0.2660  1.0403 -0.7556
   91SAPS  H14Y 8930   3.183   3.707   8.101  1.2356 -2.5880 -1.5789
   91SAPS  C315 8931   3.159   3.937   8.108  0.7724  0.1731  0.3588
   91SAPS  H15X 8932   3.050   3.924   8.093  1.0533 -1.5520 -0.4542
   91SAPS  H15Y 8933   3.196   4.017   8.040  2.1984 -1.3174 -0.7251
   91SAPS  C316 8934   3.154   3.964   8.264  0.4000  0.5371 -0.3582
   91SAPS  H16X 8935   3.121   3.874   8.319  2.8229 -0.1670  0.0769
   91SAPS  H16Y 8936   3.072   4.039   8.272  0.2129  0.1668  1.3525
   91SAPS  C317 8937   3.282   4.010   8.332 -0.4114 -0.4667  0.5364
   91SAPS  H17X 8938   3.354   4.080   8.283 -0.5011 -0.1547  0.8482
   91SAPS  H17Y 8939   3.349   3.922   8.341  0.1182 -0.1974 -0.5477
   91SAPS  C318 8940   3.261   4.059   8.471 -0.3438 -0.3265 -0.2889
   91SAPS  H18X 8941   3.223   4.164   8.471  0.5818  0.0202  0.4073
   91SAPS  H18Y 8942   3.354   4.072   8.530 -0.9725  0.9925  0.4726
   91SAPS  H18Z 8943   3.188   3.993   8.522 -2.0682 -0.3206 -2.5944
   92SAPS     N 8944   1.797   1.739   6.212  0.6235  0.3073  0.6432
   92SAPS   HN1 8945   1.747   1.649   6.227 -0.8540  0.9315 -0.3533
   92SAPS   HN2 8946   1.745   1.819   6.253 -1.7027 -0.3539 -0.8392
   92SAPS   HN3 8947   1.801   1.766   6.112  1.9108 -0.3645  0.4897
   92SAPS   C12 8948   1.932   1.721   6.271  0.3075 -0.1449 -0.3856
   92SAPS  H12A 8949   1.995   1.677   6.195  0.4544 -1.2996  0.3857
   92SAPS   C13 8950   2.000   1.857   6.316  0.4448  0.9359 -1.3412
   92SAPS  O13A 8951   1.936   1.963   6.292 -0.4340 -0.3238  0.2956
   92SAPS  O13B 8952   2.118   1.862   6.362  0.6905  0.6021  0.5367
   92SAPS   C11 8953   1.924   1.625   6.395  0.1109  0.4206 -0.0483
   92SAPS  H11A 8954   1.867   1.668   6.480  0.7693  0.4960  0.3598
   92SAPS  H11B 8955   2.030   1.612   6.425  0.0191  0.6405  0.3788
   92SAPS     P 8956   1.741   1.435   6.402  0.4396 -0.5762 -0.3937
   92SAPS   O13 8957   1.641   1.537   6.373  0.4730  0.1870 -0.1999
   92SAPS   O14 8958   1.728   1.305   6.336 -0.5535 -0.6211 -0.2060
   92SAPS   O12 8959   1.883   1.494   6.359  0.4556  1.2467 -0.4244
   92SAPS   O11 8960   1.744   1.415   6.555  0.1053 -0.6520  0.5768
   92SAPS    C1 8961   1.873   1.408   6.611  0.2091 -0.6120  0.3237
   92SAPS    HA 8962   1.953   1.358   6.553 -1.2987 -0.9030 -1.6212
   92SAPS    HB 8963   1.907   1.514   6.620 -2.4254  0.6823 -2.7915
   92SAPS    C2 8964   1.876   1.366   6.756 -1.0175 -0.1994  0.3190
   92SAPS    HS 8965   1.976   1.383   6.801 -1.1604 -0.4931  0.7484
   92SAPS   O21 8966   1.839   1.226   6.773 -0.0497  0.3725 -0.2624
   92SAPS   C21 8967   1.911   1.133   6.722 -0.3735 -0.3567 -0.1305
   92SAPS   O22 8968   2.028   1.147   6.680 -0.8801  0.4066  0.0392
   92SAPS   C22 8969   1.830   1.008   6.730 -0.3762 -0.0017  0.4205
   92SAPS   H2R 8970   1.723   1.033   6.748 -1.3058 -0.9030 -3.1145
   92SAPS   H2S 8971   1.824   0.958   6.631  1.1236  0.3840  0.1156
   92SAPS    C3 8972   1.780   1.449   6.834 -0.5870 -0.0064 -0.5117
   92SAPS    HX 8973   1.675   1.426   6.806 -0.9151  1.5384 -0.6110
   92SAPS    HY 8974   1.792   1.558   6.819  0.1155  0.1442  0.8993
   92SAPS   O31 8975   1.786   1.427   6.978  0.8352  0.2240  0.6634
   92SAPS   C31 8976   1.895   1.463   7.046  0.1177 -0.0203  0.4261
   92SAPS   O32 8977   1.986   1.526   6.998 -0.8129  0.3111  0.2091
   92SAPS   C32 8978   1.894   1.379   7.177 -0.1277 -0.4955  0.0983
   92SAPS   H2X 8979   1.876   1.272   7.151  0.2069 -0.4327 -0.4075
   92SAPS   H2Y 8980   1.806   1.417   7.233  0.3302  1.1295 -0.2439
   92SAPS   C23 8981   1.885   0.903   6.830 -0.2216 -0.1548 -0.0013
   92SAPS   H3R 8982   1.968   0.839   6.795 -0.3698 -0.2636 -0.1590
   92SAPS   H3S 8983   1.800   0.831   6.835 -1.6679  1.4519 -0.3660
   92SAPS   C24 8984   1.926   0.959   6.971  0.4137  0.0873  0.0681
   92SAPS   H4R 8985   1.962   1.063   6.960 -0.6376  0.4654  0.0076
   92SAPS   H4S 8986   2.010   0.895   7.005 -0.2674 -0.3768  0.9130
   92SAPS   C25 8987   1.828   0.965   7.078  0.3280 -0.2791 -0.6029
   92SAPS   H5R 8988   1.741   1.032   7.065  0.7476  0.5721  0.7353
   92SAPS   C26 8989   1.830   0.902   7.198  0.3228  0.3011 -0.3876
   92SAPS   H6R 8990   1.750   0.914   7.272 -1.3010  1.5375 -2.2612
   92SAPS   C27 8991   1.937   0.799   7.236  0.0640  0.0563  0.2410
   92SAPS   H7R 8992   1.953   0.717   7.162 -0.9332 -2.7995  2.9860
   92SAPS   H7S 8993   1.898   0.733   7.316 -0.7279  1.7058  1.2580
   92SAPS   C28 8994   2.076   0.854   7.284 -0.5041  0.6113  0.2717
   92SAPS   H8R 8995   2.160   0.821   7.222 -0.6386  1.4467 -0.3727
   92SAPS   C29 8996   2.100   0.915   7.398  0.2849 -0.6751  1.2819
   92SAPS   H9R 8997   2.205   0.936   7.424 -0.1805  0.9520  1.9154
   92SAPS  C210 8998   2.001   0.955   7.506  0.1754  0.8474  0.8556
   92SAPS  H10R 8999   2.041   0.908   7.598  0.8902  1.2213  0.7468
   92SAPS  H10S 9000   1.903   0.913   7.478  0.5813 -0.3139  1.1168
   92SAPS  C211 9001   1.984   1.101   7.529  0.3680  0.1607 -0.2240
   92SAPS  H11R 9002   1.957   1.151   7.435 -1.1149 -0.6579 -0.2689
   92SAPS  C212 9003   2.009   1.169   7.639  0.7209  0.1628  0.2427
   92SAPS  H12R 9004   1.986   1.277   7.639 -0.6358 -0.0974 -0.5525
   92SAPS  C213 9005   2.054   1.119   7.779  0.4376  0.1391  0.1499
   92SAPS  H13R 9006   2.078   1.210   7.838 -2.8442  3.0796 -2.5948
   92SAPS  H13S 9007   2.144   1.057   7.761  0.4980  0.6416 -1.4530
   92SAPS  C214 9008   1.965   1.024   7.857  0.8132 -0.5226 -1.4236
   92SAPS  H14R 9009   1.928   0.930   7.812 -0.2181 -2.3025  2.7108
   92SAPS  C215 9010   1.909   1.055   7.985  0.4871  0.6914  0.0763
   92SAPS  H15R 9011   1.837   0.981   8.023 -1.1560  1.9895 -0.3858
   92SAPS  C216 9012   1.932   1.170   8.072  0.4653 -1.1493  0.4114
   92SAPS  H16R 9013   1.839   1.229   8.083  1.8210  1.7772 -2.0186
   92SAPS  H16S 9014   2.008   1.240   8.031 -1.4098 -0.0157 -1.3333
   92SAPS  C217 9015   1.970   1.126   8.213  0.0921  0.0127 -0.0504
   92SAPS  H17R 9016   1.906   1.047   8.258  1.4973 -0.6695  0.8407
   92SAPS  H17S 9017   1.964   1.211   8.283  1.0654 -0.3071  0.4528
   92SAPS  C218 9018   2.112   1.067   8.219 -0.6058 -0.3300  0.1301
   92SAPS  H18R 9019   2.192   1.144   8.211 -0.9043  0.3192  2.7096
   92SAPS  H18S 9020   2.129   0.985   8.145 -1.2221 -0.7726  0.4729
   92SAPS  C219 9021   2.141   1.006   8.362 -0.4448 -0.3008  0.6260
   92SAPS  H19R 9022   2.238   0.952   8.365 -0.0129  0.4904  1.2697
   92SAPS  H19S 9023   2.054   0.941   8.389 -1.6557  1.0428  0.0712
   92SAPS  C220 9024   2.149   1.108   8.476 -0.4531  0.0822 -0.5372
   92SAPS  H20R 9025   2.054   1.162   8.494 -2.0623 -3.1724  1.7080
   92SAPS  H20S 9026   2.237   1.175   8.465  1.1384 -1.6085  1.0665
   92SAPS  H20T 9027   2.170   1.051   8.570 -2.7162  1.3250  0.8084
   92SAPS   C33 9028   2.025   1.388   7.261 -0.1371 -0.3150 -0.0404
   92SAPS   H3X 9029   1.992   1.370   7.366  1.1396  0.7773  0.5882
   92SAPS   H3Y 9030   2.060   1.492   7.276  0.3447 -0.3189 -1.1020
   92SAPS   C34 9031   2.148   1.300   7.222  0.0227 -0.1203 -0.4268
   92SAPS   H4X 9032   2.102   1.204   7.191 -1.3539  0.7415 -1.1488
   92SAPS   H4Y 9033   2.218   1.287   7.307 -0.7679 -0.6474  0.1503
   92SAPS   C35 9034   2.223   1.346   7.098  0.0523  0.2472 -0.1325
   92SAPS   H5X 9035   2.249   1.454   7.091  1.1758 -0.0746 -1.1483
   92SAPS   H5Y 9036   2.147   1.340   7.017 -1.0969 -2.0538  1.0093
   92SAPS   C36 9037   2.346   1.261   7.062  0.7931 -0.2227 -0.7759
   92SAPS   H6X 9038   2.423   1.248   7.141  0.4073 -1.5469 -0.5955
   92SAPS   H6Y 9039   2.400   1.329   6.993 -0.4791 -0.7528 -2.3704
   92SAPS   C37 9040   2.318   1.124   7.002  0.3133  0.0004 -0.4209
   92SAPS   H7X 9041   2.275   1.146   6.902 -1.8516  1.4205  0.7505
   92SAPS   H7Y 9042   2.240   1.063   7.051  1.0364  0.9567  2.0922
   92SAPS   C38 9043   2.450   1.041   6.988 -0.0345 -0.2148  0.5153
   92SAPS   H8X 9044   2.517   1.105   6.927  0.0147 -0.9287 -0.2066
   92SAPS   H8Y 9045   2.420   0.955   6.924  0.0718  0.4026 -0.3910
   92SAPS   C39 9046   2.533   0.992   7.114 -0.0952 -0.2489 -0.0220
   92SAPS   H9X 9047   2.600   1.078   7.136  0.2449 -0.0399 -1.7562
   92SAPS   H9Y 9048   2.592   0.903   7.082 -1.3523 -0.6084 -1.4271
   92SAPS  C310 9049   2.456   0.932   7.229 -0.2821  0.0609  0.3947
   92SAPS  H10X 9050   2.367   0.875   7.194 -0.1964 -2.3251  3.5494
   92SAPS  H10Y 9051   2.415   1.015   7.291 -1.6670 -0.3974  0.1244
   92SAPS  C311 9052   2.542   0.841   7.321  0.6100  1.2285  0.3697
   92SAPS  H11X 9053   2.579   0.753   7.265  2.2188  2.4169 -0.5301
   92SAPS  H11Y 9054   2.484   0.816   7.412 -1.2706 -1.3143 -1.4015
   92SAPS  C312 9055   2.665   0.923   7.368 -0.1078 -0.0710  0.2147
   92SAPS  H12X 9056   2.629   1.021   7.404  1.4242  0.6150 -0.0497
   92SAPS  H12Y 9057   2.729   0.934   7.278 -2.3245 -0.9629 -1.5974
   92SAPS  C313 9058   2.759   0.861   7.481 -0.1602  0.1699  0.1001
   92SAPS  H13X 9059   2.848   0.926   7.499  0.7773 -1.0280 -0.0765
   92SAPS  H13Y 9060   2.794   0.764   7.438  2.6407  1.2679 -0.3529
   92SAPS  C314 9061   2.697   0.854   7.618  0.1316  0.3538 -0.0516
   92SAPS  H14X 9062   2.626   0.769   7.624 -0.3058  0.7602  0.6236
   92SAPS  H14Y 9063   2.642   0.947   7.644  1.5089  0.8744  1.1992
   92SAPS  C315 9064   2.799   0.829   7.739 -0.7376  0.2397  0.5363
   92SAPS  H15X 9065   2.859   0.922   7.738  2.3357 -1.4662 -3.1815
   92SAPS  H15Y 9066   2.858   0.741   7.705 -0.8475  0.7325 -1.0455
   92SAPS  C316 9067   2.740   0.794   7.874  0.5268  0.5549  0.3360
   92SAPS  H16X 9068   2.816   0.815   7.952  0.9569 -1.9526  0.6926
   92SAPS  H16Y 9069   2.732   0.683   7.866 -1.3015  0.7278 -0.8173
   92SAPS  C317 9070   2.601   0.866   7.890  0.4198  0.4863 -0.1449
   92SAPS  H17X 9071   2.527   0.803   7.838  1.0904 -2.0989  1.8030
   92SAPS  H17Y 9072   2.606   0.967   7.844 -0.0910  0.6457  0.1432
   92SAPS  C318 9073   2.544   0.885   8.036 -0.5130 -0.4311  0.2959
   92SAPS  H18X 9074   2.548   0.790   8.093 -0.8748 -1.4735 -1.3473
   92SAPS  H18Y 9075   2.443   0.931   8.040  0.2724  1.2999  1.3895
   92SAPS  H18Z 9076   2.616   0.950   8.091  0.8068 -1.5395 -0.0810
   93SAPS     N 9077   2.785   0.842   6.238 -0.0032 -0.2160  0.1834
   93SAPS   HN1 9078   2.880   0.835   6.280 -0.2000  1.1327  0.8881
   93SAPS   HN2 9079   2.779   0.920   6.170 -1.2870  1.2713  1.9327
   93SAPS   HN3 9080   2.714   0.853   6.313  0.9803  1.0196  0.9784
   93SAPS   C12 9081   2.755   0.708   6.166 -0.3255  0.7402  0.2151
   93SAPS  H12A 9082   2.673   0.724   6.099  0.5308  2.2505 -0.5474
   93SAPS   C13 9083   2.874   0.654   6.081 -0.8216  0.1735 -0.2886
   93SAPS  O13A 9084   2.972   0.725   6.050  0.1583  0.1446 -0.6075
   93SAPS  O13B 9085   2.849   0.554   6.002 -0.0933 -0.4793 -0.6179
   93SAPS   C11 9086   2.724   0.603   6.268 -0.7592  0.2826  0.3861
   93SAPS  H11A 9087   2.698   0.509   6.217  0.2603  0.0998  0.1768
   93SAPS  H11B 9088   2.629   0.637   6.316  0.3965  0.9980  2.2972
   93SAPS     P 9089   2.788   0.492   6.491 -0.0371 -0.1766 -0.4265
   93SAPS   O13 9090   2.750   0.365   6.432  0.3186  1.2425  0.0917
   93SAPS   O14 9091   2.894   0.507   6.591  0.1944 -0.3495  0.1786
   93SAPS   O12 9092   2.827   0.584   6.367 -0.2161  0.3818  0.5354
   93SAPS   O11 9093   2.656   0.554   6.549 -0.2721  0.1583 -0.1237
   93SAPS    C1 9094   2.630   0.692   6.584 -1.0171 -0.1270 -0.4171
   93SAPS    HA 9095   2.702   0.764   6.541 -1.3508  1.2564  1.2052
   93SAPS    HB 9096   2.535   0.716   6.531 -0.2168  0.5826 -1.5573
   93SAPS    C2 9097   2.610   0.706   6.738 -0.1006  0.1600 -0.2017
   93SAPS    HS 9098   2.570   0.808   6.754 -1.2883 -0.0734 -1.5354
   93SAPS   O21 9099   2.740   0.685   6.804  0.5077 -0.5355 -0.2287
   93SAPS   C21 9100   2.832   0.775   6.798 -0.0772 -1.0420 -0.1271
   93SAPS   O22 9101   2.817   0.885   6.741 -0.1280  0.1199  0.2662
   93SAPS   C22 9102   2.955   0.719   6.863 -0.0694 -0.6323 -0.6709
   93SAPS   H2R 9103   2.932   0.707   6.972 -1.2724  0.4735 -0.7759
   93SAPS   H2S 9104   2.981   0.616   6.830  0.6446 -1.0433  1.0260
   93SAPS    C3 9105   2.511   0.602   6.790 -0.3999  0.3264 -0.3971
   93SAPS    HX 9106   2.532   0.498   6.756  0.5928  0.3911 -0.0095
   93SAPS    HY 9107   2.411   0.620   6.744 -1.9468 -2.8946  1.3032
   93SAPS   O31 9108   2.499   0.603   6.933 -0.4401 -0.3908  0.3750
   93SAPS   C31 9109   2.518   0.481   7.002  0.8738 -1.0764  0.2706
   93SAPS   O32 9110   2.531   0.376   6.947 -0.0150  0.0594  0.0891
   93SAPS   C32 9111   2.541   0.518   7.151  0.2373 -0.2182  0.5654
   93SAPS   H2X 9112   2.451   0.571   7.189  1.3715  1.8471  0.5493
   93SAPS   H2Y 9113   2.622   0.594   7.151  1.1837 -1.1440  2.5552
   93SAPS   C23 9114   3.080   0.814   6.849 -0.7685  0.0099  0.2580
   93SAPS   H3R 9115   3.092   0.860   6.749 -1.8031  1.4993  0.7822
   93SAPS   H3S 9116   3.168   0.748   6.861  0.9247  1.8178 -1.5997
   93SAPS   C24 9117   3.086   0.912   6.965  0.7919 -0.3997 -0.0307
   93SAPS   H4R 9118   3.075   0.847   7.055 -2.6383 -1.0235 -0.7434
   93SAPS   H4S 9119   3.000   0.982   6.956  1.0117  0.2733  2.4429
   93SAPS   C25 9120   3.204   1.000   6.966  0.5627 -0.1580  1.0791
   93SAPS   H5R 9121   3.228   1.040   6.866  1.9359 -1.6536  0.7754
   93SAPS   C26 9122   3.292   1.043   7.060  0.6130 -0.3044  0.1204
   93SAPS   H6R 9123   3.387   1.092   7.031  0.0224  1.1168  0.4877
   93SAPS   C27 9124   3.272   0.997   7.203  0.6355 -0.8732  1.1059
   93SAPS   H7R 9125   3.347   0.919   7.225  0.1405 -0.7432  3.5468
   93SAPS   H7S 9126   3.174   0.945   7.205 -0.4797  1.1352  2.3669
   93SAPS   C28 9127   3.264   1.104   7.309  0.6649 -0.0050 -0.1990
   93SAPS   H8R 9128   3.272   1.210   7.281  2.3730  0.2665  1.1070
   93SAPS   C29 9129   3.240   1.072   7.434  0.3146 -0.4169 -0.4145
   93SAPS   H9R 9130   3.223   1.158   7.500 -0.1847 -1.0479  0.2995
   93SAPS  C210 9131   3.210   0.931   7.491 -0.4906  0.0215 -0.2170
   93SAPS  H10R 9132   3.302   0.869   7.497 -1.0356 -0.6694  1.5447
   93SAPS  H10S 9133   3.148   0.873   7.419  0.9335 -0.8131 -0.8198
   93SAPS  C211 9134   3.140   0.924   7.621  0.1080  0.3727 -0.0768
   93SAPS  H11R 9135   3.032   0.903   7.617 -0.2582  2.2546 -1.6320
   93SAPS  C212 9136   3.196   0.954   7.737 -0.2105  0.6736  0.4618
   93SAPS  H12R 9137   3.137   0.931   7.827  0.0261 -5.0436 -0.5089
   93SAPS  C213 9138   3.338   0.999   7.758 -0.4438  0.2108 -0.2942
   93SAPS  H13R 9139   3.384   1.047   7.669 -1.7558  0.3565 -0.9169
   93SAPS  H13S 9140   3.404   0.910   7.760  0.5764  0.9450 -0.7219
   93SAPS  C214 9141   3.356   1.102   7.864  0.0687 -0.0917  0.2512
   93SAPS  H14R 9142   3.297   1.192   7.844  0.6202 -0.1756 -2.0916
   93SAPS  C215 9143   3.439   1.086   7.971 -0.1011  0.6961 -0.1642
   93SAPS  H15R 9144   3.436   1.160   8.052 -0.3869 -1.7174  2.1538
   93SAPS  C216 9145   3.517   0.963   8.020 -0.6125  0.4578  0.2885
   93SAPS  H16R 9146   3.626   0.987   8.023 -0.8864  1.7091  1.5301
   93SAPS  H16S 9147   3.497   0.886   7.943 -0.8059  1.2766 -0.5042
   93SAPS  C217 9148   3.479   0.901   8.156  0.4912  0.0726 -0.3252
   93SAPS  H17R 9149   3.532   0.804   8.164  0.5671 -0.0163 -1.6546
   93SAPS  H17S 9150   3.370   0.880   8.158  0.5419 -0.4132 -1.4732
   93SAPS  C218 9151   3.506   0.991   8.279 -0.0576 -0.1136 -0.3245
   93SAPS  H18R 9152   3.456   1.088   8.261  0.2557 -0.2347 -1.9260
   93SAPS  H18S 9153   3.614   1.013   8.272  0.2971 -0.7030  2.1550
   93SAPS  C219 9154   3.468   0.936   8.410 -0.3214  0.2043  0.4162
   93SAPS  H19R 9155   3.359   0.921   8.401 -0.1582 -0.6811 -0.2866
   93SAPS  H19S 9156   3.495   1.010   8.489 -1.0060  1.8349 -0.8143
   93SAPS  C220 9157   3.538   0.800   8.438  0.0574 -0.1030  0.3504
   93SAPS  H20R 9158   3.647   0.812   8.452  0.1313  1.9448 -1.5097
   93SAPS  H20S 9159   3.510   0.730   8.355 -1.4587 -0.2549  0.9520
   93SAPS  H20T 9160   3.488   0.753   8.526  0.9205 -3.2446 -0.6805
   93SAPS   C33 9161   2.564   0.394   7.234  0.1234  0.0683 -0.6504
   93SAPS   H3X 9162   2.667   0.351   7.236 -0.5761 -1.6428 -0.1657
   93SAPS   H3Y 9163   2.500   0.310   7.200 -2.0545  1.6787 -0.7411
   93SAPS   C34 9164   2.532   0.413   7.383 -0.6516  0.6251  0.0603
   93SAPS   H4X 9165   2.539   0.316   7.438  0.1721  1.4984  1.5639
   93SAPS   H4Y 9166   2.430   0.454   7.394 -0.8242  0.4504 -0.7952
   93SAPS   C35 9167   2.634   0.502   7.460 -0.1744 -0.7343 -0.8748
   93SAPS   H5X 9168   2.599   0.604   7.486  2.6742  0.2096 -0.3702
   93SAPS   H5Y 9169   2.721   0.512   7.391  0.1056  3.1880 -0.2068
   93SAPS   C36 9170   2.680   0.448   7.599 -0.0586 -0.1039 -0.4006
   93SAPS   H6X 9171   2.768   0.501   7.641 -0.1165 -0.9321  0.8235
   93SAPS   H6Y 9172   2.713   0.343   7.583 -1.3181 -0.8747  1.6438
   93SAPS   C37 9173   2.565   0.456   7.702 -1.4162 -0.3306 -0.1658
   93SAPS   H7X 9174   2.470   0.425   7.653 -1.3483  0.5140 -0.8571
   93SAPS   H7Y 9175   2.555   0.562   7.733  1.0461  0.0037 -0.3583
   93SAPS   C38 9176   2.596   0.362   7.825 -0.0873 -0.4175 -0.1599
   93SAPS   H8X 9177   2.690   0.396   7.874 -0.0750 -0.5857 -0.0654
   93SAPS   H8Y 9178   2.621   0.262   7.782  0.6374  0.1717 -1.1622
   93SAPS   C39 9179   2.488   0.337   7.934  0.2090 -0.1930 -0.0684
   93SAPS   H9X 9180   2.386   0.347   7.891  0.5954  0.6711 -0.8131
   93SAPS   H9Y 9181   2.496   0.419   8.009  3.3732 -0.7519  0.3419
   93SAPS  C310 9182   2.502   0.209   8.010  0.3282  0.1595  0.0404
   93SAPS  H10X 9183   2.468   0.117   7.959 -1.3718 -0.2554  1.8076
   93SAPS  H10Y 9184   2.430   0.204   8.095  0.2167 -0.4671 -0.0826
   93SAPS  C311 9185   2.645   0.185   8.074  0.3663 -0.2346 -0.2159
   93SAPS  H11X 9186   2.668   0.280   8.125  1.3153 -0.0751 -0.9166
   93SAPS  H11Y 9187   2.723   0.160   7.999  0.2760 -0.4933 -0.2262
   93SAPS  C312 9188   2.649   0.082   8.188  0.5003 -0.8113 -0.1962
   93SAPS  H12X 9189   2.591  -0.008   8.158  0.0710 -1.0602  1.2785
   93SAPS  H12Y 9190   2.597   0.121   8.278 -0.0926 -3.1973  0.5667
   93SAPS  C313 9191   2.801   0.054   8.226 -0.0907  0.4317  0.2729
   93SAPS  H13X 9192   2.855   0.007   8.141 -2.0733  1.8825 -1.8850
   93SAPS  H13Y 9193   2.810  -0.015   8.313  1.3537 -1.3762 -1.2262
   93SAPS  C314 9194   2.889   0.174   8.257 -0.1534 -0.2232 -0.4600
   93SAPS  H14X 9195   2.917   0.243   8.174  0.4953 -0.3218 -0.3289
   93SAPS  H14Y 9196   2.992   0.146   8.289 -1.8494 -1.8317  4.3785
   93SAPS  C315 9197   2.830   0.261   8.370 -0.7607 -0.1432 -0.0682
   93SAPS  H15X 9198   2.810   0.202   8.462  1.2523  0.7023  0.9709
   93SAPS  H15Y 9199   2.733   0.302   8.335 -0.8048 -1.6341 -1.8283
   93SAPS  C316 9200   2.921   0.381   8.409 -0.1263  0.0495 -0.2677
   93SAPS  H16X 9201   2.977   0.425   8.324  2.1223 -0.8396  0.6877
   93SAPS  H16Y 9202   3.006   0.348   8.473 -0.4590 -3.0041 -1.2559
   93SAPS  C317 9203   2.846   0.494   8.479  0.4427 -0.1255  0.1590
   93SAPS  H17X 9204   2.808   0.466   8.579  0.6843  1.4403  0.7153
   93SAPS  H17Y 9205   2.759   0.533   8.421  0.5040  1.3485  1.0091
   93SAPS  C318 9206   2.928   0.614   8.513  0.0103 -0.0640 -0.9340
   93SAPS  H18X 9207   2.878   0.684   8.584  0.9821  0.0841 -0.3685
   93SAPS  H18Y 9208   2.953   0.684   8.430  0.0399  0.6418 -0.3410
   93SAPS  H18Z 9209   3.022   0.580   8.561 -0.9775 -3.2861 -1.0584
   94SAPS     N 9210   3.482   3.725   5.661 -0.5021  0.0728  0.5167
   94SAPS   HN1 9211   3.439   3.819   5.649 -0.2503 -0.1002 -2.3971
   94SAPS   HN2 9212   3.446   3.662   5.586  0.9949  0.6717 -0.7464
   94SAPS   HN3 9213   3.474   3.677   5.754  1.3475 -1.7059 -0.1748
   94SAPS   C12 9214   3.638   3.738   5.642  0.0782  0.4495  0.0626
   94SAPS  H12A 9215   3.676   3.642   5.608 -0.1281  0.6518 -0.7726
   94SAPS   C13 9216   3.679   3.835   5.526  0.5001 -0.7227  0.3734
   94SAPS  O13A 9217   3.593   3.920   5.490  0.1778  0.0016 -0.3206
   94SAPS  O13B 9218   3.801   3.857   5.490  0.3727  0.2133 -0.1449
   94SAPS   C11 9219   3.698   3.760   5.785  0.0290 -0.2981 -0.1127
   94SAPS  H11A 9220   3.808   3.749   5.778  0.4809  1.2918  2.7125
   94SAPS  H11B 9221   3.657   3.683   5.854  0.7431 -0.3672  0.2385
   94SAPS     P 9222   3.687   3.937   5.976 -0.2527  0.5107 -0.1263
   94SAPS   O13 9223   3.834   3.955   5.993 -0.0372  0.1617  0.0314
   94SAPS   O14 9224   3.594   4.045   6.014  0.3502 -0.4300 -0.3750
   94SAPS   O12 9225   3.659   3.888   5.827 -0.4930  0.0239  0.1640
   94SAPS   O11 9226   3.642   3.812   6.058 -0.4149  0.1922 -0.3234
   94SAPS    C1 9227   3.725   3.772   6.167  0.4168 -0.0558 -0.1594
   94SAPS    HA 9228   3.788   3.687   6.132 -0.0784 -1.0007  1.1215
   94SAPS    HB 9229   3.786   3.853   6.212  0.2660 -0.5004  0.8968
   94SAPS    C2 9230   3.633   3.725   6.289 -0.0186 -0.3578 -0.1956
   94SAPS    HS 9231   3.560   3.651   6.252  2.7873 -2.7349 -1.3286
   94SAPS   O21 9232   3.577   3.849   6.326 -0.6866 -0.0161 -0.1157
   94SAPS   C21 9233   3.476   3.846   6.410  0.0449  0.4622  0.0595
   94SAPS   O22 9234   3.411   3.746   6.437  0.2273  0.8338  0.3963
   94SAPS   C22 9235   3.455   3.988   6.467 -0.2381  0.4405 -0.8429
   94SAPS   H2R 9236   3.544   4.052   6.447  1.0564 -1.6226 -1.9105
   94SAPS   H2S 9237   3.365   4.019   6.410 -1.9468 -0.1469  1.3951
   94SAPS    C3 9238   3.704   3.657   6.410  0.0625 -1.1679 -0.0423
   94SAPS    HX 9239   3.786   3.599   6.360  1.2893  0.6768 -0.2686
   94SAPS    HY 9240   3.634   3.590   6.465 -2.8494  1.6208 -0.1023
   94SAPS   O31 9241   3.766   3.746   6.500 -0.2261 -0.2543  0.0579
   94SAPS   C31 9242   3.869   3.697   6.564 -1.1809  0.2441  0.0491
   94SAPS   O32 9243   3.916   3.585   6.556  0.2436  0.1382  0.4081
   94SAPS   C32 9244   3.921   3.788   6.667  0.8502  0.0025 -0.9462
   94SAPS   H2X 9245   3.842   3.809   6.742 -0.2087 -1.5475 -1.5685
   94SAPS   H2Y 9246   3.953   3.879   6.613  1.7814  0.1813 -0.1306
   94SAPS   C23 9247   3.415   3.992   6.615  0.1541 -0.1763 -0.4237
   94SAPS   H3R 9248   3.332   3.919   6.627  0.6027 -0.5341  0.6276
   94SAPS   H3S 9249   3.380   4.095   6.636 -0.0608 -0.3171 -0.0833
   94SAPS   C24 9250   3.523   3.934   6.707  0.4937 -0.0490  0.3694
   94SAPS   H4R 9251   3.556   3.840   6.658 -0.2415 -0.6491  1.0061
   94SAPS   H4S 9252   3.465   3.897   6.794 -2.0595  2.2047 -0.2277
   94SAPS   C25 9253   3.624   4.035   6.743 -0.0438 -0.4849  0.3686
   94SAPS   H5R 9254   3.687   4.062   6.657 -1.1746 -1.3269 -0.7637
   94SAPS   C26 9255   3.654   4.095   6.861  0.5579 -0.3680 -0.1410
   94SAPS   H6R 9256   3.746   4.155   6.868  0.4473 -0.1145 -0.7270
   94SAPS   C27 9257   3.583   4.073   6.993  0.3585  0.0011  0.0215
   94SAPS   H7R 9258   3.486   4.025   6.971 -0.6236  1.1148  1.7289
   94SAPS   H7S 9259   3.549   4.166   7.044 -0.1712 -0.2229  0.0793
   94SAPS   C28 9260   3.661   3.989   7.087 -0.6777 -0.2644 -0.4471
   94SAPS   H8R 9261   3.702   3.897   7.045  1.3431  0.6321 -0.5667
   94SAPS   C29 9262   3.691   4.017   7.214  0.2917  0.2291 -0.2094
   94SAPS   H9R 9263   3.756   3.942   7.262 -0.1039 -0.1529 -0.2653
   94SAPS  C210 9264   3.658   4.134   7.301  0.5245 -0.2868  0.6355
   94SAPS  H10R 9265   3.562   4.178   7.268  1.8928  2.0027 -0.5559
   94SAPS  H10S 9266   3.735   4.211   7.280  0.1813 -0.2838 -0.6823
   94SAPS  C211 9267   3.647   4.113   7.451  0.8328 -0.3992 -0.5110
   94SAPS  H11R 9268   3.548   4.079   7.483  1.9660 -3.8200 -0.2466
   94SAPS  C212 9269   3.726   4.141   7.550 -0.0545 -0.5864  0.0865
   94SAPS  H12R 9270   3.702   4.128   7.656  0.4870  1.3344  0.4816
   94SAPS  C213 9271   3.857   4.214   7.526 -0.2914  0.3735  0.0919
   94SAPS  H13R 9272   3.848   4.318   7.563 -1.5493  0.6834 -1.0125
   94SAPS  H13S 9273   3.889   4.227   7.420  1.4849 -1.6990  0.2921
   94SAPS  C214 9274   3.964   4.136   7.604  0.2861 -0.8913  0.4784
   94SAPS  H14R 9275   4.012   4.064   7.537 -0.9646 -0.9977 -0.3299
   94SAPS  C215 9276   4.001   4.148   7.729  0.0932  0.5193  0.7604
   94SAPS  H15R 9277   4.084   4.081   7.755 -0.0662 -0.1244 -0.3507
   94SAPS  C216 9278   3.952   4.239   7.838 -0.0495  0.6188  0.2550
   94SAPS  H16R 9279   3.945   4.342   7.796 -0.5607  1.1140  1.4855
   94SAPS  H16S 9280   4.031   4.252   7.915  0.4400 -1.9370  0.2721
   94SAPS  C217 9281   3.814   4.215   7.913 -0.4398 -0.5281  0.1774
   94SAPS  H17R 9282   3.743   4.262   7.842  1.5797  0.4827 -1.2767
   94SAPS  H17S 9283   3.799   4.276   8.004  0.6612  1.5161 -0.9523
   94SAPS  C218 9284   3.775   4.069   7.938 -0.1358  0.1835 -0.4545
   94SAPS  H18R 9285   3.845   4.028   8.014 -2.1800 -0.0487  1.4065
   94SAPS  H18S 9286   3.775   4.002   7.849 -2.5919 -0.0770 -0.3335
   94SAPS  C219 9287   3.631   4.057   7.993 -0.1810  0.3658 -0.7917
   94SAPS  H19R 9288   3.565   4.100   7.915  1.2446  2.6005 -0.8377
   94SAPS  H19S 9289   3.621   4.124   8.081  0.4812 -0.2777 -0.2186
   94SAPS  C220 9290   3.585   3.914   8.011 -0.1013 -0.1984 -0.3412
   94SAPS  H20R 9291   3.519   3.900   8.099  1.5879  2.1419  1.4429
   94SAPS  H20S 9292   3.672   3.849   8.032  0.0832 -0.8192 -2.8076
   94SAPS  H20T 9293   3.532   3.872   7.923 -0.3006  1.6052 -1.1281
   94SAPS   C33 9294   4.052   3.742   6.746  0.1158 -0.0094  0.3717
   94SAPS   H3X 9295   4.099   3.826   6.801  0.5353  0.1046 -0.1489
   94SAPS   H3Y 9296   4.124   3.699   6.673  1.2370  2.5539 -0.1346
   94SAPS   C34 9297   4.006   3.639   6.855 -0.6208 -0.1777 -0.5457
   94SAPS   H4X 9298   4.099   3.591   6.891  0.0409  0.8232 -0.8511
   94SAPS   H4Y 9299   3.945   3.556   6.815 -1.4245 -0.5953  1.4373
   94SAPS   C35 9300   3.929   3.709   6.975  0.2174  0.2398  0.2055
   94SAPS   H5X 9301   3.824   3.726   6.944 -0.8415 -2.0149  2.1480
   94SAPS   H5Y 9302   3.977   3.802   7.012 -3.4979  1.3285  2.8645
   94SAPS   C36 9303   3.929   3.633   7.107 -0.0915 -0.1112  0.5880
   94SAPS   H6X 9304   4.034   3.604   7.130  0.9155  1.4797 -1.6510
   94SAPS   H6Y 9305   3.873   3.538   7.093  2.5521 -1.7946  0.6643
   94SAPS   C37 9306   3.870   3.709   7.222  0.4852 -0.8927 -0.5596
   94SAPS   H7X 9307   3.759   3.718   7.214  0.6660  2.0510 -1.0299
   94SAPS   H7Y 9308   3.912   3.811   7.232  2.1232 -1.6760  1.1889
   94SAPS   C38 9309   3.897   3.637   7.356 -0.7801  0.0581  0.5572
   94SAPS   H8X 9310   4.004   3.608   7.352 -0.8463 -0.5109 -4.5472
   94SAPS   H8Y 9311   3.845   3.540   7.346 -1.6125  0.5036  0.4627
   94SAPS   C39 9312   3.875   3.719   7.484 -0.8680  0.3907  0.0724
   94SAPS   H9X 9313   3.770   3.725   7.521 -0.8463 -1.2756  0.5108
   94SAPS   H9Y 9314   3.908   3.822   7.460  1.8998 -0.1718  1.0939
   94SAPS  C310 9315   3.975   3.669   7.597 -0.3395 -0.0600  1.1133
   94SAPS  H10X 9316   4.076   3.665   7.552 -0.9240  0.5288 -0.3474
   94SAPS  H10Y 9317   3.958   3.567   7.636 -0.9492  0.0086  1.0359
   94SAPS  C311 9318   3.973   3.757   7.718 -0.2314 -0.2201 -0.6215
   94SAPS  H11X 9319   3.869   3.764   7.757 -0.0572 -1.0927  0.0202
   94SAPS  H11Y 9320   4.009   3.858   7.688  0.7999 -0.2706  0.3790
   94SAPS  C312 9321   4.074   3.723   7.831  0.0706  0.4594 -0.1553
   94SAPS  H12X 9322   4.176   3.742   7.791  0.6364  0.7904  1.4024
   94SAPS  H12Y 9323   4.058   3.618   7.863 -0.4591  0.7687  0.6084
   94SAPS  C313 9324   4.059   3.814   7.960  0.0039  0.6044  0.4528
   94SAPS  H13X 9325   3.956   3.803   8.001 -0.3646 -1.9384 -0.9097
   94SAPS  H13Y 9326   4.084   3.920   7.940 -1.7566  0.4738 -3.3141
   94SAPS  C314 9327   4.161   3.762   8.057  0.0881 -0.6258  0.2818
   94SAPS  H14X 9328   4.265   3.774   8.019 -0.5942 -0.0796 -1.5205
   94SAPS  H14Y 9329   4.155   3.652   8.067 -0.0727 -0.6548 -0.1151
   94SAPS  C315 9330   4.148   3.822   8.197  0.1689  0.0553 -0.2442
   94SAPS  H15X 9331   4.246   3.818   8.249  0.7910  2.7247 -1.0866
   94SAPS  H15Y 9332   4.081   3.750   8.248 -0.0980  0.3438 -0.1863
   94SAPS  C316 9333   4.104   3.963   8.202 -0.1911 -0.9577  0.0832
   94SAPS  H16X 9334   4.005   3.987   8.157  0.4421 -0.6683 -1.1932
   94SAPS  H16Y 9335   4.179   4.029   8.153 -1.6392  2.3812  2.0311
   94SAPS  C317 9336   4.079   4.020   8.339 -0.3683  0.7634  0.1571
   94SAPS  H17X 9337   4.160   4.001   8.412  0.4537  0.2875 -0.8415
   94SAPS  H17Y 9338   3.984   3.972   8.370  0.5328 -0.2281  1.4693
   94SAPS  C318 9339   4.057   4.172   8.329  0.0943 -0.2775  0.4254
   94SAPS  H18X 9340   4.125   4.218   8.254 -0.7527  2.9997  1.4837
   94SAPS  H18Y 9341   4.076   4.219   8.428  0.2043  1.2115 -0.2800
   94SAPS  H18Z 9342   3.956   4.208   8.299  0.2288  1.6271  2.0928
   95SAPS     N 9343   6.214   1.303   5.976  0.1463 -0.5426  1.2714
   95SAPS   HN1 9344   6.262   1.262   5.894  0.4944  0.9663  0.6990
   95SAPS   HN2 9345   6.236   1.405   5.976  0.5005 -0.6129  2.0310
   95SAPS   HN3 9346   6.246   1.260   6.066  1.5272  0.1434  1.1421
   95SAPS   C12 9347   6.067   1.275   5.978 -0.7525 -0.3212  0.0640
   95SAPS  H12A 9348   6.010   1.367   5.968 -2.5245 -1.5477 -1.8954
   95SAPS   C13 9349   6.039   1.204   5.846 -1.2644  0.4469  0.3776
   95SAPS  O13A 9350   6.136   1.148   5.783  0.5709 -0.0442  0.1886
   95SAPS  O13B 9351   5.919   1.170   5.831  0.0160  0.2375 -0.1125
   95SAPS   C11 9352   6.025   1.198   6.108 -0.1010 -0.6764 -0.0003
   95SAPS  H11A 9353   6.082   1.103   6.112 -0.7834 -1.0491  1.8932
   95SAPS  H11B 9354   5.922   1.157   6.105  0.0533 -1.0492 -0.4014
   95SAPS     P 9355   6.165   1.264   6.321  0.1532 -0.1963  0.5904
   95SAPS   O13 9356   6.281   1.235   6.237 -0.1196 -0.0024  0.6110
   95SAPS   O14 9357   6.175   1.382   6.409 -0.3288  0.4657  0.3962
   95SAPS   O12 9358   6.043   1.283   6.217  0.5055  0.1889 -0.9327
   95SAPS   O11 9359   6.133   1.148   6.413  0.1038  0.7361 -0.0202
   95SAPS    C1 9360   5.995   1.113   6.451 -0.5343 -0.1364  1.2631
   95SAPS    HA 9361   5.927   1.128   6.364  1.2310  0.8447 -0.0225
   95SAPS    HB 9362   5.998   1.006   6.482 -0.8218 -0.8513 -0.9857
   95SAPS    C2 9363   5.942   1.190   6.567  0.0274  0.0469 -0.7368
   95SAPS    HS 9364   5.929   1.296   6.537 -4.7913  0.0905  0.7118
   95SAPS   O21 9365   6.024   1.161   6.684 -1.0989  0.1168  0.1066
   95SAPS   C21 9366   6.067   1.270   6.750 -0.2437  0.3346  0.1302
   95SAPS   O22 9367   6.027   1.383   6.738  0.7034  0.0097  0.3829
   95SAPS   C22 9368   6.177   1.220   6.846  0.1039  0.5782  1.3476
   95SAPS   H2R 9369   6.135   1.131   6.896  1.2216 -0.1109  1.1081
   95SAPS   H2S 9370   6.263   1.184   6.784 -0.6228 -2.2939  1.8716
   95SAPS    C3 9371   5.795   1.152   6.602 -0.0376  0.1809 -0.3533
   95SAPS    HX 9372   5.779   1.043   6.591  0.5531  0.2327 -2.1535
   95SAPS    HY 9373   5.720   1.192   6.530 -2.3701  2.6149  3.0938
   95SAPS   O31 9374   5.748   1.185   6.733 -0.3894  0.3178  0.3794
   95SAPS   C31 9375   5.711   1.316   6.757  0.4394  0.1817 -0.7234
   95SAPS   O32 9376   5.696   1.399   6.668 -0.2310  0.4155 -0.1136
   95SAPS   C32 9377   5.688   1.335   6.903 -0.4319 -0.4335  0.1530
   95SAPS   H2X 9378   5.737   1.255   6.963  2.2462 -0.0534 -1.3564
   95SAPS   H2Y 9379   5.580   1.320   6.926 -0.7066  1.1616  0.0412
   95SAPS   C23 9380   6.245   1.340   6.924 -0.5389  0.6044  0.2941
   95SAPS   H3R 9381   6.165   1.390   6.984 -0.5054  1.8600 -0.6699
   95SAPS   H3S 9382   6.294   1.412   6.855  1.0415 -1.9558 -1.4055
   95SAPS   C24 9383   6.362   1.296   7.020  0.6786  0.3023 -0.6120
   95SAPS   H4R 9384   6.384   1.395   7.064 -3.2599  0.9074  0.3326
   95SAPS   H4S 9385   6.449   1.266   6.957  0.3517  0.6864 -1.2573
   95SAPS   C25 9386   6.323   1.199   7.131 -0.4757 -0.8753  0.2864
   95SAPS   H5R 9387   6.307   1.096   7.094  0.2870 -0.7811 -0.3190
   95SAPS   C26 9388   6.312   1.234   7.263 -0.0832  0.3415  0.4376
   95SAPS   H6R 9389   6.277   1.155   7.331 -0.6573  0.1489 -0.0671
   95SAPS   C27 9390   6.325   1.375   7.322 -0.0371 -0.3798  0.0883
   95SAPS   H7R 9391   6.228   1.428   7.308  0.5009  0.0321 -2.8880
   95SAPS   H7S 9392   6.400   1.438   7.270  1.5500 -2.5570 -0.4322
   95SAPS   C28 9393   6.348   1.373   7.468  0.2062 -0.1906 -0.4053
   95SAPS   H8R 9394   6.255   1.373   7.527 -0.8119  1.6250 -1.8992
   95SAPS   C29 9395   6.467   1.366   7.532 -0.3611 -0.7942 -0.3549
   95SAPS   H9R 9396   6.472   1.379   7.642 -0.0210  1.8441 -0.6201
   95SAPS  C210 9397   6.601   1.367   7.467 -0.2081  0.3594  0.2637
   95SAPS  H10R 9398   6.608   1.451   7.394  0.3016  0.0198 -0.0862
   95SAPS  H10S 9399   6.615   1.274   7.408 -2.0391 -0.4045  0.9510
   95SAPS  C211 9400   6.719   1.365   7.562  0.5015 -0.8519 -0.2460
   95SAPS  H11R 9401   6.710   1.298   7.648 -0.6537 -0.5235 -0.0973
   95SAPS  C212 9402   6.828   1.436   7.545  0.3731  0.0295  0.3982
   95SAPS  H12R 9403   6.904   1.427   7.625 -1.7127 -0.4442  2.4378
   95SAPS  C213 9404   6.855   1.530   7.433  0.1956 -0.0086 -0.0228
   95SAPS  H13R 9405   6.761   1.576   7.393 -0.6956 -1.3046  0.5349
   95SAPS  H13S 9406   6.890   1.479   7.341  0.3125 -1.0509  0.5926
   95SAPS  C214 9407   6.943   1.645   7.468  0.1879  0.2532 -0.1689
   95SAPS  H14R 9408   6.896   1.730   7.519  2.4237  0.8750  0.9853
   95SAPS  C215 9409   7.073   1.648   7.465  0.1065  0.4427  0.1566
   95SAPS  H15R 9410   7.124   1.741   7.494 -1.2764  1.3952 -0.3677
   95SAPS  C216 9411   7.168   1.536   7.439 -0.5280  0.1593 -0.8151
   95SAPS  H16R 9412   7.124   1.434   7.437  2.0661 -1.1649  1.9479
   95SAPS  H16S 9413   7.232   1.526   7.530 -0.5568  0.3516 -0.7744
   95SAPS  C217 9414   7.271   1.555   7.321  0.2907 -0.2717 -0.4587
   95SAPS  H17R 9415   7.343   1.470   7.324  0.3075 -0.2789 -1.0059
   95SAPS  H17S 9416   7.326   1.648   7.347  1.3832 -1.4828  1.8715
   95SAPS  C218 9417   7.209   1.558   7.178 -0.0832 -0.7820 -0.5492
   95SAPS  H18R 9418   7.150   1.651   7.182  2.1561  0.9191  6.0316
   95SAPS  H18S 9419   7.157   1.464   7.150  1.9820 -2.1361 -0.0569
   95SAPS  C219 9420   7.314   1.594   7.065 -0.2843 -0.0152 -0.2902
   95SAPS  H19R 9421   7.375   1.508   7.032  2.0093  1.0639  0.9151
   95SAPS  H19S 9422   7.380   1.675   7.103 -0.5723 -0.4389  1.1620
   95SAPS  C220 9423   7.254   1.655   6.933  0.7427  0.0982  0.9335
   95SAPS  H20R 9424   7.243   1.766   6.934 -0.1017  0.1270 -2.0710
   95SAPS  H20S 9425   7.154   1.618   6.903  0.4094  2.2752 -0.9601
   95SAPS  H20T 9426   7.331   1.648   6.853 -1.5300 -0.3552 -1.3365
   95SAPS   C33 9427   5.732   1.476   6.952  0.1342 -0.4031  0.1661
   95SAPS   H3X 9428   5.686   1.553   6.886 -0.0107  0.2804  1.0384
   95SAPS   H3Y 9429   5.843   1.475   6.945  0.0699 -0.6130 -1.1252
   95SAPS   C34 9430   5.707   1.515   7.107  0.7226  0.1572  0.2912
   95SAPS   H4X 9431   5.601   1.494   7.129  0.4847 -1.1272 -1.7391
   95SAPS   H4Y 9432   5.725   1.624   7.111 -0.4763  0.3418  0.9916
   95SAPS   C35 9433   5.787   1.439   7.213  1.4903  0.4493  0.3775
   95SAPS   H5X 9434   5.891   1.451   7.177  0.8437  0.7921 -1.4837
   95SAPS   H5Y 9435   5.757   1.333   7.222  0.6845  0.3592 -2.3975
   95SAPS   C36 9436   5.768   1.502   7.349 -0.4442  1.1523 -0.2697
   95SAPS   H6X 9437   5.659   1.507   7.371 -0.9307  2.8230 -2.7011
   95SAPS   H6Y 9438   5.794   1.609   7.333 -0.7447  1.0884 -1.2585
   95SAPS   C37 9439   5.844   1.433   7.464  0.0661  0.3930 -0.1428
   95SAPS   H7X 9440   5.952   1.416   7.442 -0.3150 -0.2504 -1.6020
   95SAPS   H7Y 9441   5.795   1.334   7.476 -0.8605  0.6923 -1.3162
   95SAPS   C38 9442   5.815   1.502   7.597  0.3137 -0.2331 -0.0712
   95SAPS   H8X 9443   5.711   1.480   7.628  0.1010  0.2761 -0.4098
   95SAPS   H8Y 9444   5.834   1.611   7.582  0.6288 -0.1789  0.6953
   95SAPS   C39 9445   5.904   1.444   7.709  0.1351  0.4165  0.2032
   95SAPS   H9X 9446   6.009   1.477   7.697 -0.1366  2.8854  3.1866
   95SAPS   H9Y 9447   5.896   1.335   7.690 -1.3719  0.2985  1.3042
   95SAPS  C310 9448   5.852   1.477   7.846  0.0805  0.1261 -0.5951
   95SAPS  H10X 9449   5.745   1.446   7.843  0.0073  0.1525  0.8005
   95SAPS  H10Y 9450   5.857   1.586   7.866 -1.2132  0.0933  0.0174
   95SAPS  C311 9451   5.901   1.388   7.964 -0.2616 -0.6242 -0.1930
   95SAPS  H11X 9452   5.887   1.285   7.925  1.2608 -0.7045 -0.5830
   95SAPS  H11Y 9453   5.839   1.400   8.055  2.0534 -0.9692  1.5405
   95SAPS  C312 9454   6.045   1.409   8.013 -0.4084  0.1685  0.3066
   95SAPS  H12X 9455   6.047   1.518   8.034 -5.1843  0.4714  0.3601
   95SAPS  H12Y 9456   6.108   1.378   7.927  0.4440  2.0447  0.2137
   95SAPS  C313 9457   6.085   1.329   8.134 -0.1619 -0.5262  0.4614
   95SAPS  H13X 9458   6.007   1.353   8.210 -2.0679  2.2783 -2.1890
   95SAPS  H13Y 9459   6.186   1.353   8.174 -0.6410  1.4259  0.5820
   95SAPS  C314 9460   6.087   1.177   8.119 -0.2395 -0.0281 -0.4952
   95SAPS  H14X 9461   6.146   1.143   8.031 -0.8638  0.2630 -1.0366
   95SAPS  H14Y 9462   5.983   1.147   8.092 -0.8068  0.0479  1.4619
   95SAPS  C315 9463   6.126   1.101   8.249 -0.1275  0.1555  0.0793
   95SAPS  H15X 9464   6.110   0.993   8.231  0.4321 -0.2886  2.0446
   95SAPS  H15Y 9465   6.064   1.134   8.335  3.2003 -1.1858  3.2527
   95SAPS  C316 9466   6.275   1.137   8.283  0.1793  0.2633 -0.2386
   95SAPS  H16X 9467   6.283   1.243   8.316 -1.3503  0.3359 -0.0345
   95SAPS  H16Y 9468   6.338   1.125   8.193 -1.7695 -3.1699 -1.3211
   95SAPS  C317 9469   6.339   1.046   8.390  0.7173 -0.1033 -0.3821
   95SAPS  H17X 9470   6.349   0.941   8.355 -0.2488 -0.6945  1.0229
   95SAPS  H17Y 9471   6.264   1.048   8.472 -0.3226  0.5072 -1.3323
   95SAPS  C318 9472   6.468   1.103   8.455 -0.0047 -0.3379  0.1837
   95SAPS  H18X 9473   6.505   1.040   8.539 -1.8048  1.1144  2.1724
   95SAPS  H18Y 9474   6.439   1.197   8.507  0.3164  0.0421 -0.3165
   95SAPS  H18Z 9475   6.544   1.119   8.376 -0.8087 -2.7509 -1.1855
   96SAPS     N 9476   0.474   2.533   6.298 -0.3290  0.2200 -0.5605
   96SAPS   HN1 9477   0.538   2.475   6.356 -1.4030  0.0421  0.4816
   96SAPS   HN2 9478   0.402   2.581   6.356  0.0008 -1.3335  1.2335
   96SAPS   HN3 9479   0.439   2.466   6.226  1.7399 -0.5794 -0.8862
   96SAPS   C12 9480   0.547   2.639   6.210  0.1173  0.5108  0.6959
   96SAPS  H12A 9481   0.651   2.608   6.207  0.1652  0.7421 -0.3479
   96SAPS   C13 9482   0.497   2.650   6.063 -0.5279  0.0742 -0.4372
   96SAPS  O13A 9483   0.387   2.620   6.030  0.2241 -0.0933 -0.2708
   96SAPS  O13B 9484   0.576   2.708   5.986 -0.1057 -0.1651  0.0277
   96SAPS   C11 9485   0.551   2.779   6.286  0.1975  0.2924  0.0903
   96SAPS  H11A 9486   0.446   2.816   6.274  0.5144  2.2460  2.4601
   96SAPS  H11B 9487   0.621   2.841   6.226  1.0215 -0.6721  0.0443
   96SAPS     P 9488   0.603   2.873   6.526 -0.3000  0.5626 -0.1951
   96SAPS   O13 9489   0.710   2.968   6.483  0.5279  0.0350  0.2624
   96SAPS   O14 9490   0.473   2.937   6.538 -0.4303  0.0405 -0.1729
   96SAPS   O12 9491   0.594   2.754   6.423  0.0803  0.6489 -0.0518
   96SAPS   O11 9492   0.646   2.804   6.664  0.6782 -0.2413  0.2085
   96SAPS    C1 9493   0.578   2.816   6.791  0.0506  0.1520  0.0841
   96SAPS    HA 9494   0.467   2.819   6.782 -0.2131  2.4507  2.7260
   96SAPS    HB 9495   0.594   2.735   6.866  0.6651  0.6306  0.4767
   96SAPS    C2 9496   0.610   2.946   6.870  1.2524  0.0372 -0.0397
   96SAPS    HS 9497   0.539   2.953   6.955  0.7219  0.3171 -0.4976
   96SAPS   O21 9498   0.603   3.067   6.792 -0.2087 -0.1156  0.2027
   96SAPS   C21 9499   0.478   3.105   6.776 -0.5804 -0.7468  0.6466
   96SAPS   O22 9500   0.377   3.045   6.817  0.9035 -0.1580 -0.0680
   96SAPS   C22 9501   0.469   3.244   6.707 -0.6329 -0.1321  0.6008
   96SAPS   H2R 9502   0.514   3.240   6.606 -1.2804 -1.4115  0.3441
   96SAPS   H2S 9503   0.360   3.264   6.701 -0.5270 -0.0145 -2.7836
   96SAPS    C3 9504   0.755   2.934   6.927  0.7080  0.0886  0.0794
   96SAPS    HX 9505   0.828   2.927   6.843 -1.7628  0.3769 -2.2573
   96SAPS    HY 9506   0.764   2.839   6.983  0.5986 -0.4378 -0.7711
   96SAPS   O31 9507   0.795   3.051   7.006  0.1452 -0.3962  0.4784
   96SAPS   C31 9508   0.741   3.057   7.125  0.5986 -0.3236  0.7273
   96SAPS   O32 9509   0.658   2.979   7.177 -0.5896 -0.3455 -0.4860
   96SAPS   C32 9510   0.797   3.172   7.206 -0.7201  0.0542  0.3521
   96SAPS   H2X 9511   0.770   3.267   7.154 -0.3707  2.5311  4.3104
   96SAPS   H2Y 9512   0.908   3.168   7.199 -0.8616 -1.2647 -2.6671
   96SAPS   C23 9513   0.549   3.347   6.788 -0.9398 -0.9234 -0.6169
   96SAPS   H3R 9514   0.548   3.444   6.733  1.9240 -1.5684 -1.9836
   96SAPS   H3S 9515   0.657   3.324   6.801 -0.9214 -0.8494 -0.6330
   96SAPS   C24 9516   0.487   3.376   6.925 -0.4793  0.2208 -0.3277
   96SAPS   H4R 9517   0.552   3.457   6.963  0.6563 -0.5859 -0.5243
   96SAPS   H4S 9518   0.494   3.286   6.989 -1.6887 -1.0793 -1.9198
   96SAPS   C25 9519   0.347   3.434   6.923 -0.2822 -0.2184  0.0229
   96SAPS   H5R 9520   0.331   3.489   6.829  2.6597  1.4485  0.3837
   96SAPS   C26 9521   0.254   3.427   7.021 -0.1630  0.0041 -0.5992
   96SAPS   H6R 9522   0.152   3.459   6.992 -1.6501 -2.1709  1.7882
   96SAPS   C27 9523   0.271   3.367   7.159 -0.3425  0.3061 -0.1037
   96SAPS   H7R 9524   0.229   3.438   7.232  1.3427  1.7756 -0.4900
   96SAPS   H7S 9525   0.379   3.374   7.184 -0.4702  1.3781  0.1750
   96SAPS   C28 9526   0.229   3.222   7.177  0.1376  0.2150 -0.0614
   96SAPS   H8R 9527   0.239   3.155   7.090 -0.8855 -0.0743  0.0229
   96SAPS   C29 9528   0.182   3.166   7.292  0.1770 -0.1239 -0.7721
   96SAPS   H9R 9529   0.154   3.059   7.291 -0.1430 -0.1344  1.8051
   96SAPS  C210 9530   0.186   3.243   7.425 -0.2820 -0.4466 -0.2215
   96SAPS  H10R 9531   0.106   3.210   7.493 -0.3521  1.1642  0.5167
   96SAPS  H10S 9532   0.163   3.350   7.406 -3.3758 -1.4269 -2.8676
   96SAPS  C211 9533   0.327   3.245   7.495  0.3193 -0.4817  0.0883
   96SAPS  H11R 9534   0.409   3.289   7.436 -0.6782  2.2274  0.6061
   96SAPS  C212 9535   0.366   3.197   7.613 -0.0028 -0.4644  0.1972
   96SAPS  H12R 9536   0.472   3.211   7.638 -0.3732  0.6606  1.2106
   96SAPS  C213 9537   0.280   3.127   7.715 -0.6586  0.3294  0.6032
   96SAPS  H13R 9538   0.335   3.038   7.752  0.1369  0.4562 -0.2396
   96SAPS  H13S 9539   0.186   3.089   7.671 -0.6480  0.3642  0.5509
   96SAPS  C214 9540   0.263   3.215   7.836 -0.3534  0.7569  0.2489
   96SAPS  H14R 9541   0.270   3.321   7.810 -1.1060  0.1753 -2.6817
   96SAPS  C215 9542   0.208   3.166   7.952  0.7034  0.5246  0.0987
   96SAPS  H15R 9543   0.204   3.243   8.030 -0.3384  1.3354 -0.7280
   96SAPS  C216 9544   0.161   3.028   7.985 -0.2738  0.6020 -0.2549
   96SAPS  H16R 9545   0.183   2.954   7.906 -0.9106 -1.1961  1.1923
   96SAPS  H16S 9546   0.051   3.041   7.998 -0.3250 -0.6613  0.7415
   96SAPS  C217 9547   0.203   2.952   8.119 -0.0822  0.2495 -0.0956
   96SAPS  H17R 9548   0.311   2.931   8.127 -0.0173  0.7141  0.3665
   96SAPS  H17S 9549   0.157   2.853   8.141 -0.2603  0.9082  3.0708
   96SAPS  C218 9550   0.177   3.044   8.237 -0.4478 -0.3504  0.3210
   96SAPS  H18R 9551   0.073   3.081   8.227 -1.7255 -3.3229  1.5217
   96SAPS  H18S 9552   0.255   3.122   8.234  0.4719 -1.2621 -0.5576
   96SAPS  C219 9553   0.177   2.970   8.374 -0.1454  0.3496  0.0079
   96SAPS  H19R 9554   0.116   2.877   8.369  0.0809  0.2250 -0.4899
   96SAPS  H19S 9555   0.132   3.043   8.444 -0.2519  1.1608 -0.8914
   96SAPS  C220 9556   0.310   2.916   8.428  0.4230  0.0835  0.9060
   96SAPS  H20R 9557   0.334   2.832   8.359 -0.8488  2.0868 -2.1922
   96SAPS  H20S 9558   0.302   2.868   8.528 -4.3572 -0.5803  0.4554
   96SAPS  H20T 9559   0.381   3.001   8.424 -1.0680  1.3288 -0.5712
   96SAPS   C33 9560   0.756   3.182   7.358  0.5514 -0.4790  0.0669
   96SAPS   H3X 9561   0.649   3.167   7.381  0.2620  1.3566  0.0388
   96SAPS   H3Y 9562   0.783   3.287   7.383  0.8112 -0.4807 -0.1939
   96SAPS   C34 9563   0.844   3.091   7.442 -0.8539  0.3127 -0.5319
   96SAPS   H4X 9564   0.943   3.132   7.413 -0.3465 -0.3298  0.2468
   96SAPS   H4Y 9565   0.827   2.985   7.412  0.5161 -0.4288  1.1133
   96SAPS   C35 9566   0.830   3.100   7.596  0.4164 -0.3038 -0.2914
   96SAPS   H5X 9567   0.847   3.203   7.632  3.6495 -0.5173 -0.8498
   96SAPS   H5Y 9568   0.915   3.043   7.640  0.4775 -0.7911 -1.0191
   96SAPS   C36 9569   0.687   3.054   7.635  0.6246  0.6014 -0.0941
   96SAPS   H6X 9570   0.672   2.945   7.619 -0.8552  0.7010  0.3959
   96SAPS   H6Y 9571   0.615   3.101   7.565  0.7918  0.4501 -0.3713
   96SAPS   C37 9572   0.648   3.077   7.782 -0.2234  0.2583 -0.3469
   96SAPS   H7X 9573   0.541   3.047   7.785 -0.6658  1.8437  1.3396
   96SAPS   H7Y 9574   0.645   3.183   7.814  1.8707 -0.2606  1.8322
   96SAPS   C38 9575   0.735   2.998   7.881 -0.0806  0.9415 -0.2861
   96SAPS   H8X 9576   0.835   3.046   7.885  0.0742  0.5245  1.5011
   96SAPS   H8Y 9577   0.753   2.897   7.840  2.3300  0.9551  0.5865
   96SAPS   C39 9578   0.664   2.986   8.020  0.3518  0.7546 -0.1013
   96SAPS   H9X 9579   0.722   2.907   8.072  1.1827  2.4330  1.6415
   96SAPS   H9Y 9580   0.559   2.950   8.021  0.2773  0.9810  0.5118
   96SAPS  C310 9581   0.677   3.115   8.096 -0.4074 -0.6004 -0.0252
   96SAPS  H10X 9582   0.590   3.176   8.065 -0.0770 -0.3501 -0.4555
   96SAPS  H10Y 9583   0.777   3.159   8.074  0.1195 -0.2859  2.6277
   96SAPS  C311 9584   0.679   3.090   8.251  0.0133  0.8451 -0.4044
   96SAPS  H11X 9585   0.594   3.026   8.281  0.2915  0.1127 -1.1271
   96SAPS  H11Y 9586   0.672   3.189   8.301 -1.8922  0.8455 -0.6121
   96SAPS  C312 9587   0.803   3.016   8.300 -0.4778 -0.5006  0.5697
   96SAPS  H12X 9588   0.895   3.054   8.251 -0.2132  0.6037  1.8826
   96SAPS  H12Y 9589   0.806   2.906   8.283 -0.3295 -0.7873  2.2612
   96SAPS  C313 9590   0.827   3.033   8.449  0.7792 -0.4054 -0.3627
   96SAPS  H13X 9591   0.739   2.985   8.496  0.9824  1.2631  1.9060
   96SAPS  H13Y 9592   0.822   3.143   8.466 -1.0707 -0.3354 -1.1513
   96SAPS  C314 9593   0.953   2.985   8.514  0.0570 -0.3543  0.2185
   96SAPS  H14X 9594   0.938   2.991   8.624 -0.9250 -1.0282  0.1318
   96SAPS  H14Y 9595   1.041   3.049   8.490  0.2217 -1.0700 -1.2114
   96SAPS  C315 9596   0.994   2.845   8.480  0.0428  0.4971  0.5820
   96SAPS  H15X 9597   1.021   2.851   8.372  1.5726  0.4998  0.9536
   96SAPS  H15Y 9598   0.910   2.774   8.495  0.0002  0.2719 -0.5807
   96SAPS  C316 9599   1.128   2.795   8.541 -0.2574 -0.3158  0.3953
   96SAPS  H16X 9600   1.117   2.778   8.650  3.0180  0.8714  1.0309
   96SAPS  H16Y 9601   1.203   2.877   8.547  0.1159 -0.7784  3.3755
   96SAPS  C317 9602   1.189   2.667   8.473  0.6718  0.5238  0.3999
   96SAPS  H17X 9603   1.206   2.678   8.364  2.9571 -0.8508  0.5688
   96SAPS  H17Y 9604   1.110   2.592   8.496  0.6889  1.1892  2.9386
   96SAPS  C318 9605   1.321   2.622   8.534  0.5207 -0.0186  1.3112
   96SAPS  H18X 9606   1.398   2.691   8.493  0.9811 -1.6454 -0.7487
   96SAPS  H18Y 9607   1.345   2.520   8.497  0.1481  0.8331 -1.5380
   96SAPS  H18Z 9608   1.316   2.637   8.644 -2.4986  1.1300  1.0999
   97SAPS     N 9609   1.782   2.127   6.404  0.8366 -0.1103 -0.2452
   97SAPS   HN1 9610   1.831   2.073   6.330  2.6419  1.3111 -0.1736
   97SAPS   HN2 9611   1.833   2.217   6.417  0.9045 -0.2561  0.5360
   97SAPS   HN3 9612   1.789   2.070   6.490 -2.2985 -2.8136 -1.5850
   97SAPS   C12 9613   1.635   2.146   6.367 -0.5682  0.2426 -0.1175
   97SAPS  H12A 9614   1.637   2.210   6.281  0.5050 -2.3400 -2.1375
   97SAPS   C13 9615   1.559   2.022   6.312  0.2805 -0.6511  0.0934
   97SAPS  O13A 9616   1.627   1.921   6.294 -0.1240  0.4215 -0.3553
   97SAPS  O13B 9617   1.438   2.032   6.277 -0.7127  0.1928 -0.0600
   97SAPS   C11 9618   1.565   2.219   6.493 -0.2059  0.2287 -0.4258
   97SAPS  H11A 9619   1.456   2.227   6.473 -0.6663 -0.6438  1.4468
   97SAPS  H11B 9620   1.610   2.320   6.501 -1.0233  0.8843 -3.3090
   97SAPS     P 9621   1.523   2.201   6.753  0.0181  0.3420  0.0269
   97SAPS   O13 9622   1.388   2.251   6.740  0.3312 -0.4161 -0.1174
   97SAPS   O14 9623   1.545   2.100   6.854  0.1500 -0.1983 -0.3569
   97SAPS   O12 9624   1.572   2.144   6.615  0.5351  0.8038 -0.3461
   97SAPS   O11 9625   1.633   2.320   6.774  0.0665 -0.1370 -0.2832
   97SAPS    C1 9626   1.770   2.301   6.757  0.4786  0.0076  0.2673
   97SAPS    HA 9627   1.797   2.216   6.691 -0.2113  0.3771 -0.5104
   97SAPS    HB 9628   1.799   2.386   6.692 -0.5094  0.4535  0.3941
   97SAPS    C2 9629   1.856   2.302   6.891 -0.3932 -0.0930 -0.1329
   97SAPS    HS 9630   1.964   2.321   6.877 -0.7216  3.0696  0.9172
   97SAPS   O21 9631   1.832   2.197   6.986 -0.0814 -0.1926 -0.3534
   97SAPS   C21 9632   1.862   2.077   6.942  0.2759  0.2103 -0.0580
   97SAPS   O22 9633   1.926   2.052   6.841 -0.4527  0.5284 -0.4386
   97SAPS   C22 9634   1.829   1.978   7.056  0.0399  1.0658  0.1664
   97SAPS   H2R 9635   1.757   2.029   7.124 -0.6580 -0.1780  0.3824
   97SAPS   H2S 9636   1.777   1.893   7.008  1.3132  1.1864 -1.5197
   97SAPS    C3 9637   1.815   2.439   6.960  0.0128 -0.2065 -0.2115
   97SAPS    HX 9638   1.705   2.456   6.964 -0.1030 -0.3881 -1.8427
   97SAPS    HY 9639   1.852   2.519   6.891 -0.5723 -1.2250 -1.7742
   97SAPS   O31 9640   1.871   2.454   7.095  0.1430  0.1927 -0.0705
   97SAPS   C31 9641   1.795   2.416   7.193  0.2928 -0.3885 -0.0972
   97SAPS   O32 9642   1.689   2.350   7.185  0.0115  0.4935  0.1353
   97SAPS   C32 9643   1.861   2.455   7.325 -0.1740 -0.4846 -0.9587
   97SAPS   H2X 9644   1.892   2.562   7.320  1.2116 -0.9210 -3.9281
   97SAPS   H2Y 9645   1.952   2.391   7.326  1.1540  1.3312 -1.2294
   97SAPS   C23 9646   1.952   1.918   7.132 -0.5624  0.5755  0.2772
   97SAPS   H3R 9647   2.028   1.888   7.056 -2.3215 -2.2331 -0.5304
   97SAPS   H3S 9648   1.932   1.821   7.182 -1.8456 -1.2231 -3.3701
   97SAPS   C24 9649   2.015   2.014   7.229  0.0789 -0.0052  0.1173
   97SAPS   H4R 9650   2.045   2.104   7.172  0.3313  0.2096  0.5828
   97SAPS   H4S 9651   2.109   1.967   7.264  0.1985  1.3125  1.6890
   97SAPS   C25 9652   1.933   2.046   7.351  0.1510  0.1703 -1.2746
   97SAPS   H5R 9653   1.829   2.069   7.325 -0.9451 -1.7570  1.1042
   97SAPS   C26 9654   1.968   2.032   7.479  0.2898  0.2167 -0.1597
   97SAPS   H6R 9655   1.900   2.053   7.562  0.4886 -0.8776  0.2969
   97SAPS   C27 9656   2.106   1.990   7.530 -0.0609 -0.5404  0.3640
   97SAPS   H7R 9657   2.161   1.951   7.442 -2.6353 -1.0033 -1.1485
   97SAPS   H7S 9658   2.099   1.897   7.590 -0.0474 -2.2232 -2.1167
   97SAPS   C28 9659   2.162   2.112   7.603  0.6719  1.1442 -0.1479
   97SAPS   H8R 9660   2.137   2.210   7.560  1.7871  1.6723  0.3591
   97SAPS   C29 9661   2.226   2.118   7.720  0.9503  0.5338  0.3093
   97SAPS   H9R 9662   2.278   2.214   7.739 -0.0201  1.3318 -0.9056
   97SAPS  C210 9663   2.262   1.996   7.801  0.2229  0.2441 -0.0283
   97SAPS  H10R 9664   2.350   2.028   7.862 -0.3278 -0.2674  1.0755
   97SAPS  H10S 9665   2.291   1.907   7.740 -0.4342 -0.2461  0.3550
   97SAPS  C211 9666   2.145   1.941   7.886  0.5979 -0.5484  0.5288
   97SAPS  H11R 9667   2.060   1.913   7.822  0.0673  0.1181  0.9369
   97SAPS  C212 9668   2.154   1.906   8.014 -0.0105  0.0961  0.3102
   97SAPS  H12R 9669   2.060   1.883   8.067 -1.3092 -2.0261 -2.6674
   97SAPS  C213 9670   2.267   1.918   8.107  0.2400 -0.1338  0.4375
   97SAPS  H13R 9671   2.340   1.989   8.061  1.9134 -0.7984  1.9239
   97SAPS  H13S 9672   2.315   1.818   8.118 -1.1219 -0.7036  1.3731
   97SAPS  C214 9673   2.221   1.970   8.236  0.0457 -0.4243 -0.3474
   97SAPS  H14R 9674   2.145   2.049   8.230 -1.3678 -1.3502  3.2608
   97SAPS  C215 9675   2.263   1.929   8.359 -0.6714  0.0829  1.0033
   97SAPS  H15R 9676   2.217   1.984   8.442 -1.4543  0.9992 -0.0124
   97SAPS  C216 9677   2.363   1.822   8.388  0.6281  0.5342  0.1349
   97SAPS  H16R 9678   2.456   1.872   8.423 -0.2500  2.7581 -0.5561
   97SAPS  H16S 9679   2.384   1.778   8.288 -0.8576 -1.4207  0.6293
   97SAPS  C217 9680   2.312   1.710   8.481 -0.5690  0.2043 -1.2633
   97SAPS  H17R 9681   2.290   1.747   8.584  1.2611 -0.2502 -0.6700
   97SAPS  H17S 9682   2.399   1.643   8.501  1.3965  2.6501 -0.9968
   97SAPS  C218 9683   2.192   1.639   8.432 -0.3053 -0.2417 -0.5785
   97SAPS  H18R 9684   2.204   1.591   8.332  0.6961  1.7124 -1.4525
   97SAPS  H18S 9685   2.108   1.710   8.417 -1.5967 -1.3463  1.0820
   97SAPS  C219 9686   2.129   1.533   8.526 -0.4213  0.9237  0.7790
   97SAPS  H19R 9687   2.208   1.457   8.540 -1.0379  0.4591  1.9313
   97SAPS  H19S 9688   2.046   1.484   8.471  0.1776  2.3031 -1.5004
   97SAPS  C220 9689   2.083   1.575   8.665  0.7835 -1.0897  1.0007
   97SAPS  H20R 9690   2.029   1.490   8.713 -1.3527 -0.8520 -0.8357
   97SAPS  H20S 9691   2.007   1.655   8.651  1.1076 -1.2534 -2.8563
   97SAPS  H20T 9692   2.167   1.622   8.720 -0.3245  2.2229  0.0689
   97SAPS   C33 9693   1.766   2.436   7.449 -0.2352  0.1066 -0.2472
   97SAPS   H3X 9694   1.760   2.329   7.480  0.1323  0.3702  0.7682
   97SAPS   H3Y 9695   1.665   2.462   7.412  0.0582  0.6489 -0.6738
   97SAPS   C34 9696   1.808   2.521   7.565 -0.5569  0.1016 -0.4083
   97SAPS   H4X 9697   1.725   2.525   7.638 -1.0500 -3.8467 -0.5064
   97SAPS   H4Y 9698   1.836   2.625   7.539  0.4365 -0.6304 -2.5101
   97SAPS   C35 9699   1.924   2.454   7.638  0.1466  0.6434 -0.6945
   97SAPS   H5X 9700   2.008   2.434   7.568  2.1864 -4.6868  2.6770
   97SAPS   H5Y 9701   1.881   2.355   7.662  0.0520  1.3824  2.6310
   97SAPS   C36 9702   1.956   2.525   7.776  0.0125  0.0123  0.4076
   97SAPS   H6X 9703   1.857   2.547   7.822  0.9533  0.7629  2.1613
   97SAPS   H6Y 9704   1.998   2.623   7.744 -2.0688  0.4519 -1.2354
   97SAPS   C37 9705   2.040   2.440   7.873  0.4193 -0.8867 -0.1413
   97SAPS   H7X 9706   2.136   2.412   7.824  0.7862  0.2638 -0.1195
   97SAPS   H7Y 9707   1.982   2.347   7.890 -1.6908  0.7575  2.5061
   97SAPS   C38 9708   2.080   2.510   7.997  0.3606  0.5226  0.4020
   97SAPS   H8X 9709   1.997   2.558   8.054  0.3928  0.3559  0.5914
   97SAPS   H8Y 9710   2.147   2.596   7.974  1.3403 -0.5748 -1.0259
   97SAPS   C39 9711   2.149   2.409   8.090  0.1137  0.0552  0.2797
   97SAPS   H9X 9712   2.255   2.402   8.060 -0.7190 -0.4730 -2.8430
   97SAPS   H9Y 9713   2.094   2.314   8.073 -2.4464  2.0932 -4.6845
   97SAPS  C310 9714   2.131   2.454   8.235 -0.1880 -0.0221 -0.9036
   97SAPS  H10X 9715   2.025   2.486   8.247  0.1997  1.2075 -0.6763
   97SAPS  H10Y 9716   2.198   2.540   8.252 -1.5220  0.9905 -0.6336
   97SAPS  C311 9717   2.175   2.340   8.332 -0.2927  0.0121 -0.5723
   97SAPS  H11X 9718   2.275   2.297   8.309 -0.7265 -0.6233 -1.3226
   97SAPS  H11Y 9719   2.110   2.252   8.312 -0.3926 -0.5314  1.7860
   97SAPS  C312 9720   2.168   2.380   8.483 -0.2922  0.0578 -0.0517
   97SAPS  H12X 9721   2.063   2.418   8.488 -0.5789 -0.6320 -0.7097
   97SAPS  H12Y 9722   2.243   2.460   8.500 -0.3352 -0.3121  2.1555
   97SAPS  C313 9723   2.195   2.260   8.580 -0.5063 -0.0797  0.1447
   97SAPS  H13X 9724   2.305   2.243   8.572 -0.3459  1.0098 -0.2887
   97SAPS  H13Y 9725   2.128   2.177   8.549 -2.5285  1.8147 -0.8159
   97SAPS  C314 9726   2.167   2.295   8.728 -0.0957  0.5175 -0.3339
   97SAPS  H14X 9727   2.128   2.205   8.779  0.0606  0.0934 -0.9516
   97SAPS  H14Y 9728   2.081   2.365   8.731  0.6220  1.4448 -0.5548
   97SAPS  C315 9729   2.287   2.360   8.802 -0.1033 -0.1777 -0.4691
   97SAPS  H15X 9730   2.381   2.302   8.786  0.3445  0.4324 -0.1165
   97SAPS  H15Y 9731   2.265   2.361   8.911  1.3127 -1.4807 -0.1370
   97SAPS  C316 9732   2.309   2.513   8.769 -0.2834 -0.0249 -0.5482
   97SAPS  H16X 9733   2.207   2.558   8.768 -0.0060  0.6674 -2.4959
   97SAPS  H16Y 9734   2.351   2.517   8.666  1.1021  0.4343  0.0178
   97SAPS  C317 9735   2.393   2.590   8.863  0.0592  0.9597 -0.4330
   97SAPS  H17X 9736   2.446   2.664   8.799  0.4976 -0.1262 -1.3493
   97SAPS  H17Y 9737   2.463   2.514   8.903 -2.7771 -0.1816  2.8652
   97SAPS  C318 9738   2.318   2.652   8.984  0.0784  0.3028 -0.2884
   97SAPS  H18X 9739   2.388   2.659   9.069  0.5785 -0.6550 -0.6048
   97SAPS  H18Y 9740   2.239   2.585   9.024 -1.0872  0.7083 -1.7938
   97SAPS  H18Z 9741   2.293   2.754   8.947  1.9862  0.9231  0.0395
   98SAPS     N 9742   4.403   0.395   6.144 -0.2423  0.3050  0.4521
   98SAPS   HN1 9743   4.502   0.401   6.174 -0.5936 -0.6110  1.9053
   98SAPS   HN2 9744   4.332   0.398   6.220 -2.3532  0.5461 -1.4337
   98SAPS   HN3 9745   4.404   0.304   6.094 -1.6478  1.1341 -1.1871
   98SAPS   C12 9746   4.384   0.487   6.039  0.0309 -0.7707 -0.5917
   98SAPS  H12A 9747   4.441   0.462   5.950 -4.2735 -0.4394 -3.7851
   98SAPS   C13 9748   4.244   0.500   5.964  0.5092 -0.1851  0.4742
   98SAPS  O13A 9749   4.142   0.429   5.995 -0.0269  0.1319 -0.2971
   98SAPS  O13B 9750   4.239   0.585   5.876  0.5829 -0.2724  0.0219
   98SAPS   C11 9751   4.409   0.626   6.096 -1.1342 -0.8318  0.5416
   98SAPS  H11A 9752   4.326   0.653   6.165 -2.1797 -1.2803 -0.4803
   98SAPS  H11B 9753   4.406   0.704   6.017 -1.6890  0.5762  1.9097
   98SAPS     P 9754   4.646   0.729   6.142 -0.0161 -0.0080 -0.3378
   98SAPS   O13 9755   4.682   0.734   6.000  0.1621  0.3554 -0.7066
   98SAPS   O14 9756   4.591   0.852   6.199 -0.3764  0.6749 -0.4364
   98SAPS   O12 9757   4.538   0.616   6.163 -0.1413 -0.0093  0.5628
   98SAPS   O11 9758   4.770   0.683   6.233 -0.3751 -0.0807 -0.2752
   98SAPS    C1 9759   4.745   0.647   6.371 -0.1002  0.0705  0.2960
   98SAPS    HA 9760   4.693   0.732   6.420  0.8266  1.8447 -1.6363
   98SAPS    HB 9761   4.690   0.550   6.376 -1.2942  0.6886 -0.5428
   98SAPS    C2 9762   4.878   0.642   6.457  0.2831  0.2883  0.5829
   98SAPS    HS 9763   4.950   0.582   6.397  1.4020  3.9998 -2.1559
   98SAPS   O21 9764   4.843   0.582   6.583 -0.3449  0.3415 -0.0082
   98SAPS   C21 9765   4.925   0.496   6.638 -0.6559 -0.0312 -0.4075
   98SAPS   O22 9766   5.024   0.447   6.588  0.0892  0.4812  0.3860
   98SAPS   C22 9767   4.878   0.468   6.777  0.0736  0.4945  0.5040
   98SAPS   H2R 9768   4.903   0.552   6.844  1.2888  0.2386  0.4019
   98SAPS   H2S 9769   4.768   0.473   6.757  0.5886 -0.1248 -3.4639
   98SAPS    C3 9770   4.947   0.778   6.479 -0.3853  0.1895 -0.3138
   98SAPS    HX 9771   4.866   0.843   6.520  1.3625  1.9047  0.5880
   98SAPS    HY 9772   4.994   0.807   6.382  4.7030  0.1384  1.8539
   98SAPS   O31 9773   5.056   0.775   6.577 -0.5147  0.3432 -0.0218
   98SAPS   C31 9774   5.095   0.902   6.618  0.1551  0.1288  0.0356
   98SAPS   O32 9775   5.061   1.001   6.558  0.2468  0.6136  0.4834
   98SAPS   C32 9776   5.199   0.883   6.727 -0.4823 -0.0316 -0.0634
   98SAPS   H2X 9777   5.281   0.815   6.697  1.6134  1.1184  2.6564
   98SAPS   H2Y 9778   5.138   0.835   6.806 -0.8695  2.2771  1.1248
   98SAPS   C23 9779   4.911   0.336   6.855 -0.5003 -0.1822  0.2121
   98SAPS   H3R 9780   5.021   0.344   6.866 -0.5859  0.0108  0.9842
   98SAPS   H3S 9781   4.897   0.248   6.789 -0.6433 -2.0424  2.5886
   98SAPS   C24 9782   4.850   0.322   6.991 -0.1171  0.5612 -0.8807
   98SAPS   H4R 9783   4.887   0.395   7.066 -2.4665 -0.8021  1.7546
   98SAPS   H4S 9784   4.882   0.226   7.037 -0.3431  0.6280 -0.5819
   98SAPS   C25 9785   4.702   0.315   7.007 -0.7340 -0.3421  1.4844
   98SAPS   H5R 9786   4.655   0.237   6.945 -1.6299 -0.2660  2.0335
   98SAPS   C26 9787   4.614   0.370   7.091  0.0564  0.5545  0.2564
   98SAPS   H6R 9788   4.517   0.320   7.099  0.6716 -0.4633  1.7369
   98SAPS   C27 9789   4.657   0.466   7.200 -0.6426 -0.1181  0.2417
   98SAPS   H7R 9790   4.766   0.467   7.221 -0.9157  3.4723  2.3068
   98SAPS   H7S 9791   4.603   0.424   7.288 -3.1258 -2.1391 -2.0717
   98SAPS   C28 9792   4.609   0.605   7.164 -0.0843 -0.2541 -1.0021
   98SAPS   H8R 9793   4.640   0.641   7.064  2.9523  1.2812  0.3468
   98SAPS   C29 9794   4.545   0.694   7.238  0.0696  0.1815  0.6026
   98SAPS   H9R 9795   4.520   0.786   7.182 -1.9788 -1.0245 -0.6094
   98SAPS  C210 9796   4.497   0.692   7.381  0.4415  0.6592 -0.3275
   98SAPS  H10R 9797   4.571   0.623   7.428  0.8330  1.6677  0.5728
   98SAPS  H10S 9798   4.396   0.648   7.394  1.1539 -0.4534  2.1707
   98SAPS  C211 9799   4.509   0.821   7.459  0.3024 -0.3673 -0.1212
   98SAPS  H11R 9800   4.485   0.914   7.403 -1.8049 -0.3981  0.6397
   98SAPS  C212 9801   4.548   0.846   7.585  0.1213  0.1054  0.1038
   98SAPS  H12R 9802   4.564   0.952   7.611 -0.7099 -0.0481  1.2836
   98SAPS  C213 9803   4.590   0.744   7.688 -0.3143  0.0929  0.2817
   98SAPS  H13R 9804   4.695   0.760   7.719  0.1811  1.0716 -1.7504
   98SAPS  H13S 9805   4.585   0.640   7.649  0.5323  0.0861  0.1643
   98SAPS  C214 9806   4.501   0.749   7.803 -0.1691 -0.3598 -0.7102
   98SAPS  H14R 9807   4.398   0.721   7.779 -0.4237 -0.2251  0.1930
   98SAPS  C215 9808   4.532   0.761   7.937 -0.3620 -0.2997 -0.4380
   98SAPS  H15R 9809   4.448   0.757   8.008  1.1712 -2.9719  1.4007
   98SAPS  C216 9810   4.668   0.781   7.997  0.0328 -0.7596  0.2285
   98SAPS  H16R 9811   4.699   0.885   7.974 -1.8214 -0.1289  0.3695
   98SAPS  H16S 9812   4.746   0.719   7.950  1.6328  0.6660  0.8794
   98SAPS  C217 9813   4.686   0.772   8.153 -0.2175  0.1592 -0.5041
   98SAPS  H17R 9814   4.626   0.848   8.209  0.2312 -1.2475  2.0041
   98SAPS  H17S 9815   4.794   0.793   8.169 -0.5049  0.9276  0.5269
   98SAPS  C218 9816   4.654   0.630   8.205  0.2474 -0.1542  1.3797
   98SAPS  H18R 9817   4.741   0.566   8.178 -0.2480 -0.1261 -0.3847
   98SAPS  H18S 9818   4.563   0.598   8.149 -0.4585  2.0827  1.1505
   98SAPS  C219 9819   4.622   0.631   8.351 -0.1334  0.6707  0.4968
   98SAPS  H19R 9820   4.521   0.677   8.347  0.0955  1.1291 -0.2059
   98SAPS  H19S 9821   4.688   0.701   8.406  0.4272  1.6315 -1.3167
   98SAPS  C220 9822   4.602   0.499   8.415  0.5676  0.0147  0.3341
   98SAPS  H20R 9823   4.579   0.507   8.523 -3.5115 -3.2633 -0.0223
   98SAPS  H20S 9824   4.685   0.425   8.414 -1.4948 -2.4317  0.1342
   98SAPS  H20T 9825   4.514   0.443   8.375  0.5514 -0.1525  0.5975
   98SAPS   C33 9826   5.274   1.005   6.779 -0.3344 -0.3523  0.7308
   98SAPS   H3X 9827   5.222   1.099   6.752  0.3027 -0.3580 -0.6006
   98SAPS   H3Y 9828   5.378   1.023   6.745 -0.3482 -1.9152 -0.2554
   98SAPS   C34 9829   5.279   1.013   6.930  0.0613  0.0203  0.7115
   98SAPS   H4X 9830   5.292   0.910   6.969 -0.5165 -0.4543 -0.3009
   98SAPS   H4Y 9831   5.177   1.050   6.955 -0.4345  0.8815 -2.1680
   98SAPS   C35 9832   5.371   1.112   6.986 -0.2787  0.1935  0.2553
   98SAPS   H5X 9833   5.356   1.217   6.953  1.7870  0.3664 -0.2764
   98SAPS   H5Y 9834   5.477   1.102   6.955 -0.5504 -1.0369 -0.3150
   98SAPS   C36 9835   5.361   1.102   7.141  0.0475  0.5318  0.6524
   98SAPS   H6X 9836   5.392   0.999   7.170 -2.4064 -0.4664 -0.0242
   98SAPS   H6Y 9837   5.257   1.112   7.178 -0.0442 -1.6351  1.1289
   98SAPS   C37 9838   5.450   1.206   7.209 -0.3187  0.2842 -0.3136
   98SAPS   H7X 9839   5.419   1.309   7.183 -1.5071 -0.2070 -0.9279
   98SAPS   H7Y 9840   5.553   1.185   7.174 -0.5295 -0.6184 -0.4327
   98SAPS   C38 9841   5.463   1.195   7.363  0.4495  0.3286 -0.3131
   98SAPS   H8X 9842   5.548   1.257   7.399  1.8540 -0.4701 -2.0566
   98SAPS   H8Y 9843   5.459   1.086   7.385 -3.6379  0.7853  2.2874
   98SAPS   C39 9844   5.332   1.256   7.430  0.1690 -0.6399 -0.6447
   98SAPS   H9X 9845   5.247   1.195   7.394 -1.9827  1.8468 -0.0914
   98SAPS   H9Y 9846   5.307   1.356   7.389 -2.4200 -1.8103 -2.2210
   98SAPS  C310 9847   5.335   1.274   7.590 -0.8254  0.4265 -0.1043
   98SAPS  H10X 9848   5.353   1.172   7.630  0.9166  1.5090  2.1393
   98SAPS  H10Y 9849   5.236   1.317   7.618 -0.1771  2.2234 -0.4213
   98SAPS  C311 9850   5.454   1.355   7.646 -0.1828  0.0648 -0.6738
   98SAPS  H11X 9851   5.464   1.450   7.588 -1.6453  0.6397 -0.0352
   98SAPS  H11Y 9852   5.550   1.301   7.633  0.3528  0.5284  1.1220
   98SAPS  C312 9853   5.436   1.394   7.793 -0.2250  0.2847  0.8367
   98SAPS  H12X 9854   5.348   1.462   7.799  2.1439  4.2777 -2.9314
   98SAPS  H12Y 9855   5.522   1.454   7.831 -0.2842 -0.6052  2.4059
   98SAPS  C313 9856   5.427   1.275   7.887 -0.1578 -0.5851 -0.2048
   98SAPS  H13X 9857   5.528   1.228   7.878  0.4557  0.6292  0.0223
   98SAPS  H13Y 9858   5.355   1.201   7.846  2.1413 -1.7301 -2.5395
   98SAPS  C314 9859   5.395   1.309   8.035 -0.0524 -0.2886  0.3572
   98SAPS  H14X 9860   5.288   1.339   8.024  0.4253  1.0171 -1.0689
   98SAPS  H14Y 9861   5.456   1.392   8.078 -1.1338  0.3199  0.7702
   98SAPS  C315 9862   5.403   1.173   8.108 -0.3816  0.5911 -0.2844
   98SAPS  H15X 9863   5.375   1.094   8.035 -0.1901 -0.2543  0.5371
   98SAPS  H15Y 9864   5.336   1.171   8.197 -1.0408  1.7543 -0.7240
   98SAPS  C316 9865   5.542   1.146   8.166 -0.4876  0.2204 -0.5591
   98SAPS  H16X 9866   5.614   1.147   8.082 -2.4885 -0.3265 -2.3919
   98SAPS  H16Y 9867   5.556   1.045   8.210 -0.2731  0.4763 -0.0324
   98SAPS  C317 9868   5.578   1.241   8.282  0.2948  0.5507 -0.4539
   98SAPS  H17X 9869   5.498   1.238   8.359  1.7871  0.6319  1.1469
   98SAPS  H17Y 9870   5.584   1.343   8.237 -0.6160 -0.7026 -3.7048
   98SAPS  C318 9871   5.709   1.219   8.360  1.1016  0.2970  0.9235
   98SAPS  H18X 9872   5.689   1.135   8.430 -0.4123 -1.3148 -1.2954
   98SAPS  H18Y 9873   5.746   1.317   8.397 -1.0985  2.0125 -1.1083
   98SAPS  H18Z 9874   5.781   1.178   8.287  3.4754  0.7252  2.8880
   99SAPS     N 9875   4.814   6.012   5.903 -0.7777 -0.0450 -0.1736
   99SAPS   HN1 9876   4.854   6.075   5.831 -0.4470  0.9809  0.8808
   99SAPS   HN2 9877   4.713   5.996   5.881 -0.3305 -1.7291 -1.2025
   99SAPS   HN3 9878   4.828   6.051   5.998 -0.2134  0.4104 -0.4418
   99SAPS   C12 9879   4.879   5.884   5.889  0.0688  0.1146  0.3622
   99SAPS  H12A 9880   4.843   5.834   5.800  1.8042  1.3487 -1.1208
   99SAPS   C13 9881   5.027   5.890   5.859 -0.3478 -0.0513 -0.5344
   99SAPS  O13A 9882   5.084   6.006   5.864 -0.3680 -0.1953 -0.0979
   99SAPS  O13B 9883   5.100   5.787   5.840 -0.1842  0.1660 -0.7000
   99SAPS   C11 9884   4.853   5.808   6.013 -0.1315  0.5818 -0.3994
   99SAPS  H11A 9885   4.888   5.868   6.099 -1.7297  0.0102  0.6797
   99SAPS  H11B 9886   4.911   5.713   6.004 -0.0069  0.7145 -1.1435
   99SAPS     P 9887   4.643   5.671   6.093  0.2003  0.2967 -0.3314
   99SAPS   O13 9888   4.522   5.733   6.157  0.4755 -0.0723  0.0157
   99SAPS   O14 9889   4.624   5.566   5.998  0.1050  0.2062  0.1658
   99SAPS   O12 9890   4.712   5.789   6.022 -0.7370 -0.3751 -0.0248
   99SAPS   O11 9891   4.737   5.637   6.212 -0.1569  0.1198  0.2940
   99SAPS    C1 9892   4.731   5.713   6.332  0.0995 -0.0856 -0.1716
   99SAPS    HA 9893   4.835   5.732   6.366  0.2115  1.9839 -1.4620
   99SAPS    HB 9894   4.720   5.821   6.309  3.0617 -0.0624 -2.0014
   99SAPS    C2 9895   4.630   5.662   6.432  0.0099  0.5187 -0.1682
   99SAPS    HS 9896   4.535   5.710   6.398  0.8530  1.0361 -1.9076
   99SAPS   O21 9897   4.662   5.717   6.559 -0.0228  0.4181 -0.0290
   99SAPS   C21 9898   4.559   5.752   6.635  0.2481  0.6508  0.5870
   99SAPS   O22 9899   4.444   5.775   6.599 -0.5001  0.6754 -0.6815
   99SAPS   C22 9900   4.611   5.783   6.768 -0.0771 -0.5651 -0.5839
   99SAPS   H2R 9901   4.722   5.793   6.771 -0.0095 -1.4331  1.4461
   99SAPS   H2S 9902   4.574   5.886   6.785 -0.1970 -0.9738  2.0516
   99SAPS    C3 9903   4.615   5.507   6.436  0.5037  0.2213  0.3123
   99SAPS    HX 9904   4.712   5.472   6.477  0.4095  1.3953  1.6299
   99SAPS    HY 9905   4.605   5.458   6.337 -0.0253  0.7747  0.0859
   99SAPS   O31 9906   4.493   5.482   6.524  0.0612 -0.5127  0.3966
   99SAPS   C31 9907   4.522   5.397   6.631 -0.0852  0.3873 -0.0411
   99SAPS   O32 9908   4.637   5.364   6.659 -0.0813  0.0076 -0.2832
   99SAPS   C32 9909   4.396   5.381   6.704  1.0918  0.2814 -0.7560
   99SAPS   H2X 9910   4.323   5.313   6.655  0.2254  0.0767  0.7713
   99SAPS   H2Y 9911   4.347   5.480   6.719 -0.4086 -0.6347  0.6782
   99SAPS   C23 9912   4.572   5.691   6.882  0.3967 -0.1580  0.0456
   99SAPS   H3R 9913   4.628   5.723   6.972 -1.0854 -1.6915  1.5901
   99SAPS   H3S 9914   4.592   5.583   6.866 -0.0139 -0.6027  2.2584
   99SAPS   C24 9915   4.425   5.693   6.912 -0.5574  0.5576 -0.8652
   99SAPS   H4R 9916   4.410   5.613   6.988  0.8211  0.3584 -0.7731
   99SAPS   H4S 9917   4.356   5.662   6.831 -2.3537  0.3945  0.6631
   99SAPS   C25 9918   4.372   5.823   6.972 -0.4791 -0.3921 -0.0232
   99SAPS   H5R 9919   4.349   5.892   6.889  3.0720 -0.1935 -1.0294
   99SAPS   C26 9920   4.372   5.853   7.104 -0.0030 -0.5552 -0.2905
   99SAPS   H6R 9921   4.343   5.954   7.135 -1.1652 -1.1219  0.5613
   99SAPS   C27 9922   4.426   5.763   7.214  0.0361 -0.0624 -0.0072
   99SAPS   H7R 9923   4.497   5.830   7.268 -0.4949  1.9418 -1.6406
   99SAPS   H7S 9924   4.496   5.689   7.171 -0.4764 -0.1943 -0.6319
   99SAPS   C28 9925   4.333   5.695   7.312  0.0763 -0.5627  0.4338
   99SAPS   H8R 9926   4.243   5.655   7.262  1.4903 -1.2773 -1.7001
   99SAPS   C29 9927   4.348   5.686   7.443 -0.1077 -0.3939  0.0410
   99SAPS   H9R 9928   4.262   5.641   7.495 -0.1038 -0.4296  0.0166
   99SAPS  C210 9929   4.465   5.723   7.524 -0.0720 -0.1792 -0.7255
   99SAPS  H10R 9930   4.544   5.787   7.479  1.3231 -0.5404  1.0925
   99SAPS  H10S 9931   4.499   5.633   7.581 -2.4129 -1.1919 -0.8175
   99SAPS  C211 9932   4.406   5.816   7.626 -0.1381  0.2419  0.0020
   99SAPS  H11R 9933   4.412   5.924   7.603  2.4854  0.6560  2.2168
   99SAPS  C212 9934   4.342   5.787   7.741  0.4646  0.3068 -0.3237
   99SAPS  H12R 9935   4.301   5.868   7.803 -0.1115 -0.8574  0.8661
   99SAPS  C213 9936   4.312   5.638   7.789  0.4876  0.0950  0.4835
   99SAPS  H13R 9937   4.369   5.628   7.884  1.2281 -1.1278 -0.0783
   99SAPS  H13S 9938   4.336   5.559   7.716 -2.6823  0.5081 -1.1772
   99SAPS  C214 9939   4.158   5.620   7.801  0.7830  0.1903  0.6371
   99SAPS  H14R 9940   4.100   5.694   7.744 -0.7813 -1.3234  0.2116
   99SAPS  C215 9941   4.087   5.523   7.861  0.0875  0.5437  0.5655
   99SAPS  H15R 9942   3.979   5.534   7.874  0.0036  0.6224 -0.1571
   99SAPS  C216 9943   4.147   5.408   7.939 -0.1903  0.4004  1.0133
   99SAPS  H16R 9944   4.254   5.401   7.909 -0.8556 -1.5177 -1.1931
   99SAPS  H16S 9945   4.089   5.316   7.915  1.0387 -0.1792  0.1879
   99SAPS  C217 9946   4.127   5.431   8.095  0.0744  0.0314  0.1386
   99SAPS  H17R 9947   4.186   5.354   8.148  0.5001 -0.5519 -1.1408
   99SAPS  H17S 9948   4.021   5.405   8.116 -0.5724  2.4312  0.0986
   99SAPS  C218 9949   4.155   5.570   8.155 -0.3585 -0.7361 -0.5762
   99SAPS  H18R 9950   4.081   5.650   8.138  2.0598  2.3060  1.8702
   99SAPS  H18S 9951   4.252   5.593   8.106 -0.2390 -0.9743 -0.4567
   99SAPS  C219 9952   4.189   5.573   8.307  0.5657  0.5309 -0.2142
   99SAPS  H19R 9953   4.237   5.668   8.340  0.9674 -0.1575  1.2672
   99SAPS  H19S 9954   4.259   5.489   8.326 -2.5267 -3.3623 -4.0267
   99SAPS  C220 9955   4.068   5.546   8.406  0.3359 -0.2891 -0.0294
   99SAPS  H20R 9956   4.019   5.646   8.403  3.4626  1.3754 -1.3762
   99SAPS  H20S 9957   4.101   5.526   8.510  3.1961  1.6737 -0.4401
   99SAPS  H20T 9958   4.002   5.461   8.379 -0.5606  0.0724  0.9422
   99SAPS   C33 9959   4.423   5.312   6.847 -0.0550 -0.0361 -0.2119
   99SAPS   H3X 9960   4.514   5.357   6.892 -0.2704  2.0353 -1.7048
   99SAPS   H3Y 9961   4.428   5.204   6.821 -1.4547 -0.1989  0.0763
   99SAPS   C34 9962   4.300   5.341   6.934 -0.3912 -0.0347  0.1963
   99SAPS   H4X 9963   4.214   5.280   6.900 -0.8148  0.0315  1.1250
   99SAPS   H4Y 9964   4.268   5.447   6.926  2.1354  0.7470 -0.4466
   99SAPS   C35 9965   4.317   5.297   7.083 -0.0723 -0.3660 -0.5289
   99SAPS   H5X 9966   4.325   5.186   7.093 -3.0359 -0.5856  0.4702
   99SAPS   H5Y 9967   4.226   5.331   7.138  0.5394 -0.1962  0.3990
   99SAPS   C36 9968   4.438   5.351   7.159  0.3216 -0.7101 -0.1872
   99SAPS   H6X 9969   4.459   5.451   7.114  1.4017 -0.7483  0.2064
   99SAPS   H6Y 9970   4.525   5.289   7.132  0.0641 -1.6575  1.0786
   99SAPS   C37 9971   4.422   5.343   7.314  0.3072  0.4888 -0.5657
   99SAPS   H7X 9972   4.321   5.384   7.332 -0.2801 -1.2955  0.4456
   99SAPS   H7Y 9973   4.493   5.414   7.363  2.5187 -0.4630 -2.2162
   99SAPS   C38 9974   4.416   5.203   7.376  0.4394  0.1659 -0.3709
   99SAPS   H8X 9975   4.503   5.138   7.351 -2.0567 -2.9654 -1.6718
   99SAPS   H8Y 9976   4.321   5.148   7.357 -0.0039  0.8500 -0.1554
   99SAPS   C39 9977   4.434   5.206   7.531  0.5047  0.0796 -0.5089
   99SAPS   H9X 9978   4.336   5.243   7.569  0.9639 -0.8464  1.7048
   99SAPS   H9Y 9979   4.508   5.282   7.561  1.4514 -0.3154 -1.7525
   99SAPS  C310 9980   4.445   5.057   7.585 -0.4796 -0.8799  0.2014
   99SAPS  H10X 9981   4.518   5.007   7.518  0.1543  0.6480 -0.2854
   99SAPS  H10Y 9982   4.346   5.005   7.589 -1.2538  0.5961  1.0567
   99SAPS  C311 9983   4.505   5.063   7.722  0.5280  0.6456  0.3271
   99SAPS  H11X 9984   4.601   5.119   7.708 -1.0934  3.5148 -0.1311
   99SAPS  H11Y 9985   4.528   4.957   7.748  1.5374  1.3436  2.6087
   99SAPS  C312 9986   4.422   5.130   7.834  0.3360  0.7545  0.3802
   99SAPS  H12X 9987   4.323   5.078   7.837  0.3709  0.6295 -0.4064
   99SAPS  H12Y 9988   4.404   5.237   7.813  0.7120  1.2771  2.5126
   99SAPS  C313 9989   4.507   5.117   7.966  0.4420 -0.0055  0.7228
   99SAPS  H13X 9990   4.606   5.160   7.940  1.3532 -1.8112  1.0939
   99SAPS  H13Y 9991   4.516   5.010   7.994  1.4192 -0.4276 -1.0487
   99SAPS  C314 9992   4.455   5.222   8.073 -0.5223 -0.2069 -0.0860
   99SAPS  H14X 9993   4.346   5.204   8.062 -1.0670  1.7571  1.5335
   99SAPS  H14Y 9994   4.470   5.330   8.052 -1.6153  0.3547  1.8374
   99SAPS  C315 9995   4.511   5.194   8.207  1.3350  0.4310  0.1986
   99SAPS  H15X 9996   4.622   5.195   8.200  1.5845 -5.4863 -1.8254
   99SAPS  H15Y 9997   4.483   5.090   8.234 -0.0603  1.1300  1.6451
   99SAPS  C316 9998   4.465   5.291   8.316  0.2626  0.4556  0.2812
   99SAPS  H16X 9999   4.364   5.250   8.337  1.4394 -1.7392  2.0044
   99SAPS  H16Y10000   4.459   5.397   8.282 -0.2282  0.0202 -1.0635
   99SAPS  C31710001   4.527   5.274   8.460 -0.3214 -0.0391  0.7901
   99SAPS  H17X10002   4.624   5.327   8.472 -0.5129  0.2453  1.1328
   99SAPS  H17Y10003   4.539   5.166   8.483 -0.0794 -0.2648 -0.3267
   99SAPS  C31810004   4.447   5.357   8.563 -0.1406  0.6664  0.3417
   99SAPS  H18X10005   4.446   5.467   8.550  2.3966  0.8667  1.3417
   99SAPS  H18Y10006   4.485   5.326   8.663 -0.9457 -3.0380 -0.3315
   99SAPS  H18Z10007   4.341   5.324   8.568 -0.0192  0.4345  2.1218
  100SAPS     N10008   6.401   1.492   6.530 -0.2749 -0.3481  0.2865
  100SAPS   HN110009   6.405   1.576   6.591 -0.2198  1.2053 -1.7655
  100SAPS   HN210010   6.303   1.464   6.508 -0.4333  0.2012  0.2876
  100SAPS   HN310011   6.431   1.412   6.589 -1.4077  0.4456  2.0051
  100SAPS   C1210012   6.474   1.518   6.402 -0.4878  0.0894  0.4410
  100SAPS  H12A10013   6.478   1.426   6.347  1.0030  0.6219 -0.3902
  100SAPS   C1310014   6.407   1.624   6.314 -0.2866 -1.0234  0.3744
  100SAPS  O13A10015   6.293   1.665   6.336  0.0453  0.0005 -0.5974
  100SAPS  O13B10016   6.467   1.663   6.211  0.1913  0.1172 -0.1354
  100SAPS   C1110017   6.620   1.549   6.438  0.5524 -1.0523 -0.0926
  100SAPS  H11A10018   6.642   1.529   6.545 -0.2609 -0.4583  0.2008
  100SAPS  H11B10019   6.634   1.659   6.429  0.7839 -1.0449  0.3330
  100SAPS     P10020   6.869   1.463   6.377 -0.0658  0.1458 -0.0848
  100SAPS   O1310021   6.950   1.466   6.251 -0.2202 -0.3540  0.6383
  100SAPS   O1410022   6.909   1.559   6.484  0.7925  0.5011 -0.2970
  100SAPS   O1210023   6.710   1.475   6.353 -0.2690  0.2901 -0.8965
  100SAPS   O1110024   6.882   1.319   6.423  0.4873  0.1779  0.3047
  100SAPS    C110025   6.800   1.257   6.524 -0.2156 -0.1517 -0.7930
  100SAPS    HA10026   6.730   1.328   6.572 -0.9519 -0.5619 -1.2457
  100SAPS    HB10027   6.725   1.186   6.484 -2.9047  1.0346  1.8025
  100SAPS    C210028   6.870   1.186   6.635  0.2333  0.1838  0.6375
  100SAPS    HS10029   6.804   1.107   6.677 -1.4048  1.5739  0.8152
  100SAPS   O2110030   6.900   1.288   6.735  0.2849  0.1185 -0.0452
  100SAPS   C2110031   6.801   1.319   6.821 -0.6936 -0.2835  0.3476
  100SAPS   O2210032   6.700   1.261   6.839 -0.6824 -0.1370  0.1176
  100SAPS   C2210033   6.850   1.435   6.903  0.2494  0.0102 -0.3119
  100SAPS   H2R10034   6.942   1.415   6.962  0.6914  0.3463 -0.8732
  100SAPS   H2S10035   6.879   1.513   6.829 -1.9018  0.5853 -0.6066
  100SAPS    C310036   6.999   1.121   6.582 -0.5278  0.0120 -0.0826
  100SAPS    HX10037   7.053   1.196   6.521  1.9779 -1.5492  0.0640
  100SAPS    HY10038   6.976   1.031   6.521  1.2562 -1.2025  0.9266
  100SAPS   O3110039   7.095   1.076   6.691  0.3173  0.6122  0.1420
  100SAPS   C3110040   7.167   1.161   6.755  0.0603  0.2940 -0.5198
  100SAPS   O3210041   7.181   1.277   6.728  0.1875 -0.1935 -0.6599
  100SAPS   C3210042   7.236   1.085   6.869 -0.4584  0.1171  0.1214
  100SAPS   H2X10043   7.345   1.090   6.850 -0.5825  2.5940 -0.2006
  100SAPS   H2Y10044   7.215   0.976   6.856  3.1666 -0.7351  0.3119
  100SAPS   C2310045   6.739   1.481   6.998  0.2197 -0.6902 -0.0025
  100SAPS   H3R10046   6.715   1.401   7.071 -1.6202 -1.9117 -1.8245
  100SAPS   H3S10047   6.653   1.514   6.935  0.4167 -3.9367 -2.2028
  100SAPS   C2410048   6.794   1.597   7.087  0.6637  0.0469 -0.4093
  100SAPS   H4R10049   6.899   1.587   7.122  1.4510  1.4707 -2.1831
  100SAPS   H4S10050   6.729   1.605   7.177 -0.6142 -3.5745 -0.8427
  100SAPS   C2510051   6.797   1.720   6.999  0.5357  0.0334 -0.5096
  100SAPS   H5R10052   6.801   1.694   6.892 -0.0419  0.4072 -0.6251
  100SAPS   C2610053   6.787   1.847   7.040  0.7630  0.1186 -0.0910
  100SAPS   H6R10054   6.778   1.921   6.958 -0.8804  0.7318  0.6000
  100SAPS   C2710055   6.779   1.886   7.186 -0.7225  0.2896 -0.1371
  100SAPS   H7R10056   6.876   1.870   7.237 -0.4888  3.2432  0.4925
  100SAPS   H7S10057   6.708   1.821   7.244  0.2969  0.4359  1.3199
  100SAPS   C2810058   6.749   2.031   7.207  0.3766 -0.2841 -0.6735
  100SAPS   H8R10059   6.737   2.092   7.117  2.1820  1.0790 -0.0355
  100SAPS   C2910060   6.738   2.093   7.330 -0.5623  0.3707 -0.0404
  100SAPS   H9R10061   6.721   2.202   7.334  3.1372  1.0640  1.0226
  100SAPS  C21010062   6.750   2.032   7.460  0.3906  0.2494 -0.3834
  100SAPS  H10R10063   6.691   1.938   7.456 -0.5684  0.8074  0.3581
  100SAPS  H10S10064   6.689   2.085   7.536 -0.0704 -1.2884  0.3574
  100SAPS  C21110065   6.884   2.007   7.522 -0.2454  0.2930 -0.3243
  100SAPS  H11R10066   6.969   2.010   7.452  1.1738 -0.4885  1.2935
  100SAPS  C21210067   6.919   1.974   7.648  1.1014  0.1349 -0.4328
  100SAPS  H12R10068   7.026   1.957   7.664  1.3296  2.3556  0.6970
  100SAPS  C21310069   6.822   1.944   7.763 -0.5211  0.0786  0.3445
  100SAPS  H13R10070   6.725   1.997   7.752  0.0045  0.7438 -1.3272
  100SAPS  H13S10071   6.865   1.974   7.861 -0.4718 -2.3929  1.1670
  100SAPS  C21410072   6.795   1.800   7.775  0.2070 -0.1722  0.2806
  100SAPS  H14R10073   6.710   1.765   7.714  0.7355 -0.9440 -0.0254
  100SAPS  C21510074   6.870   1.711   7.841  0.7749 -0.3144 -0.6500
  100SAPS  H15R10075   6.826   1.610   7.836  1.3329 -0.5702 -0.4309
  100SAPS  C21610076   6.999   1.731   7.910  0.1473 -0.9591 -0.6503
  100SAPS  H16R10077   7.034   1.836   7.897 -0.9379 -0.6042 -0.8499
  100SAPS  H16S10078   7.069   1.657   7.864  1.2384 -0.3947  0.0569
  100SAPS  C21710079   6.983   1.715   8.068 -0.0961 -0.1781 -0.6038
  100SAPS  H17R10080   6.897   1.774   8.104 -0.0228 -2.2884  3.6357
  100SAPS  H17S10081   7.066   1.773   8.113  0.0844 -0.0169 -1.1292
  100SAPS  C21810082   6.990   1.566   8.105 -0.4459 -0.7056  0.0370
  100SAPS  H18R10083   6.920   1.511   8.038 -0.8316  0.2830 -0.3904
  100SAPS  H18S10084   6.969   1.553   8.213  0.2243 -0.3103  0.2189
  100SAPS  C21910085   7.134   1.515   8.084  0.1430  0.5684 -0.5849
  100SAPS  H19R10086   7.202   1.576   8.147  0.9019 -1.3559  0.5393
  100SAPS  H19S10087   7.168   1.520   7.979  0.2411 -2.2001 -0.7612
  100SAPS  C22010088   7.158   1.372   8.121 -0.1338 -0.8017  0.5199
  100SAPS  H20R10089   7.249   1.378   8.184  1.3783  2.7299 -1.7252
  100SAPS  H20S10090   7.178   1.305   8.035  1.0138  0.1179  0.0505
  100SAPS  H20T10091   7.069   1.333   8.175 -1.9812  0.4510 -1.4532
  100SAPS   C3310092   7.216   1.154   7.005  0.1988 -0.1603  0.0061
  100SAPS   H3X10093   7.109   1.171   7.028  1.0912  3.0440  2.6550
  100SAPS   H3Y10094   7.263   1.255   7.009 -0.3913  0.1322 -0.2826
  100SAPS   C3410095   7.272   1.073   7.121 -0.0216 -0.3339 -0.0967
  100SAPS   H4X10096   7.380   1.048   7.111  0.0247 -0.1804  0.0124
  100SAPS   H4Y10097   7.220   0.975   7.120 -0.4531 -0.1100  0.2129
  100SAPS   C3510098   7.246   1.150   7.256 -0.2326  0.1300  0.5986
  100SAPS   H5X10099   7.137   1.170   7.262 -0.3223 -0.0537 -0.3105
  100SAPS   H5Y10100   7.299   1.247   7.250 -1.7361  0.8783 -1.9806
  100SAPS   C3610101   7.283   1.067   7.382 -0.1147  0.2035  0.2202
  100SAPS   H6X10102   7.378   1.010   7.372  1.0652  1.6803  2.3641
  100SAPS   H6Y10103   7.201   0.996   7.406 -0.9175  0.9003 -0.3571
  100SAPS   C3710104   7.295   1.157   7.500 -0.9635 -0.4467 -0.6729
  100SAPS   H7X10105   7.197   1.208   7.516 -0.5924  0.3197 -0.7990
  100SAPS   H7Y10106   7.364   1.236   7.463 -1.3497  0.4831  0.5085
  100SAPS   C3810107   7.340   1.082   7.625  0.0164  0.0386  0.8321
  100SAPS   H8X10108   7.433   1.028   7.597  0.2289 -1.2079  3.5450
  100SAPS   H8Y10109   7.263   1.008   7.656 -0.5152 -0.0949 -0.7337
  100SAPS   C3910110   7.360   1.182   7.741 -0.3138 -0.1945  0.5353
  100SAPS   H9X10111   7.267   1.240   7.762 -1.7259 -1.7213 -1.0784
  100SAPS   H9Y10112   7.438   1.252   7.705  0.9831 -2.8129 -2.2246
  100SAPS  C31010113   7.400   1.105   7.866 -0.3108  0.1990  0.1598
  100SAPS  H10X10114   7.482   1.039   7.831 -0.5785 -0.1216  0.1360
  100SAPS  H10Y10115   7.328   1.031   7.905 -0.9493 -0.4465 -2.1333
  100SAPS  C31110116   7.455   1.186   7.977  0.1614  0.2547 -0.1894
  100SAPS  H11X10117   7.515   1.133   8.053 -0.2339  2.7065  2.0193
  100SAPS  H11Y10118   7.372   1.231   8.036  0.1579 -0.1285  0.1035
  100SAPS  C31210119   7.555   1.302   7.935  0.3283  0.4920  0.1204
  100SAPS  H12X10120   7.492   1.368   7.872 -1.3116 -0.6287  0.5377
  100SAPS  H12Y10121   7.642   1.260   7.880  0.4942  0.8818  0.0766
  100SAPS  C31310122   7.618   1.382   8.046  0.6652 -0.7439  0.1629
  100SAPS  H13X10123   7.689   1.450   7.993 -0.6969  1.9467  1.5882
  100SAPS  H13Y10124   7.684   1.322   8.112 -2.0359 -2.9462  0.9883
  100SAPS  C31410125   7.533   1.472   8.136  0.2026  0.9418  0.0046
  100SAPS  H14X10126   7.466   1.405   8.194  1.7077 -1.3441 -0.7374
  100SAPS  H14Y10127   7.477   1.538   8.067  2.2286  2.2842 -0.4649
  100SAPS  C31510128   7.597   1.556   8.244  0.5450  0.4225  0.4061
  100SAPS  H15X10129   7.526   1.638   8.271 -2.2149 -1.0824 -1.8160
  100SAPS  H15Y10130   7.702   1.587   8.225  0.7969  0.0188  1.1048
  100SAPS  C31610131   7.604   1.474   8.375 -0.1212  0.9691 -0.0567
  100SAPS  H16X10132   7.693   1.408   8.365 -0.6587  0.4240 -1.5039
  100SAPS  H16Y10133   7.517   1.405   8.377 -0.0703  0.9064  2.3729
  100SAPS  C31710134   7.620   1.558   8.503  0.5643  0.2193 -0.1187
  100SAPS  H17X10135   7.617   1.497   8.595 -0.3405 -0.3974 -0.5467
  100SAPS  H17Y10136   7.531   1.624   8.495  1.0536  0.7782 -1.4071
  100SAPS  C31810137   7.750   1.644   8.487  0.0047 -0.3809  0.1029
  100SAPS  H18X10138   7.774   1.703   8.578 -0.0922 -2.7795  1.7616
  100SAPS  H18Y10139   7.739   1.715   8.402 -0.8942 -0.4393  0.1566
  100SAPS  H18Z10140   7.835   1.577   8.464  0.7500  0.2277  1.0426
  101OSM      N10141   0.583   1.803  11.370  0.2390  0.1659  1.2034
  101OSM    C1510142   0.450   1.757  11.439  0.4052 -0.1274  0.1467
  101OSM   H15A10143   0.466   1.682  11.514  2.1344 -2.0220 -1.9535
  101OSM   H15B10144   0.391   1.710  11.362  0.5404 -1.5940  0.9120
  101OSM   H15C10145   0.399   1.849  11.465 -2.4626 -1.0660 -1.6427
  101OSM    C1410146   0.574   1.938  11.312 -0.2719  0.1892  0.0302
  101OSM   H14A10147   0.539   1.934  11.209  2.1164 -0.1083 -0.8413
  101OSM   H14B10148   0.666   1.993  11.311 -0.5704  0.7352 -1.6983
  101OSM   H14C10149   0.503   1.996  11.369  1.8202  1.5579  1.3575
  101OSM    C1310150   0.685   1.802  11.478 -0.3085  0.0035  0.5942
  101OSM   H13A10151   0.781   1.842  11.451  0.3360 -1.4961  0.5486
  101OSM   H13B10152   0.705   1.701  11.510 -1.4543 -0.7365 -0.8630
  101OSM   H13C10153   0.656   1.850  11.571  1.5844 -0.9153  1.7043
  101OSM    C1210154   0.633   1.691  11.278 -0.1829 -0.1509 -0.0939
  101OSM   H12A10155   0.648   1.596  11.328  2.8889 -0.0861 -0.6908
  101OSM   H12B10156   0.733   1.722  11.250 -0.7310  0.7957 -1.0972
  101OSM    C1110157   0.558   1.672  11.148  0.2594  0.1900  0.5103
  101OSM   H11A10158   0.452   1.647  11.171  0.3915 -0.4945  0.3727
  101OSM   H11B10159   0.584   1.581  11.091 -0.1858  1.0362 -1.0971
  101OSM      P10160   0.703   1.830  11.007  0.4939 -0.2180  0.8971
  101OSM    O1310161   0.694   1.978  10.977  1.1148  0.1441 -0.2812
  101OSM    O1410162   0.819   1.774  11.078 -0.8207  0.3102  0.1964
  101OSM    O1110163   0.701   1.765  10.869  0.6211  0.3088 -0.4356
  101OSM    O1210164   0.564   1.787  11.067 -0.4045  1.1074  0.1226
  101OSM    C1S10165   0.578   1.741  10.794  0.4523 -0.1538 -0.0540
  101OSM    H1S10166   0.479   1.761  10.840 -0.2077 -0.7835 -1.1410
  101OSM    H1T10167   0.580   1.635  10.762 -2.3880  0.0280 -1.1471
  101OSM     NF10168   0.446   1.805  10.600 -0.4795  0.1501  0.1709
  101OSM    HNF10169   0.438   1.729  10.536  1.4709 -0.7495  0.9175
  101OSM    C2S10170   0.579   1.825  10.657 -0.2210  0.5582  0.2463
  101OSM    H2S10171   0.600   1.933  10.670  2.2664  0.4750 -2.1608
  101OSM    C3S10172   0.696   1.779  10.555 -0.1302 -0.0277 -0.8108
  101OSM    H3S10173   0.661   1.677  10.528 -0.5890  0.1754 -0.9986
  101OSM     O310174   0.825   1.778  10.612  0.0757 -0.3794 -0.4068
  101OSM    HO310175   0.810   1.788  10.707 -0.0231  0.0118 -0.4630
  101OSM    C4S10176   0.679   1.857  10.429 -0.3223  0.3298  0.3606
  101OSM    H4S10177   0.578   1.845  10.388 -0.4786  1.6724  0.3013
  101OSM    C5S10178   0.767   1.941  10.370 -0.6991 -0.3526 -0.5215
  101OSM    H5S10179   0.872   1.949  10.403  0.2176  0.2665 -3.3526
  101OSM    C6S10180   0.728   2.009  10.246  0.3117  0.1811 -0.2118
  101OSM    H6S10181   0.743   2.119  10.246 -0.4636  0.2915 -0.7362
  101OSM    H6T10182   0.618   2.016  10.235  0.0366 -1.2243  1.3009
  101OSM    C7S10183   0.784   1.942  10.118 -0.2084  0.4482 -0.0592
  101OSM    H7S10184   0.755   1.835  10.121 -0.5065  0.5329  2.3812
  101OSM    H7T10185   0.894   1.938  10.130 -0.2818 -1.8848  0.3044
  101OSM    C8S10186   0.732   2.005   9.988 -0.0614 -0.0571 -0.0934
  101OSM    H8S10187   0.764   2.110  10.006  1.5544 -0.8481  2.1105
  101OSM    H8T10188   0.622   1.994   9.989 -0.1774  0.7658 -1.3151
  101OSM    C9S10189   0.784   1.928   9.868  0.4043  0.1953 -0.2534
  101OSM    H9S10190   0.748   1.824   9.880  0.6551  0.2344  0.9234
  101OSM    H9T10191   0.895   1.923   9.862  0.4157  0.9010 -0.8607
  101OSM   C10S10192   0.749   1.981   9.726  0.1063 -0.2179 -0.3560
  101OSM   H10S10193   0.815   2.065   9.694 -1.2864  0.3159 -1.9771
  101OSM   H10T10194   0.645   2.019   9.736  0.2973 -0.0465  1.2741
  101OSM   C11S10195   0.756   1.877   9.616 -0.3257 -0.0198 -0.9555
  101OSM   H11S10196   0.703   1.784   9.647  1.5656 -1.0384 -0.6221
  101OSM   H11T10197   0.865   1.857   9.617 -0.6360 -1.9574  0.3910
  101OSM   C12S10198   0.734   1.920   9.474  0.2583  0.1573 -0.0719
  101OSM   H12S10199   0.819   1.985   9.447 -0.2431 -0.0851 -2.4345
  101OSM   H12T10200   0.643   1.980   9.450  0.1553 -0.0635 -0.2324
  101OSM   C13S10201   0.737   1.806   9.372  0.7428 -0.1995  0.9986
  101OSM   H13S10202   0.673   1.845   9.290  0.2121  0.5258  1.7332
  101OSM   H13T10203   0.689   1.716   9.415 -0.2597  0.0419  0.4168
  101OSM   C14S10204   0.879   1.781   9.328  0.3488  0.5087  0.4552
  101OSM   H14S10205   0.935   1.739   9.414  0.2899  0.5952  0.5359
  101OSM   H14T10206   0.934   1.874   9.303  1.9146 -0.4856  0.0161
  101OSM   C15S10207   0.885   1.688   9.207 -0.5420  0.1947 -0.5719
  101OSM   H15S10208   0.830   1.596   9.235  1.9319 -1.0626  0.5355
  101OSM   H15T10209   0.994   1.666   9.199 -0.6966 -0.5698 -0.6570
  101OSM   C16S10210   0.840   1.728   9.067  0.8557 -0.4643  0.1470
  101OSM   H16S10211   0.742   1.780   9.078  0.9489 -0.5090  1.3155
  101OSM   H16T10212   0.819   1.639   9.004  0.0518  0.1716 -0.4976
  101OSM   C17S10213   0.934   1.827   9.000 -0.6740  0.5066 -0.3330
  101OSM   H17S10214   1.031   1.774   9.010 -1.1053 -0.5188 -1.4466
  101OSM   H17T10215   0.934   1.922   9.058 -0.5622  0.6393 -0.5504
  101OSM   C18S10216   0.894   1.869   8.860 -0.0783 -0.3287 -0.3604
  101OSM   H18S10217   0.967   1.937   8.812  1.7976 -2.2072 -0.3178
  101OSM   H18T10218   0.804   1.933   8.870  2.0336  2.9098 -0.4697
  101OSM   H18U10219   0.876   1.783   8.792  0.0558 -0.7022  0.0686
  101OSM    C1F10220   0.339   1.874  10.642  0.4762 -0.2781 -0.3508
  101OSM     OF10221   0.354   1.970  10.721  0.2501 -0.6950 -0.3532
  101OSM    C2F10222   0.201   1.838  10.593  0.0233  0.3613  0.6979
  101OSM    H2F10223   0.140   1.830  10.685 -1.2153 -0.2576 -0.1533
  101OSM    H2G10224   0.210   1.738  10.546  1.5364  0.8630 -0.1757
  101OSM    C3F10225   0.154   1.951  10.496 -0.4836  0.3230  0.4049
  101OSM    H3F10226   0.150   2.048  10.548  0.4631 -0.6785  2.4595
  101OSM    H3G10227   0.045   1.930  10.492 -0.2230 -1.1309  0.1095
  101OSM    C4F10228   0.225   1.969  10.359  0.4716  0.5404  0.7259
  101OSM    H4F10229   0.332   1.982  10.384  0.2363  1.3049  1.3776
  101OSM    H4G10230   0.190   2.071  10.331 -0.0301  0.4109  0.8634
  101OSM    C5F10231   0.197   1.857  10.252  0.0627 -0.1159  0.0823
  101OSM    H5F10232   0.091   1.825  10.263 -0.9798  2.7562 -0.6867
  101OSM    H5G10233   0.267   1.774  10.273  0.6943 -0.0179 -1.5337
  101OSM    C6F10234   0.224   1.919  10.113 -0.6149 -0.0128  0.1909
  101OSM    H6F10235   0.323   1.969  10.105 -0.2390 -1.0406 -2.7039
  101OSM    H6G10236   0.151   2.000  10.096 -1.1543 -0.5590 -0.1404
  101OSM    C7F10237   0.209   1.819   9.996  0.4940 -0.5449 -0.6272
  101OSM    H7F10238   0.124   1.760  10.037  0.2531  0.3148  0.1431
  101OSM    H7G10239   0.289   1.743   9.983  1.3731  0.6702 -2.8415
  101OSM    C8F10240   0.178   1.877   9.859  0.0848 -0.1519  0.3194
  101OSM    H8F10241   0.124   1.974   9.862  1.6672  0.8333 -1.5261
  101OSM    H8G10242   0.112   1.806   9.805  0.2662 -0.0032 -0.1024
  101OSM    C9F10243   0.302   1.884   9.785 -0.9169  0.3805 -0.0823
  101OSM    H9F10244   0.386   1.929   9.841 -1.2908  1.7180 -0.5555
  101OSM   C10F10245   0.323   1.862   9.656  0.4936  0.7714  0.5941
  101OSM   H10F10246   0.429   1.870   9.627  0.3038 -2.6790 -1.5636
  101OSM   C11F10247   0.216   1.830   9.550 -0.5452 -0.1977 -0.8249
  101OSM   H11F10248   0.167   1.734   9.578  0.6737 -0.8119 -0.6986
  101OSM   H11G10249   0.281   1.812   9.462 -0.0673  1.4222 -0.8362
  101OSM   C12F10250   0.115   1.936   9.515  0.1159 -0.3175  0.2988
  101OSM   H12F10251   0.171   2.025   9.479  0.0844 -1.1659 -1.9604
  101OSM   H12G10252   0.049   1.969   9.599  0.6882 -0.0995  0.6723
  101OSM   C13F10253   0.021   1.897   9.406 -0.3123 -0.5972  0.6416
  101OSM   H13F10254  -0.020   1.989   9.359  0.3270  0.8182  2.7241
  101OSM   H13G10255  -0.064   1.837   9.446  0.2018 -0.6002  1.7619
  101OSM   C14F10256   0.095   1.817   9.288 -0.2774  0.3058 -0.1502
  101OSM   H14F10257   0.131   1.717   9.319 -0.8385 -0.1893 -1.0659
  101OSM   H14G10258   0.174   1.890   9.258  0.8529 -1.0849 -0.6864
  101OSM   C15F10259   0.006   1.795   9.165  0.1935  0.7101 -0.0869
  101OSM   H15F10260  -0.017   1.897   9.126  2.5434  1.3240 -0.0325
  101OSM   H15G10261  -0.086   1.738   9.189  0.7692  0.6446  2.2204
  101OSM   C16F10262   0.087   1.718   9.061  0.0576 -0.0238 -0.6905
  101OSM   H16F10263   0.117   1.616   9.096  0.6209  0.8824  1.6268
  101OSM   H16G10264   0.186   1.765   9.041  1.5109 -2.0345  1.1873
  101OSM   C17F10265   0.028   1.706   8.921 -0.2942 -0.0056 -0.2475
  101OSM   H17F10266   0.062   1.794   8.862  1.9427 -0.5456  0.1306
  101OSM   H17G10267  -0.082   1.718   8.918 -0.5143 -1.7521 -0.3720
  101OSM   C18F10268   0.053   1.576   8.849  0.0601  0.1767 -0.6008
  101OSM   H18F10269   0.162   1.553   8.852 -0.4390 -2.2771  0.5930
  101OSM   H18G10270   0.030   1.586   8.740 -0.0405 -1.2863 -0.7300
  101OSM   H18H10271   0.008   1.492   8.905  1.4222 -0.2623 -0.1364
  102OSM      N10272   0.017   6.469  10.807  0.3351 -0.1170  0.0685
  102OSM    C1510273   0.070   6.580  10.717  0.2507  0.7181 -0.4115
  102OSM   H15A10274   0.054   6.569  10.610  1.5234 -0.2862 -0.5156
  102OSM   H15B10275   0.176   6.590  10.728  0.2466  1.5709 -1.0672
  102OSM   H15C10276   0.021   6.664  10.763 -1.0886  0.3727 -1.1367
  102OSM    C1410277  -0.133   6.465  10.801 -0.7782 -0.2115  0.1630
  102OSM   H14A10278  -0.169   6.372  10.843  1.2077 -1.2398 -0.2598
  102OSM   H14B10279  -0.170   6.479  10.700  2.7334  1.2230 -1.0849
  102OSM   H14C10280  -0.169   6.546  10.863  0.1982  2.3142 -2.3498
  102OSM    C1310281   0.060   6.332  10.753  0.1743  0.5656 -0.4561
  102OSM   H13A10282   0.026   6.326  10.651  1.8061 -0.2138 -0.9926
  102OSM   H13B10283   0.019   6.254  10.816 -0.4411  0.5319 -0.8956
  102OSM   H13C10284   0.167   6.322  10.763  0.2546  1.2368 -0.6282
  102OSM    C1210285   0.061   6.483  10.953 -0.9146  0.4590 -0.4603
  102OSM   H12A10286   0.009   6.405  11.008 -0.5022 -0.0479 -0.7830
  102OSM   H12B10287   0.019   6.574  10.993 -3.5286 -0.2019 -1.5071
  102OSM    C1110288   0.213   6.466  10.980 -0.8635 -0.2810  0.7767
  102OSM   H11A10289   0.247   6.370  10.935  2.6916  0.7000  1.0798
  102OSM   H11B10290   0.230   6.470  11.089  1.4293 -0.0487  0.4631
  102OSM      P10291   0.308   6.718  10.934  0.3400 -0.0957  0.3098
  102OSM    O1310292   0.178   6.777  10.980 -0.6413  0.3462 -0.0843
  102OSM    O1410293   0.427   6.731  11.015  0.1734 -0.1880 -0.3326
  102OSM    O1110294   0.339   6.776  10.796  0.3575 -0.3858  0.6572
  102OSM    O1210295   0.293   6.557  10.904  0.1831  0.4990 -0.4443
  102OSM    C1S10296   0.415   6.721  10.686 -0.0155 -1.2505  0.1285
  102OSM    H1S10297   0.407   6.611  10.672  0.2004 -1.2225 -0.2163
  102OSM    H1T10298   0.523   6.734  10.705 -0.4270  0.7170  1.4444
  102OSM     NF10299   0.417   6.688  10.446  0.3560 -0.0169  0.5131
  102OSM    HNF10300   0.491   6.728  10.394 -0.3802  1.6500  0.6817
  102OSM    C2S10301   0.365   6.776  10.545 -0.1959  0.6214 -0.1446
  102OSM    H2S10302   0.257   6.752  10.547  0.0674 -0.6282  2.1419
  102OSM    C3S10303   0.396   6.931  10.527 -0.1165 -0.2224 -0.7121
  102OSM    H3S10304   0.503   6.949  10.552 -0.2927 -0.5549  0.3229
  102OSM     O310305   0.323   7.024  10.613  0.8475  0.3568  0.3244
  102OSM    HO310306   0.301   6.974  10.692 -1.0842  0.1807 -0.2784
  102OSM    C4S10307   0.360   6.963  10.386 -0.4613  0.0273 -0.5576
  102OSM    H4S10308   0.255   6.971  10.355 -0.9886 -4.3970 -0.5639
  102OSM    C5S10309   0.450   6.975  10.288  0.3032  0.5105  0.0154
  102OSM    H5S10310   0.555   6.947  10.306 -0.1059 -1.5538 -0.5643
  102OSM    C6S10311   0.415   7.010  10.146 -0.7489  0.1963  0.1380
  102OSM    H6S10312   0.510   7.031  10.094 -0.3289 -0.8606  0.4536
  102OSM    H6T10313   0.339   7.091  10.136 -1.9257 -0.9463 -0.5041
  102OSM    C7S10314   0.371   6.893  10.067  0.1814  0.5635  0.1946
  102OSM    H7S10315   0.266   6.860  10.085  0.0312  0.9839  0.1084
  102OSM    H7T10316   0.429   6.800  10.087 -0.5941  0.3177  1.4482
  102OSM    C8S10317   0.354   6.932   9.921 -0.0789 -0.1345 -0.2471
  102OSM    H8S10318   0.441   6.982   9.874  0.8893 -0.3575  1.2279
  102OSM    H8T10319   0.266   7.000   9.919 -1.9742 -2.0560  4.0044
  102OSM    C9S10320   0.327   6.814   9.833 -0.6177 -0.2585  0.2341
  102OSM    H9S10321   0.219   6.789   9.830 -0.5172 -0.6614 -2.1580
  102OSM    H9T10322   0.373   6.715   9.852 -0.1484 -0.2181 -0.6778
  102OSM   C10S10323   0.374   6.849   9.685 -0.4790  0.2747 -0.5084
  102OSM   H10S10324   0.352   6.958   9.685  0.1233  0.4703  1.9337
  102OSM   H10T10325   0.309   6.796   9.612 -1.0045 -0.0311  0.1734
  102OSM   C11S10326   0.522   6.829   9.661 -0.1789 -0.3635  0.4263
  102OSM   H11S10327   0.534   6.719   9.672 -0.6502 -0.3185  1.5431
  102OSM   H11T10328   0.575   6.878   9.745  0.0880  0.9996 -0.5133
  102OSM   C12S10329   0.547   6.886   9.514 -0.1230 -0.1387 -0.2563
  102OSM   H12S10330   0.655   6.871   9.497  0.0265  2.3117 -1.9245
  102OSM   H12T10331   0.525   6.995   9.512 -1.8222 -0.3645  1.9961
  102OSM   C13S10332   0.472   6.799   9.409  0.1697  0.0812 -0.1442
  102OSM   H13S10333   0.369   6.841   9.417 -0.0219 -0.1652 -1.2210
  102OSM   H13T10334   0.463   6.691   9.432  0.3699  0.0086 -0.4087
  102OSM   C14S10335   0.515   6.823   9.264 -0.4104 -0.0338 -0.2490
  102OSM   H14S10336   0.463   6.745   9.205  0.1727  1.0649 -2.3309
  102OSM   H14T10337   0.626   6.816   9.262 -0.3863 -1.1350  1.8630
  102OSM   C15S10338   0.477   6.956   9.213  0.4460 -0.5772  0.1207
  102OSM   H15S10339   0.516   7.038   9.278  0.4686 -0.6604  0.2122
  102OSM   H15T10340   0.368   6.975   9.199  0.7475 -0.8191 -3.2195
  102OSM   C16S10341   0.532   6.987   9.071  0.7731 -0.1439 -0.4753
  102OSM   H16S10342   0.497   6.909   9.000 -2.2269  1.8307 -1.3363
  102OSM   H16T10343   0.643   6.982   9.059  0.8452  2.3824 -1.5716
  102OSM   C17S10344   0.493   7.119   9.009  0.6410  0.3577  0.0174
  102OSM   H17S10345   0.506   7.208   9.074  2.3682  1.7783 -2.1148
  102OSM   H17T10346   0.385   7.108   8.987  0.7377 -2.1688  0.5150
  102OSM   C18S10347   0.570   7.147   8.884 -0.4672  0.0400  0.2201
  102OSM   H18S10348   0.666   7.196   8.912  1.0541 -0.9122 -2.8918
  102OSM   H18T10349   0.526   7.220   8.812 -0.4564  1.4721  1.6014
  102OSM   H18U10350   0.586   7.056   8.823 -1.0755  1.3097 -1.9718
  102OSM    C1F10351   0.378   6.561  10.421 -0.4548  0.3319 -0.4811
  102OSM     OF10352   0.294   6.503  10.490  0.0713  0.0126  0.4917
  102OSM    C2F10353   0.450   6.494  10.307  0.1293 -0.6623  0.6887
  102OSM    H2F10354   0.497   6.401  10.346 -0.9421 -1.3754  0.3471
  102OSM    H2G10355   0.528   6.565  10.272 -0.9204  0.8526  1.2822
  102OSM    C3F10356   0.351   6.455  10.192  0.2609 -0.8471  0.2079
  102OSM    H3F10357   0.309   6.543  10.139  0.9137 -1.5218 -1.5084
  102OSM    H3G10358   0.264   6.393  10.222 -1.5384  0.3107 -2.2057
  102OSM    C4F10359   0.417   6.374  10.075  0.2797  0.0702 -0.8552
  102OSM    H4F10360   0.331   6.334  10.018 -0.6118  0.7969 -0.0475
  102OSM    H4G10361   0.479   6.287  10.106 -0.7330 -1.4031 -2.7635
  102OSM    C5F10362   0.503   6.462   9.990 -0.6040 -0.1985 -0.4334
  102OSM    H5F10363   0.574   6.505  10.063 -3.1614  1.5571  1.1618
  102OSM    H5G10364   0.432   6.543   9.961 -6.1292 -3.6232  1.7824
  102OSM    C6F10365   0.580   6.380   9.886 -0.3768 -0.6559  0.6743
  102OSM    H6F10366   0.657   6.314   9.930 -0.1708 -0.5184  0.5244
  102OSM    H6G10367   0.620   6.443   9.804 -1.0384  0.0242  0.8597
  102OSM    C7F10368   0.489   6.271   9.809 -0.5434 -0.3799  0.0484
  102OSM    H7F10369   0.428   6.207   9.876 -0.2043 -0.6099  0.1390
  102OSM    H7G10370   0.562   6.204   9.758 -0.5247  0.1567 -0.6380
  102OSM    C8F10371   0.393   6.333   9.699 -0.3004  0.3768 -0.1974
  102OSM    H8F10372   0.304   6.371   9.753 -1.6227  1.9290 -3.2204
  102OSM    H8G10373   0.354   6.246   9.642  0.0685  0.0979 -0.0305
  102OSM    C9F10374   0.450   6.430   9.597 -0.5259 -0.4958  0.1127
  102OSM    H9F10375   0.446   6.534   9.631 -2.2763 -0.7478  0.8227
  102OSM   C10F10376   0.485   6.396   9.473 -0.4751  0.0643 -0.7232
  102OSM   H10F10377   0.516   6.476   9.404 -1.1753 -2.0358 -3.6340
  102OSM   C11F10378   0.497   6.258   9.421 -0.5318 -0.0309  0.6744
  102OSM   H11F10379   0.401   6.209   9.448 -0.5257  0.0236  0.7939
  102OSM   H11G10380   0.583   6.202   9.464  0.7081 -0.2243 -1.8710
  102OSM   C12F10381   0.508   6.244   9.270 -0.2210 -0.0711  0.3713
  102OSM   H12F10382   0.427   6.300   9.220  0.6802  0.3792 -0.6248
  102OSM   H12G10383   0.505   6.136   9.245  0.4247 -0.2845  1.1567
  102OSM   C13F10384   0.641   6.288   9.207  0.3839  0.3600 -0.1009
  102OSM   H13F10385   0.723   6.239   9.264 -0.4711 -0.2547  0.6438
  102OSM   H13G10386   0.637   6.396   9.233 -2.6758 -0.0420  1.6086
  102OSM   C14F10387   0.653   6.262   9.058  0.8357 -0.4355  0.5985
  102OSM   H14F10388   0.559   6.225   9.011  0.7103 -1.5652  1.6813
  102OSM   H14G10389   0.724   6.179   9.036  0.0301 -0.7508 -0.9799
  102OSM   C15F10390   0.686   6.389   8.979 -0.4676 -0.1057  0.1985
  102OSM   H15F10391   0.776   6.434   9.028  0.5657 -2.8175  0.9908
  102OSM   H15G10392   0.600   6.459   8.986  0.3949  0.9754  0.5285
  102OSM   C16F10393   0.719   6.363   8.832 -0.1856  0.5115 -0.4941
  102OSM   H16F10394   0.814   6.307   8.839 -0.9593 -0.6508  1.7315
  102OSM   H16G10395   0.732   6.460   8.781 -0.1007  1.0722  0.5617
  102OSM   C17F10396   0.620   6.274   8.747 -0.2347  0.6468  0.3562
  102OSM   H17F10397   0.515   6.308   8.758 -0.2100  1.2340 -1.0097
  102OSM   H17G10398   0.625   6.171   8.788 -0.3241  0.5032  0.0093
  102OSM   C18F10399   0.663   6.260   8.600  1.1167  0.0122 -0.3576
  102OSM   H18F10400   0.763   6.213   8.589  0.4487 -1.9299  1.1987
  102OSM   H18G10401   0.659   6.356   8.544  1.1055 -0.0442 -0.4567
  102OSM   H18H10402   0.590   6.192   8.550  0.3025 -0.9920  2.0408
  103OSM      N10403   0.555   3.534  11.609  0.2397  0.6456 -0.1395
  103OSM    C1510404   0.566   3.678  11.602  0.0168 -0.1362  0.6800
  103OSM   H15A10405   0.499   3.717  11.526  0.2583 -1.4198 -0.2302
  103OSM   H15B10406   0.670   3.698  11.578 -0.2722 -0.0166 -0.5559
  103OSM   H15C10407   0.546   3.723  11.697 -0.2728  0.1816  0.4683
  103OSM    C1410408   0.658   3.483  11.702  0.3024 -0.3651  0.1467
  103OSM   H14A10409   0.671   3.377  11.716  0.4778  0.0212  3.9145
  103OSM   H14B10410   0.631   3.522  11.799 -2.2428 -0.6221 -0.3978
  103OSM   H14C10411   0.756   3.514  11.667 -0.7080  1.4647 -1.2419
  103OSM    C1310412   0.417   3.496  11.652 -0.1204 -0.1602  0.0894
  103OSM   H13A10413   0.405   3.552  11.743 -0.2646  2.5742 -1.4864
  103OSM   H13B10414   0.404   3.390  11.667  1.2865 -0.6621 -1.7633
  103OSM   H13C10415   0.351   3.534  11.575  0.1613  1.3904  0.5793
  103OSM    C1210416   0.579   3.468  11.475  0.2031  0.0887  0.1125
  103OSM   H12A10417   0.562   3.362  11.487  0.7373  0.2583  3.0095
  103OSM   H12B10418   0.684   3.485  11.455  0.1006 -0.0791 -0.5916
  103OSM    C1110419   0.481   3.509  11.361  0.2078 -0.2278  0.2314
  103OSM   H11A10420   0.463   3.618  11.347 -0.9758 -0.3198  0.9323
  103OSM   H11B10421   0.386   3.471  11.403  0.6814  2.2400  3.9822
  103OSM      P10422   0.633   3.470  11.142 -0.3368  0.0778 -0.3686
  103OSM    O1310423   0.593   3.560  11.030  0.2959 -0.5041  0.4942
  103OSM    O1410424   0.755   3.500  11.219  0.4111 -0.2357 -0.4264
  103OSM    O1110425   0.661   3.336  11.072  0.3556 -0.0020 -0.5183
  103OSM    O1210426   0.506   3.432  11.237 -0.3719 -0.1484 -0.2413
  103OSM    C1S10427   0.577   3.262  10.990  0.3036  0.3861  0.1373
  103OSM    H1S10428   0.489   3.319  10.953 -0.1651 -0.4203 -0.0100
  103OSM    H1T10429   0.541   3.168  11.035 -1.2050 -0.0780 -1.8532
  103OSM     NF10430   0.539   3.198  10.755  0.2318 -0.2433 -1.0410
  103OSM    HNF10431   0.525   3.099  10.747 -3.9338  0.1736 -0.9869
  103OSM    C2S10432   0.636   3.237  10.851 -0.7992  0.9418 -0.4643
  103OSM    H2S10433   0.689   3.325  10.809  1.6372 -0.7478 -1.1290
  103OSM    C3S10434   0.747   3.126  10.855  0.0124  0.4059 -0.6835
  103OSM    H3S10435   0.691   3.036  10.889  2.0651 -0.9005 -0.6336
  103OSM     O310436   0.846   3.164  10.953 -0.0080 -0.7837  0.2517
  103OSM    HO310437   0.805   3.225  11.014 -0.4573 -1.3389  0.5218
  103OSM    C4S10438   0.800   3.101  10.720 -0.6646 -0.9497 -0.0022
  103OSM    H4S10439   0.771   3.009  10.667  0.4502 -0.9731 -0.6230
  103OSM    C5S10440   0.897   3.165  10.662  0.3208  0.7389 -0.4867
  103OSM    H5S10441   0.955   3.234  10.725  0.8665 -0.7244  0.6618
  103OSM    C6S10442   0.946   3.134  10.522  0.3583 -0.3643  0.2011
  103OSM    H6S10443   0.940   3.028  10.489 -3.7116  0.5294 -2.8540
  103OSM    H6T10444   1.053   3.161  10.520  0.1459  0.5774  0.6322
  103OSM    C7S10445   0.873   3.218  10.411  0.0164  0.0748 -0.0721
  103OSM    H7S10446   0.890   3.325  10.433 -0.2421  0.1059 -0.0190
  103OSM    H7T10447   0.764   3.197  10.414  0.0828 -0.1834  1.3743
  103OSM    C8S10448   0.930   3.187  10.273  0.6863  0.2654  0.0178
  103OSM    H8S10449   0.909   3.080  10.252  0.4705 -0.3763  3.0883
  103OSM    H8T10450   1.040   3.201  10.275  0.5185  2.8773 -2.4740
  103OSM    C9S10451   0.875   3.295  10.175  0.2750  0.5393 -0.5214
  103OSM    H9S10452   0.926   3.393  10.162 -0.6280  1.0026 -0.6277
  103OSM    H9T10453   0.768   3.315  10.198  0.8024  4.2244 -0.6653
  103OSM   C10S10454   0.873   3.243  10.032 -0.5708 -0.1618  0.4577
  103OSM   H10S10455   0.834   3.141  10.015 -1.4834  0.1010  0.9313
  103OSM   H10T10456   0.978   3.239   9.995 -0.7498  0.7609 -0.1946
  103OSM   C11S10457   0.789   3.335   9.938  0.8445 -0.1122  0.2646
  103OSM   H11S10458   0.853   3.424   9.921 -0.3519  1.1289  1.8973
  103OSM   H11T10459   0.693   3.367   9.985 -0.0256  0.2977 -1.7081
  103OSM   C12S10460   0.760   3.279   9.803  0.3640  0.0603  0.3106
  103OSM   H12S10461   0.691   3.192   9.811 -0.1186  0.2446 -1.3201
  103OSM   H12T10462   0.855   3.248   9.755 -0.9639 -0.4542 -2.1969
  103OSM   C13S10463   0.694   3.386   9.710  1.3207  0.1313  0.7256
  103OSM   H13S10464   0.769   3.468   9.695  0.7899  0.5301  0.1792
  103OSM   H13T10465   0.609   3.425   9.769  1.6237  1.2056  0.4755
  103OSM   C14S10466   0.636   3.331   9.578 -0.2112 -0.1791  1.3392
  103OSM   H14S10467   0.565   3.410   9.547 -0.5092 -0.7138  0.6386
  103OSM   H14T10468   0.578   3.240   9.606  1.6459 -1.2614  1.8240
  103OSM   C15S10469   0.736   3.284   9.477 -0.6751 -0.5721 -0.2279
  103OSM   H15S10470   0.782   3.198   9.532 -0.7914 -0.7926 -0.4754
  103OSM   H15T10471   0.814   3.362   9.460  1.0659 -1.4193  2.9765
  103OSM   C16S10472   0.666   3.243   9.349  0.1913  0.0456 -0.1622
  103OSM   H16S10473   0.576   3.184   9.373  1.4102 -0.8798  2.4905
  103OSM   H16T10474   0.738   3.178   9.294  0.2600  1.6979 -2.1569
  103OSM   C17S10475   0.641   3.368   9.267 -0.0811 -0.1794 -0.8693
  103OSM   H17S10476   0.739   3.419   9.262 -0.9227  1.6031 -0.2324
  103OSM   H17T10477   0.575   3.436   9.325  1.5820 -0.3483  1.3424
  103OSM   C18S10478   0.583   3.326   9.142 -0.2170 -0.4977  0.7169
  103OSM   H18S10479   0.588   3.415   9.076  1.1333 -0.3465  0.9987
  103OSM   H18T10480   0.482   3.281   9.157 -0.3613  0.2238  2.0113
  103OSM   H18U10481   0.652   3.256   9.089 -0.0965 -0.4179  0.7688
  103OSM    C1F10482   0.459   3.283  10.696  0.1079  0.2415  0.2787
  103OSM     OF10483   0.468   3.404  10.718  0.3704  0.3631  0.1159
  103OSM    C2F10484   0.353   3.232  10.599  0.0389 -0.2579  0.0030
  103OSM    H2F10485   0.271   3.305  10.583  0.1559  0.3496  1.9565
  103OSM    H2G10486   0.303   3.146  10.647 -0.1458  0.7785  1.7499
  103OSM    C3F10487   0.419   3.198  10.460  0.0945 -0.3606  1.0941
  103OSM    H3F10488   0.500   3.123  10.475 -0.2542 -0.5279  2.2286
  103OSM    H3G10489   0.473   3.291  10.431 -3.0922  1.6222  1.0559
  103OSM    C4F10490   0.317   3.138  10.355  0.5386 -0.2513  0.1349
  103OSM    H4F10491   0.232   3.210  10.360  0.2205 -0.4897 -1.3786
  103OSM    H4G10492   0.267   3.046  10.391 -1.6691  0.5447 -0.6962
  103OSM    C5F10493   0.365   3.133  10.204 -0.1762  0.2399 -0.1584
  103OSM    H5F10494   0.397   3.029  10.178 -1.1394  0.6235 -3.3794
  103OSM    H5G10495   0.456   3.196  10.211  0.3538 -0.4821 -0.3904
  103OSM    C6F10496   0.262   3.182  10.100 -0.8755  0.7081  0.3030
  103OSM    H6F10497   0.239   3.282  10.143  0.0088  1.9600 -1.9380
  103OSM    H6G10498   0.170   3.121  10.089  0.2096 -0.9322  0.0750
  103OSM    C7F10499   0.336   3.227   9.969  0.3913 -0.1280 -0.8194
  103OSM    H7F10500   0.443   3.235   9.995  0.6780 -2.1331 -1.2131
  103OSM    H7G10501   0.292   3.324   9.938 -3.8259 -2.0421 -1.6718
  103OSM    C8F10502   0.315   3.134   9.848 -0.0995 -0.5322 -0.9214
  103OSM    H8F10503   0.334   3.034   9.891  0.6791  0.2414  0.5847
  103OSM    H8G10504   0.399   3.154   9.777 -0.1423  0.1958 -0.7748
  103OSM    C9F10505   0.176   3.146   9.786  0.8940 -0.1371  0.2135
  103OSM    H9F10506   0.093   3.092   9.834  1.9620 -1.3659  0.7201
  103OSM   C10F10507   0.140   3.221   9.683 -0.0256 -0.0517  0.9080
  103OSM   H10F10508   0.034   3.224   9.651  0.6043 -1.0192 -1.4855
  103OSM   C11F10509   0.232   3.314   9.607  0.2853  0.3234 -0.3949
  103OSM   H11F10510   0.331   3.326   9.657  0.2041 -1.9283  0.4037
  103OSM   H11G10511   0.185   3.414   9.593 -2.1115 -0.8271 -0.9005
  103OSM   C12F10512   0.252   3.246   9.473 -0.4287  0.0641  0.3687
  103OSM   H12F10513   0.289   3.144   9.495 -1.6647  0.1708  3.4960
  103OSM   H12G10514   0.331   3.303   9.420 -0.2346  0.8436  1.4647
  103OSM   C13F10515   0.127   3.235   9.382 -1.2588 -0.2755 -0.2337
  103OSM   H13F10516   0.062   3.158   9.427 -1.9752  0.1862 -0.4700
  103OSM   H13G10517   0.070   3.330   9.387 -0.8992  0.1109 -2.4431
  103OSM   C14F10518   0.152   3.196   9.233  0.1426  0.3066 -0.5808
  103OSM   H14F10519   0.227   3.271   9.199  0.8902  0.1914  0.7367
  103OSM   H14G10520   0.054   3.207   9.182 -0.5855  1.0772  0.9175
  103OSM   C15F10521   0.210   3.057   9.215  0.1293 -0.0397  0.1779
  103OSM   H15F10522   0.150   2.990   9.280 -0.5511  1.5483  1.2662
  103OSM   H15G10523   0.318   3.050   9.242  0.7543 -0.0486 -2.1296
  103OSM   C16F10524   0.205   3.005   9.069 -0.6836 -0.8647 -0.5200
  103OSM   H16F10525   0.101   2.997   9.031 -1.0658 -0.3039  0.3791
  103OSM   H16G10526   0.234   2.898   9.078 -2.2309 -1.2974 -0.4586
  103OSM   C17F10527   0.294   3.074   8.962  0.0605 -0.5828  0.3342
  103OSM   H17F10528   0.401   3.079   8.989  0.0817  0.1975  0.1409
  103OSM   H17G10529   0.253   3.177   8.950 -1.7318 -0.9271  2.7937
  103OSM   C18F10530   0.286   3.014   8.826 -1.1007 -0.5358  0.0054
  103OSM   H18F10531   0.361   2.933   8.813  1.0890  1.2239  0.9631
  103OSM   H18G10532   0.327   3.086   8.753  2.8031 -0.7274  1.7870
  103OSM   H18H10533   0.185   2.981   8.791 -1.4814  0.0477  0.5286
  104OSM      N10534   4.626   2.236  11.016 -0.6724 -0.3972 -0.1883
  104OSM    C1510535   4.586   2.184  11.153  0.5692  0.2688 -0.3057
  104OSM   H15A10536   4.663   2.126  11.201  0.3236 -0.2345 -0.5034
  104OSM   H15B10537   4.491   2.132  11.150  0.0236  1.2656 -0.5653
  104OSM   H15C10538   4.559   2.265  11.218  1.4098 -0.3228  0.8057
  104OSM    C1410539   4.618   2.127  10.914 -0.6633  0.0605 -0.3947
  104OSM   H14A10540   4.648   2.164  10.817  0.3239 -0.0182 -0.1342
  104OSM   H14B10541   4.520   2.084  10.907 -1.6731  1.9637  0.9486
  104OSM   H14C10542   4.687   2.056  10.957  0.8812  3.2404  2.9203
  104OSM    C1310543   4.523   2.345  10.977 -0.6281  0.3628  0.3942
  104OSM   H13A10544   4.421   2.309  10.966 -0.6040  0.6711 -1.0783
  104OSM   H13B10545   4.554   2.387  10.883  1.6534 -1.7853  0.0795
  104OSM   H13C10546   4.526   2.424  11.051 -2.1354  1.9413 -1.1130
  104OSM    C1210547   4.765   2.294  11.028 -0.1301  0.1460  0.1989
  104OSM   H12A10548   4.789   2.326  10.928 -1.0282 -0.7383 -0.3234
  104OSM   H12B10549   4.842   2.220  11.044 -1.1236 -1.2460 -1.1432
  104OSM    C1110550   4.782   2.410  11.133 -0.6179  0.7394 -0.9264
  104OSM   H11A10551   4.888   2.443  11.137 -0.5803  0.4735  0.7140
  104OSM   H11B10552   4.753   2.372  11.233  0.9285  0.0728 -0.7015
  104OSM      P10553   4.737   2.626  10.989  0.3781 -0.0200  0.2945
  104OSM    O1310554   4.696   2.764  11.019  0.3054 -0.3277 -0.3154
  104OSM    O1410555   4.880   2.608  10.953 -0.4020 -0.0541 -0.1878
  104OSM    O1110556   4.645   2.568  10.870  0.0889  0.2519  0.4649
  104OSM    O1210557   4.702   2.527  11.106 -0.3451  0.1663 -0.4109
  104OSM    C1S10558   4.704   2.511  10.750 -0.0278  0.4712 -0.1148
  104OSM    H1S10559   4.761   2.421  10.783  0.8318  1.1371  0.2633
  104OSM    H1T10560   4.773   2.586  10.705 -0.2252 -0.0850 -1.3552
  104OSM     NF10561   4.699   2.413  10.532 -0.0854 -0.6353 -0.4948
  104OSM    HNF10562   4.738   2.466  10.457  0.6969 -0.6099 -0.0819
  104OSM    C2S10563   4.609   2.476  10.629  0.3173 -0.2176  0.3047
  104OSM    H2S10564   4.526   2.407  10.656  1.0856 -1.3202 -0.0952
  104OSM    C3S10565   4.532   2.610  10.588  0.9157  0.4622 -0.2066
  104OSM    H3S10566   4.607   2.692  10.590  2.2949 -0.7606  1.5366
  104OSM     O310567   4.437   2.652  10.683  0.3989 -0.1875 -0.0846
  104OSM    HO310568   4.475   2.635  10.769 -1.2934 -0.3747  0.6558
  104OSM    C4S10569   4.468   2.597  10.451  0.5615 -0.2126  0.3071
  104OSM    H4S10570   4.400   2.510  10.456 -0.3211  0.5108  2.0017
  104OSM    C5S10571   4.480   2.672  10.336 -0.4034 -0.2278 -0.6115
  104OSM    H5S10572   4.554   2.753  10.329 -0.9562  0.3819  0.2665
  104OSM    C6S10573   4.409   2.636  10.209 -0.5266 -0.1512  0.1788
  104OSM    H6S10574   4.342   2.549  10.223  0.4570 -0.8190  0.8669
  104OSM    H6T10575   4.482   2.592  10.138  0.6841  0.6252  0.9058
  104OSM    C7S10576   4.341   2.758  10.131  0.0501  0.7998 -0.6712
  104OSM    H7S10577   4.406   2.849  10.132  1.0310  0.1170 -1.0506
  104OSM    H7T10578   4.259   2.790  10.199  1.0191  0.1574  0.8536
  104OSM    C8S10579   4.279   2.723   9.996 -0.1788  0.6421  0.0465
  104OSM    H8S10580   4.220   2.813   9.968  1.7240  2.0464  0.3471
  104OSM    H8T10581   4.214   2.633   9.999 -0.7261  1.0338  3.0125
  104OSM    C9S10582   4.378   2.711   9.881  0.6987 -0.0666 -0.4812
  104OSM    H9S10583   4.437   2.617   9.877  0.4520 -0.3623  1.7457
  104OSM    H9T10584   4.447   2.795   9.904 -2.5721  2.8831 -0.6012
  104OSM   C10S10585   4.315   2.734   9.742  0.0306  0.5677 -0.6026
  104OSM   H10S10586   4.252   2.826   9.751 -1.4849 -0.2651 -2.1184
  104OSM   H10T10587   4.246   2.648   9.728 -1.2222  0.8363  2.8808
  104OSM   C11S10588   4.415   2.744   9.636 -0.8378 -0.4942 -0.3880
  104OSM   H11S10589   4.481   2.659   9.607  0.9412  0.8119 -0.3141
  104OSM   H11T10590   4.470   2.839   9.654 -1.9874  0.1190  0.0086
  104OSM   C12S10591   4.344   2.775   9.493 -0.7076  0.1091 -0.2207
  104OSM   H12S10592   4.279   2.865   9.501 -0.1980  0.3644  1.6660
  104OSM   H12T10593   4.269   2.696   9.469 -0.8079  0.2351 -0.3220
  104OSM   C13S10594   4.442   2.763   9.378 -0.6654  0.5982  0.5086
  104OSM   H13S10595   4.488   2.662   9.381  0.0841  0.7431 -2.7278
  104OSM   H13T10596   4.522   2.838   9.398 -1.9304  1.4822  2.6910
  104OSM   C14S10597   4.376   2.803   9.247  0.1808  0.1821  0.8578
  104OSM   H14S10598   4.347   2.910   9.257 -2.7289 -0.5351  0.8253
  104OSM   H14T10599   4.289   2.739   9.224  0.4585  0.2723 -0.5582
  104OSM   C15S10600   4.479   2.783   9.132  0.8604 -0.3286 -0.3702
  104OSM   H15S10601   4.507   2.676   9.138  0.3013 -0.5255 -1.1005
  104OSM   H15T10602   4.577   2.833   9.149  0.9422 -0.5124 -0.3044
  104OSM   C16S10603   4.407   2.790   8.990  0.2530 -0.1918 -0.1841
  104OSM   H16S10604   4.430   2.894   8.959  0.0506 -0.4941 -1.3999
  104OSM   H16T10605   4.299   2.785   9.014  0.9800  0.2511  3.8124
  104OSM   C17S10606   4.440   2.687   8.880  0.3532 -0.7410 -0.2475
  104OSM   H17S10607   4.355   2.678   8.809 -0.5775 -1.2032  0.8861
  104OSM   H17T10608   4.465   2.588   8.926  1.8613  0.2360  1.1549
  104OSM   C18S10609   4.563   2.729   8.789  0.1965  0.3986  0.7166
  104OSM   H18S10610   4.561   2.837   8.765 -0.3612  0.1069 -0.6707
  104OSM   H18T10611   4.578   2.666   8.699 -0.1098  0.3913  0.6721
  104OSM   H18U10612   4.655   2.717   8.851  0.0507  0.3135  0.9158
  104OSM    C1F10613   4.733   2.283  10.534 -0.2680 -0.4651  0.3728
  104OSM     OF10614   4.710   2.217  10.631 -0.4152  0.2024 -0.6427
  104OSM    C2F10615   4.796   2.225  10.415  0.0196  0.2426 -0.0433
  104OSM    H2F10616   4.877   2.289  10.373  0.3814 -0.3138 -0.2042
  104OSM    H2G10617   4.720   2.240  10.335 -0.5467  1.0044  0.6238
  104OSM    C3F10618   4.829   2.080  10.441  0.0317  0.2689  0.2263
  104OSM    H3F10619   4.731   2.044  10.478  0.2589 -0.1308  0.4496
  104OSM    H3G10620   4.914   2.057  10.508  1.9578  0.0276 -2.1472
  104OSM    C4F10621   4.865   1.993  10.320  0.2307  1.0189 -0.7302
  104OSM    H4F10622   4.788   2.002  10.240  0.3829 -1.7994 -1.2854
  104OSM    H4G10623   4.878   1.885  10.343  2.0811  1.3785  0.1170
  104OSM    C5F10624   4.998   2.022  10.253  0.2143  0.0007  0.4270
  104OSM    H5F10625   5.067   1.992  10.334 -0.2058 -0.7561  0.5097
  104OSM    H5G10626   5.003   2.132  10.238 -3.8690  0.3399  0.3021
  104OSM    C6F10627   5.021   1.940  10.127 -0.4523  0.2998 -0.2640
  104OSM    H6F10628   4.935   1.967  10.062 -0.6792 -3.0642 -1.5765
  104OSM    H6G10629   5.019   1.834  10.159  2.6544  0.5731  1.2312
  104OSM    C7F10630   5.162   1.977  10.071  0.1573  0.3458  0.2738
  104OSM    H7F10631   5.227   1.939  10.152  0.0381  2.2686  1.3481
  104OSM    H7G10632   5.171   2.088  10.079  0.9202  0.4124 -1.2090
  104OSM    C8F10633   5.186   1.907   9.936  0.1060 -0.1444  0.0416
  104OSM    H8F10634   5.293   1.923   9.910 -0.0059  1.0118  0.2209
  104OSM    H8G10635   5.116   1.955   9.864  0.7011  0.7253  0.0175
  104OSM    C9F10636   5.155   1.758   9.933 -0.2485 -0.0456 -0.1196
  104OSM    H9F10637   5.183   1.705  10.026 -0.4271  0.1032  0.0201
  104OSM   C10F10638   5.097   1.680   9.843  0.3753  0.3173 -0.4551
  104OSM   H10F10639   5.055   1.583   9.872 -0.6203  1.0091  0.4560
  104OSM   C11F10640   5.071   1.728   9.703  0.3325  0.7140 -0.4280
  104OSM   H11F10641   5.146   1.679   9.637  0.2808 -2.7157  1.8338
  104OSM   H11G10642   5.082   1.838   9.690 -0.6591  0.7386 -1.1529
  104OSM   C12F10643   4.937   1.677   9.640 -0.5056  0.0133 -0.4377
  104OSM   H12F10644   4.846   1.728   9.676 -1.4712  0.1248 -2.8155
  104OSM   H12G10645   4.917   1.572   9.670 -1.1734 -0.0169 -0.9728
  104OSM   C13F10646   4.939   1.686   9.492 -0.0730  0.6565  0.4694
  104OSM   H13F10647   4.842   1.649   9.453 -0.2157  0.1659  1.2476
  104OSM   H13G10648   5.006   1.603   9.458 -0.0319 -0.1489  2.3896
  104OSM   C14F10649   4.961   1.819   9.428 -0.3090 -0.1286  0.3324
  104OSM   H14F10650   5.042   1.882   9.473 -0.7343  0.9004 -0.2980
  104OSM   H14G10651   4.872   1.884   9.441  0.4838  1.0469  0.0250
  104OSM   C15F10652   4.994   1.818   9.276 -0.3740 -0.0849  0.6617
  104OSM   H15F10653   4.927   1.749   9.220  1.8909 -0.9852 -1.0606
  104OSM   H15G10654   5.097   1.779   9.262  0.1930  1.7222 -0.4729
  104OSM   C16F10655   4.986   1.952   9.210 -0.0111  0.6854  1.2550
  104OSM   H16F10656   5.054   2.014   9.273 -0.0102  0.9606  0.9829
  104OSM   H16G10657   4.883   1.993   9.215 -0.9304 -1.4592  0.8496
  104OSM   C17F10658   5.035   1.961   9.060 -0.7432 -0.1035 -0.1313
  104OSM   H17F10659   4.990   1.879   9.000 -1.1934 -0.6052  0.8735
  104OSM   H17G10660   5.145   1.946   9.055 -0.2578  1.0115  3.8930
  104OSM   C18F10661   4.988   2.087   8.987 -0.0131  0.5225 -0.1600
  104OSM   H18F10662   4.997   2.079   8.876 -0.8874 -2.0876 -0.1103
  104OSM   H18G10663   5.032   2.182   9.024  0.5528 -0.7116  2.6107
  104OSM   H18H10664   4.882   2.104   9.014 -0.3389  0.7357 -1.4765
  105OSM      N10665   5.385   1.325  11.198  0.7553 -0.1602  0.7974
  105OSM    C1510666   5.512   1.395  11.204 -0.3208  0.2163  0.7063
  105OSM   H15A10667   5.513   1.502  11.191 -0.2080  0.6518  3.5998
  105OSM   H15B10668   5.580   1.353  11.131  1.0632  0.6309  1.7118
  105OSM   H15C10669   5.549   1.386  11.305  0.1817  2.0077  0.7065
  105OSM    C1410670   5.401   1.180  11.221  0.3355  0.1145 -0.4911
  105OSM   H14A10671   5.455   1.163  11.313  0.4744 -0.7609 -0.7244
  105OSM   H14B10672   5.444   1.126  11.139  2.5383  0.2885  0.4837
  105OSM   H14C10673   5.307   1.129  11.235  0.1797  0.2558 -0.9955
  105OSM    C1310674   5.312   1.376  11.312  0.4238 -0.3035  0.0264
  105OSM   H13A10675   5.205   1.361  11.302  0.1926  1.8016 -1.2746
  105OSM   H13B10676   5.311   1.484  11.316  0.5726 -0.3300  0.9458
  105OSM   H13C10677   5.351   1.335  11.404 -1.7258 -2.1146  0.2047
  105OSM    C1210678   5.305   1.354  11.076  1.0537 -0.4126 -0.2625
  105OSM   H12A10679   5.302   1.460  11.055  2.6673 -0.5396 -1.2818
  105OSM   H12B10680   5.199   1.338  11.090  1.3796 -1.3937  1.3381
  105OSM    C1110681   5.355   1.286  10.939  0.2813  0.5520 -0.0273
  105OSM   H11A10682   5.290   1.317  10.854  0.5646 -0.0395 -0.4621
  105OSM   H11B10683   5.338   1.178  10.954 -4.0353  1.0264 -0.2236
  105OSM      P10684   5.516   1.461  10.840  0.5178 -0.0482 -0.0417
  105OSM    O1310685   5.419   1.553  10.902  0.4187 -0.0833 -0.1556
  105OSM    O1410686   5.657   1.509  10.859  0.2873 -0.4708 -0.1069
  105OSM    O1110687   5.490   1.437  10.687 -0.1515 -0.6267 -0.5762
  105OSM    O1210688   5.496   1.318  10.908  0.7009 -0.3329 -0.6498
  105OSM    C1S10689   5.587   1.354  10.609  0.1102 -0.0563  0.2700
  105OSM    H1S10690   5.553   1.249  10.610  2.9672 -1.0659 -0.5389
  105OSM    H1T10691   5.690   1.363  10.650  0.5079  2.8151 -1.0890
  105OSM     NF10692   5.674   1.284  10.380  0.7982 -0.8512  0.3199
  105OSM    HNF10693   5.767   1.307  10.352  0.4172 -0.8114 -1.0013
  105OSM    C2S10694   5.593   1.390  10.458 -0.5456  0.5866  0.1544
  105OSM    H2S10695   5.494   1.385  10.408  0.5729 -0.6212 -2.0817
  105OSM    C3S10696   5.639   1.531  10.433 -1.0376  0.3579 -0.2322
  105OSM    H3S10697   5.737   1.538  10.485 -0.7048  0.2285 -0.8303
  105OSM     O310698   5.560   1.633  10.482 -0.0902  0.0174  0.5221
  105OSM    HO310699   5.517   1.600  10.561 -2.3659 -1.5601 -1.2202
  105OSM    C4S10700   5.656   1.554  10.286  0.1241 -0.0308  0.3104
  105OSM    H4S10701   5.559   1.581  10.243  0.1262  0.1933  0.4450
  105OSM    C5S10702   5.766   1.559  10.213  0.1472 -0.0126  1.2158
  105OSM    H5S10703   5.861   1.532  10.261  0.6855 -3.2401 -1.3280
  105OSM    C6S10704   5.767   1.583  10.062 -0.6253  0.0944  0.1041
  105OSM    H6S10705   5.814   1.502  10.002  1.8007  1.1126  0.5100
  105OSM    H6T10706   5.822   1.674  10.031  0.9394 -1.2165 -1.1244
  105OSM    C7S10707   5.632   1.590   9.992 -0.4202 -0.0618  0.4758
  105OSM    H7S10708   5.577   1.671  10.044  0.5404  1.4315 -0.7265
  105OSM    H7T10709   5.575   1.497  10.011 -0.5220 -0.8016 -2.7981
  105OSM    C8S10710   5.647   1.623   9.837  0.5538 -0.2544  0.1693
  105OSM    H8S10711   5.714   1.546   9.793 -1.0528 -3.3717  2.6643
  105OSM    H8T10712   5.687   1.724   9.816 -0.1237 -0.0659 -0.2307
  105OSM    C9S10713   5.516   1.603   9.763 -0.0599  0.0976 -0.2165
  105OSM    H9S10714   5.433   1.671   9.792 -0.8222 -0.3599 -1.2652
  105OSM    H9T10715   5.480   1.499   9.782  0.3611  0.3998  2.5409
  105OSM   C10S10716   5.533   1.616   9.610 -0.1624 -0.6172 -0.5107
  105OSM   H10S10717   5.642   1.599   9.593  0.4276  1.8559  0.3531
  105OSM   H10T10718   5.506   1.722   9.592 -0.4371  0.0807  3.2191
  105OSM   C11S10719   5.441   1.520   9.535 -0.0785 -0.2811  0.4756
  105OSM   H11S10720   5.338   1.561   9.533 -0.9328 -2.2938  0.1801
  105OSM   H11T10721   5.441   1.428   9.597  0.5606 -0.0900  0.7622
  105OSM   C12S10722   5.490   1.488   9.394  0.0713  0.1348 -0.1354
  105OSM   H12S10723   5.582   1.427   9.404 -0.8384 -0.8371  3.5769
  105OSM   H12T10724   5.507   1.586   9.343  2.3761 -1.4968 -2.8462
  105OSM   C13S10725   5.377   1.403   9.327 -0.1464 -0.3059 -0.0737
  105OSM   H13S10726   5.284   1.461   9.309  0.5729  0.7970 -0.3461
  105OSM   H13T10727   5.365   1.314   9.392  1.0892  0.4639  1.2838
  105OSM   C14S10728   5.421   1.357   9.189 -0.5270 -0.7584  0.5639
  105OSM   H14S10729   5.361   1.274   9.146 -0.2746 -0.3940 -0.5382
  105OSM   H14T10730   5.525   1.319   9.187 -0.8184 -1.5687 -0.2985
  105OSM   C15S10731   5.404   1.467   9.080 -0.2354 -0.1634 -0.3693
  105OSM   H15S10732   5.465   1.556   9.109 -1.7703  0.6563  0.4427
  105OSM   H15T10733   5.297   1.490   9.096 -0.9268 -3.0935 -0.3967
  105OSM   C16S10734   5.449   1.427   8.938 -0.4131  0.4166  0.1809
  105OSM   H16S10735   5.377   1.349   8.906 -1.8026  1.3732  0.8908
  105OSM   H16T10736   5.552   1.386   8.938 -0.1620  1.0001  1.8899
  105OSM   C17S10737   5.452   1.547   8.841  0.1790  0.5571  0.1685
  105OSM   H17S10738   5.537   1.617   8.856 -1.0250  1.9352  0.8256
  105OSM   H17T10739   5.362   1.611   8.842  0.0797  0.4265  1.3172
  105OSM   C18S10740   5.472   1.499   8.693  0.7940  0.5519  0.1975
  105OSM   H18S10741   5.549   1.421   8.680  0.1760  0.3036 -2.8074
  105OSM   H18T10742   5.501   1.580   8.622  1.2768 -1.1084 -1.5748
  105OSM   H18U10743   5.377   1.451   8.660  0.2555  0.0845  2.2802
  105OSM    C1F10744   5.631   1.158  10.357 -0.0770 -0.3883 -0.5108
  105OSM     OF10745   5.516   1.115  10.387 -0.2942 -0.1088  0.2617
  105OSM    C2F10746   5.733   1.072  10.291  0.1656  0.6554  0.2816
  105OSM    H2F10747   5.737   0.968  10.331 -0.2696 -0.6298 -2.7726
  105OSM    H2G10748   5.836   1.108  10.308  0.3060  0.3096  0.1797
  105OSM    C3F10749   5.716   1.054  10.140 -0.7562 -0.3003 -0.2916
  105OSM    H3F10750   5.611   1.019  10.131 -1.2142  0.9293  0.0554
  105OSM    H3G10751   5.783   0.980  10.091 -1.4298 -1.1047 -0.0321
  105OSM    C4F10752   5.730   1.190  10.070  0.1443  0.7256  0.2991
  105OSM    H4F10753   5.813   1.232  10.131 -0.7798 -0.0915  2.2161
  105OSM    H4G10754   5.645   1.252  10.107 -0.3465  0.3077 -0.1221
  105OSM    C5F10755   5.737   1.170   9.918 -0.2046 -0.0439  0.6592
  105OSM    H5F10756   5.816   1.102   9.882 -1.2086 -0.0671 -1.6558
  105OSM    H5G10757   5.763   1.265   9.866 -2.2199  0.5087  0.5594
  105OSM    C6F10758   5.596   1.139   9.862  0.0396  0.0870  0.1491
  105OSM    H6F10759   5.513   1.185   9.920 -0.6267  0.3835 -1.0211
  105OSM    H6G10760   5.575   1.030   9.855 -2.4851  0.5654 -0.6056
  105OSM    C7F10761   5.576   1.187   9.719 -0.5762  0.0137 -0.5302
  105OSM    H7F10762   5.583   1.298   9.719 -2.1321  0.1331  0.1878
  105OSM    H7G10763   5.473   1.159   9.689 -0.7098 -0.9700  0.7322
  105OSM    C8F10764   5.668   1.113   9.619  0.0058  0.1521 -0.0373
  105OSM    H8F10765   5.777   1.127   9.638 -0.1216 -2.9826  4.8448
  105OSM    H8G10766   5.648   1.160   9.520  1.1933  2.4985  0.7516
  105OSM    C9F10767   5.623   0.969   9.624  0.1337 -0.1369 -0.3176
  105OSM    H9F10768   5.678   0.905   9.695 -0.8005  0.3871  0.9107
  105OSM   C10F10769   5.538   0.909   9.531  0.2827 -0.0112 -0.2888
  105OSM   H10F10770   5.500   0.810   9.558  1.8633 -0.3527  0.8717
  105OSM   C11F10771   5.468   0.973   9.410  0.8888 -0.1467 -0.6903
  105OSM   H11F10772   5.521   1.066   9.380 -0.5253  1.2002  0.8060
  105OSM   H11G10773   5.368   1.006   9.445  1.5311  0.3803  0.7215
  105OSM   C12F10774   5.451   0.876   9.297  0.5758  0.3554  0.5212
  105OSM   H12F10775   5.384   0.789   9.315 -1.2417  1.8572  1.2298
  105OSM   H12G10776   5.553   0.833   9.280  1.6487  2.3312  1.6388
  105OSM   C13F10777   5.399   0.947   9.176  0.2548  0.2345  0.2372
  105OSM   H13F10778   5.480   1.012   9.136  0.2331  0.2393  0.2014
  105OSM   H13G10779   5.316   1.008   9.217  1.1966 -0.1202  2.9040
  105OSM   C14F10780   5.352   0.846   9.073  0.2735 -0.3192  0.5874
  105OSM   H14F10781   5.276   0.784   9.125 -0.0076 -0.0508  0.5008
  105OSM   H14G10782   5.428   0.780   9.027  0.9348 -0.2960  1.6060
  105OSM   C15F10783   5.285   0.921   8.955 -0.0964  0.4664  0.2469
  105OSM   H15F10784   5.216   0.995   9.000  2.8279  2.0158  2.5600
  105OSM   H15G10785   5.234   0.849   8.887  0.0543  1.0973 -0.5513
  105OSM   C16F10786   5.377   0.984   8.859 -0.7449  0.0840  0.0593
  105OSM   H16F10787   5.448   0.908   8.818  0.4121  1.0176  0.2689
  105OSM   H16G10788   5.435   1.058   8.919  1.4100 -1.1981 -0.3196
  105OSM   C17F10789   5.325   1.071   8.733  0.4707 -0.6348 -0.7556
  105OSM   H17F10790   5.268   1.153   8.782 -0.1490 -1.4421 -0.0922
  105OSM   H17G10791   5.250   1.008   8.680  1.6446 -1.3923 -1.5596
  105OSM   C18F10792   5.437   1.125   8.642 -0.1452 -0.2895  0.1696
  105OSM   H18F10793   5.521   1.057   8.617 -0.1796  0.0334 -0.8719
  105OSM   H18G10794   5.478   1.216   8.692 -0.3092  0.9865 -1.9076
  105OSM   H18H10795   5.388   1.156   8.548  0.3836  1.0141  0.2948
  106OSM      N10796   0.059   0.565  10.887  1.0275  0.2011 -0.7456
  106OSM    C1510797   0.043   0.611  11.029  0.3714 -0.1085 -0.1458
  106OSM   H15A10798   0.103   0.548  11.094 -0.8234  0.1909  1.3049
  106OSM   H15B10799  -0.063   0.614  11.051  0.1706  0.7424 -1.1701
  106OSM   H15C10800   0.079   0.713  11.037 -0.4220  0.0261  3.4218
  106OSM    C1410801   0.019   0.677  10.798 -0.0881 -0.0182 -0.2342
  106OSM   H14A10802   0.055   0.675  10.696 -0.0819 -0.8498 -0.2225
  106OSM   H14B10803   0.057   0.765  10.847 -1.4442  0.4100  0.0961
  106OSM   H14C10804  -0.089   0.683  10.800 -0.0136  1.3148  1.1688
  106OSM    C1310805   0.195   0.539  10.867 -0.5397 -0.6527  0.3123
  106OSM   H13A10806   0.219   0.519  10.764  0.7306  0.4369  0.3602
  106OSM   H13B10807   0.240   0.456  10.919 -0.6982 -1.1943 -0.3955
  106OSM   H13C10808   0.244   0.635  10.879 -0.9219 -0.4431  0.2144
  106OSM    C1210809  -0.022   0.440  10.862  0.0687  0.2236 -0.3482
  106OSM   H12A10810   0.038   0.367  10.913  0.8536  1.6657  0.8748
  106OSM   H12B10811  -0.021   0.411  10.758 -0.5812  1.7756 -0.8145
  106OSM    C1110812  -0.172   0.441  10.919 -0.5588  0.4385  0.7007
  106OSM   H11A10813  -0.173   0.443  11.030 -0.1695 -1.0087  0.7491
  106OSM   H11B10814  -0.212   0.341  10.892  0.0329  0.4557 -0.2887
  106OSM      P10815  -0.399   0.557  10.880 -0.5506 -0.6329 -0.5833
  106OSM    O1310816  -0.447   0.515  11.012 -0.3469 -0.7962 -0.4431
  106OSM    O1410817  -0.437   0.698  10.858 -0.2371  0.4605  0.3741
  106OSM    O1110818  -0.445   0.465  10.762 -0.3984  1.0153  0.2215
  106OSM    O1210819  -0.243   0.554  10.871  0.4618 -0.9832  0.2358
  106OSM    C1S10820  -0.395   0.488  10.627  0.0821  0.1498 -0.6974
  106OSM    H1S10821  -0.285   0.476  10.617  0.5820  3.5717 -0.6079
  106OSM    H1T10822  -0.411   0.592  10.592  0.6102  0.4956  0.0496
  106OSM     NF10823  -0.404   0.409  10.402  0.2763  0.4756  0.8684
  106OSM    HNF10824  -0.453   0.466  10.336  0.1308  0.7811  1.2333
  106OSM    C2S10825  -0.467   0.397  10.531  0.1905 -0.0336 -0.2782
  106OSM    H2S10826  -0.456   0.293  10.566 -1.6834 -0.2693 -0.2742
  106OSM    C3S10827  -0.625   0.437  10.527  0.0106 -0.0302  0.6822
  106OSM    H3S10828  -0.628   0.544  10.497  1.9265 -0.7235 -2.4250
  106OSM     O310829  -0.690   0.426  10.647  0.4854 -0.2720  0.4688
  106OSM    HO310830  -0.618   0.426  10.711 -0.0861  0.6472  1.1388
  106OSM    C4S10831  -0.695   0.360  10.421  0.1389  0.4739  0.1826
  106OSM    H4S10832  -0.676   0.252  10.414  0.1388  0.2683  2.5861
  106OSM    C5S10833  -0.792   0.405  10.343 -0.1254 -0.4087  0.2250
  106OSM    H5S10834  -0.825   0.509  10.358  3.4352  1.0294 -0.9093
  106OSM    C6S10835  -0.866   0.326  10.239  0.1162 -0.1900 -0.2905
  106OSM    H6S10836  -0.974   0.341  10.260  0.4071  2.1129 -0.1512
  106OSM    H6T10837  -0.845   0.217  10.235 -4.1131 -1.2513  1.4677
  106OSM    C7S10838  -0.839   0.379  10.095  0.7687 -0.1573  0.4791
  106OSM    H7S10839  -0.730   0.397  10.085  0.9743 -1.2177  0.6602
  106OSM    H7T10840  -0.896   0.472  10.075  0.1421 -0.7699 -0.6204
  106OSM    C8S10841  -0.878   0.280   9.978  0.3801  0.9119 -0.2097
  106OSM    H8S10842  -0.989   0.275   9.977  0.3993  0.4892 -0.1163
  106OSM    H8T10843  -0.836   0.181  10.003  0.2512  0.7770 -0.5204
  106OSM    C9S10844  -0.823   0.317   9.834  0.3011 -0.1894  0.0224
  106OSM    H9S10845  -0.715   0.336   9.854  0.1886 -0.9085  1.4867
  106OSM    H9T10846  -0.872   0.410   9.798  1.2798 -0.0146 -0.9049
  106OSM   C10S10847  -0.850   0.222   9.724 -0.3149  0.9250 -0.4898
  106OSM   H10S10848  -0.960   0.209   9.718 -0.2912 -2.0298  2.5569
  106OSM   H10T10849  -0.806   0.122   9.742  0.0615  0.9554 -1.2129
  106OSM   C11S10850  -0.805   0.279   9.587  0.6371  0.1358  0.5102
  106OSM   H11S10851  -0.699   0.311   9.581  1.1800 -1.8347 -1.7462
  106OSM   H11T10852  -0.878   0.356   9.552 -0.5334 -0.2242  2.0430
  106OSM   C12S10853  -0.812   0.160   9.482  0.2850  1.1704 -0.8356
  106OSM   H12S10854  -0.916   0.131   9.455  0.1344  0.8541  0.0368
  106OSM   H12T10855  -0.759   0.073   9.526 -0.3968 -0.0323 -2.3156
  106OSM   C13S10856  -0.738   0.172   9.349 -1.0398 -0.5495  0.1903
  106OSM   H13S10857  -0.718   0.070   9.312  1.4934  0.0556 -0.2618
  106OSM   H13T10858  -0.634   0.200   9.376 -1.1165 -1.2160  1.2145
  106OSM   C14S10859  -0.809   0.252   9.240 -0.7793  0.4636 -0.8471
  106OSM   H14S10860  -0.783   0.360   9.239  1.8062 -0.0957 -0.4392
  106OSM   H14T10861  -0.920   0.241   9.240 -0.8538  1.1725 -1.2956
  106OSM   C15S10862  -0.750   0.209   9.102 -0.6138  0.3984 -0.2130
  106OSM   H15S10863  -0.789   0.106   9.089 -1.2826  0.6393 -0.1597
  106OSM   H15T10864  -0.639   0.201   9.103 -0.5895  0.6589 -0.6181
  106OSM   C16S10865  -0.795   0.297   8.985  0.1314 -0.5100  0.2331
  106OSM   H16S10866  -0.904   0.306   9.002 -0.1455 -0.7313 -1.2664
  106OSM   H16T10867  -0.778   0.253   8.884  1.5749 -1.6538  0.9271
  106OSM   C17S10868  -0.729   0.442   8.971  0.0631  0.2607  0.2147
  106OSM   H17S10869  -0.742   0.497   9.067 -3.7054 -1.4973  0.9155
  106OSM   H17T10870  -0.789   0.487   8.890  1.2355 -0.3444 -1.0242
  106OSM   C18S10871  -0.587   0.431   8.929  0.4164  0.2605 -0.2583
  106OSM   H18S10872  -0.516   0.409   9.012  1.5298  0.7020 -1.0752
  106OSM   H18T10873  -0.552   0.515   8.866 -2.5472  1.0321 -1.0420
  106OSM   H18U10874  -0.562   0.342   8.867  0.8885 -0.5848  1.0776
  106OSM    C1F10875  -0.289   0.349  10.358 -0.2467 -0.2502 -0.0680
  106OSM     OF10876  -0.224   0.272  10.429  0.6853  0.2227  0.2943
  106OSM    C2F10877  -0.256   0.376  10.215  0.3223 -0.3982  0.3901
  106OSM    H2F10878  -0.201   0.472  10.198 -1.4777  0.3753 -1.5333
  106OSM    H2G10879  -0.347   0.379  10.151  0.4646 -0.8995  0.1631
  106OSM    C3F10880  -0.166   0.266  10.152 -0.6738  0.0694  0.4565
  106OSM    H3F10881  -0.215   0.168  10.141 -4.2541  1.9195 -1.7932
  106OSM    H3G10882  -0.088   0.258  10.231 -2.2261  2.4651  2.3822
  106OSM    C4F10883  -0.095   0.314  10.028 -0.1665  0.2240 -0.1270
  106OSM    H4F10884  -0.051   0.221   9.985  0.3911  0.5182 -0.2063
  106OSM    H4G10885  -0.021   0.390  10.061 -1.3387  1.1387  0.4433
  106OSM    C5F10886  -0.190   0.376   9.925  0.7310 -0.6918 -0.0434
  106OSM    H5F10887  -0.244   0.455   9.980  2.0052 -0.8153  1.4460
  106OSM    H5G10888  -0.263   0.300   9.890 -3.1281  1.8500  1.7907
  106OSM    C6F10889  -0.115   0.423   9.796  0.1039  0.1525 -0.4502
  106OSM    H6F10890  -0.027   0.485   9.826 -0.7394  0.8389  0.6896
  106OSM    H6G10891  -0.178   0.499   9.746  0.7822  1.6494  0.8757
  106OSM    C7F10892  -0.080   0.303   9.714  0.3975  0.0329  1.0927
  106OSM    H7F10893  -0.171   0.290   9.652  0.8548 -0.6079  0.5410
  106OSM    H7G10894  -0.074   0.213   9.779  1.1914  0.1734  1.2241
  106OSM    C8F10895   0.048   0.315   9.634 -1.4839 -0.3761 -0.0425
  106OSM    H8F10896   0.088   0.218   9.596  0.3220  0.8752 -1.5270
  106OSM    H8G10897   0.126   0.338   9.711 -0.4073  1.2851 -1.5624
  106OSM    C9F10898   0.051   0.430   9.533  0.2281  0.4483 -0.7452
  106OSM    H9F10899   0.077   0.531   9.568 -0.4318  0.8645 -1.4104
  106OSM   C10F10900   0.012   0.419   9.404 -0.7274  0.1723 -0.1544
  106OSM   H10F10901   0.019   0.507   9.338  1.5409 -1.4497 -2.2953
  106OSM   C11F10902  -0.038   0.291   9.334 -0.8661 -0.0123  0.3095
  106OSM   H11F10903  -0.147   0.301   9.314 -1.1555 -1.6249  0.9429
  106OSM   H11G10904  -0.037   0.217   9.416  0.9523  2.0226  2.2704
  106OSM   C12F10905   0.042   0.231   9.210  0.2184  0.4097  0.0730
  106OSM   H12F10906  -0.005   0.144   9.158 -0.2784  0.8259 -0.1905
  106OSM   H12G10907   0.138   0.185   9.241 -0.6900 -0.3402  1.9420
  106OSM   C13F10908   0.063   0.327   9.096  0.2882  0.1153 -0.1349
  106OSM   H13F10909   0.145   0.397   9.121  0.5524 -0.4444  0.5999
  106OSM   H13G10910  -0.028   0.382   9.065  0.6621  0.4121 -0.7264
  106OSM   C14F10911   0.109   0.259   8.969 -0.1285  0.2758 -0.6046
  106OSM   H14F10912   0.030   0.188   8.935 -0.9618  1.6643 -1.6780
  106OSM   H14G10913   0.208   0.216   8.993  0.0149  0.5078 -0.7724
  106OSM   C15F10914   0.129   0.358   8.856  0.0363 -0.5978 -0.2064
  106OSM   H15F10915   0.186   0.301   8.779 -0.6309 -0.5384 -0.7538
  106OSM   H15G10916   0.200   0.437   8.890  2.1529 -2.8972  1.0536
  106OSM   C16F10917  -0.003   0.409   8.794  0.8091  0.1329  0.0894
  106OSM   H16F10918   0.020   0.491   8.722  1.3082  1.1033  1.3314
  106OSM   H16G10919  -0.068   0.459   8.868  0.0350  1.5299 -1.4662
  106OSM   C17F10920  -0.089   0.312   8.718  0.4610  0.1245  0.1711
  106OSM   H17F10921  -0.131   0.236   8.787 -0.9298  0.4925 -0.2387
  106OSM   H17G10922  -0.024   0.259   8.646  0.1829 -0.1431  0.1168
  106OSM   C18F10923  -0.215   0.381   8.659 -0.2588  0.5971 -0.2974
  106OSM   H18F10924  -0.288   0.301   8.633 -0.2672  0.9957 -1.6052
  106OSM   H18G10925  -0.192   0.446   8.572 -0.9133  1.8116  0.4218
  106OSM   H18H10926  -0.253   0.443   8.742 -1.6549 -1.3766  0.6189
  107OSM      N10927   1.409   6.731  11.421  0.1277  0.3848 -0.0384
  107OSM    C1510928   1.389   6.585  11.429  0.0168 -0.0672 -0.0514
  107OSM   H15A10929   1.439   6.535  11.510  2.7019 -0.1571 -1.6368
  107OSM   H15B10930   1.425   6.538  11.338 -0.9867 -0.5017 -0.2310
  107OSM   H15C10931   1.284   6.560  11.427 -0.0410  0.1958 -0.3719
  107OSM    C1410932   1.343   6.797  11.536  0.2632 -0.3769  0.4538
  107OSM   H14A10933   1.377   6.899  11.525  0.7724 -0.7308 -1.5293
  107OSM   H14B10934   1.363   6.751  11.632 -0.6923  0.2217  0.9578
  107OSM   H14C10935   1.236   6.804  11.524  0.0736 -4.2215 -2.0150
  107OSM    C1310936   1.555   6.750  11.425  0.2534  0.1087 -0.5128
  107OSM   H13A10937   1.611   6.702  11.346 -3.1309 -1.3389 -2.2212
  107OSM   H13B10938   1.594   6.710  11.518 -0.4447 -0.8048 -0.6023
  107OSM   H13C10939   1.579   6.855  11.431  1.6836 -0.2793  1.7726
  107OSM    C1210940   1.354   6.785  11.288 -0.9783  0.6108 -0.2598
  107OSM   H12A10941   1.376   6.890  11.276 -1.3842  0.6775 -0.4581
  107OSM   H12B10942   1.248   6.765  11.280 -0.8965  0.2600 -0.4747
  107OSM    C1110943   1.424   6.713  11.165  0.0770 -0.2899 -0.1472
  107OSM   H11A10944   1.533   6.706  11.180  0.1572 -1.5910 -1.2019
  107OSM   H11B10945   1.408   6.772  11.072  0.7634  0.2707  0.0861
  107OSM      P10946   1.232   6.564  11.073  0.1218  0.0392  0.6322
  107OSM    O1310947   1.209   6.418  11.052  0.0698 -0.2244  0.1078
  107OSM    O1410948   1.127   6.637  11.144 -0.6834 -0.6812  0.4083
  107OSM    O1110949   1.238   6.640  10.938  0.5760 -0.0574  0.1103
  107OSM    O1210950   1.372   6.584  11.144 -0.2988  0.5929  0.2259
  107OSM    C1S10951   1.326   6.587  10.838  1.0066 -0.5171  0.3963
  107OSM    H1S10952   1.311   6.478  10.820 -0.8562  0.0357 -1.9114
  107OSM    H1T10953   1.430   6.611  10.868  0.1086  0.9304  2.6603
  107OSM     NF10954   1.345   6.573  10.588  0.3584  0.5846  0.0130
  107OSM    HNF10955   1.439   6.593  10.563  1.7061  0.0852  3.9106
  107OSM    C2S10956   1.300   6.653  10.695  0.1583  0.0938 -0.5510
  107OSM    H2S10957   1.193   6.672  10.671  0.2414 -0.3348 -1.2938
  107OSM    C3S10958   1.373   6.786  10.697  0.1858 -0.0156  0.0723
  107OSM    H3S10959   1.481   6.760  10.698  0.3438 -0.1015 -3.8102
  107OSM     O310960   1.343   6.884  10.802 -0.1753 -0.0982  0.8275
  107OSM    HO310961   1.292   6.837  10.869 -3.4154  2.1588  0.1767
  107OSM    C4S10962   1.361   6.849  10.555 -1.0462  0.6459 -0.5720
  107OSM    H4S10963   1.444   6.824  10.488  1.1037  1.4724  1.6679
  107OSM    C5S10964   1.271   6.934  10.516 -0.3649  0.0979 -0.6140
  107OSM    H5S10965   1.189   6.950  10.588  1.6018 -0.8125  1.9792
  107OSM    C6S10966   1.258   6.987  10.371 -0.1604  0.5253 -0.5547
  107OSM    H6S10967   1.266   7.097  10.379 -0.2859  0.5399 -0.6270
  107OSM    H6T10968   1.156   6.974  10.328 -0.0069  0.7972 -1.0049
  107OSM    C7S10969   1.347   6.929  10.257 -0.0364 -0.1881 -0.6851
  107OSM    H7S10970   1.339   6.818  10.259 -0.2137 -0.1757 -0.6782
  107OSM    H7T10971   1.456   6.950  10.269  0.3832 -2.5145  0.1366
  107OSM    C8S10972   1.301   6.982  10.122 -0.0695 -0.0519  0.1639
  107OSM    H8S10973   1.290   7.093  10.122  0.4550  0.0178  1.5370
  107OSM    H8T10974   1.195   6.947  10.123 -0.5450  1.1700 -1.4407
  107OSM    C9S10975   1.382   6.929  10.002 -0.1545 -0.0431 -0.9113
  107OSM    H9S10976   1.394   6.819  10.008 -0.1559 -0.0939 -1.7675
  107OSM    H9T10977   1.481   6.978  10.012 -0.6547  0.6320  1.3701
  107OSM   C10S10978   1.331   6.970   9.867 -0.0380 -1.0712  0.2821
  107OSM   H10S10979   1.342   7.080   9.859 -1.0272 -1.0669 -1.5200
  107OSM   H10T10980   1.222   6.952   9.874 -0.1882  0.0443  1.0861
  107OSM   C11S10981   1.402   6.898   9.749 -0.0897 -0.5512  0.3991
  107OSM   H11S10982   1.405   6.788   9.766  0.0006 -0.4696  0.9410
  107OSM   H11T10983   1.509   6.928   9.745  0.7530 -3.3219 -0.6094
  107OSM   C12S10984   1.339   6.931   9.612  0.0355 -0.1983 -0.1291
  107OSM   H12S10985   1.313   7.037   9.596 -0.0285 -0.6848 -4.0790
  107OSM   H12T10986   1.258   6.857   9.588 -0.9249  0.9882 -0.6443
  107OSM   C13S10987   1.428   6.898   9.494  0.7738  0.4823  0.4400
  107OSM   H13S10988   1.463   6.792   9.500 -1.9035 -0.4369  1.3575
  107OSM   H13T10989   1.513   6.969   9.505 -1.7310  4.2348 -2.1864
  107OSM   C14S10990   1.350   6.919   9.361  0.2427 -0.8650 -0.4034
  107OSM   H14S10991   1.302   7.019   9.367  0.9203 -0.3974 -2.2578
  107OSM   H14T10992   1.268   6.845   9.346 -0.2145 -0.6961  1.0839
  107OSM   C15S10993   1.436   6.920   9.239 -0.4117 -0.2914  0.0794
  107OSM   H15S10994   1.489   6.823   9.226  1.2151  0.6114 -0.3051
  107OSM   H15T10995   1.506   7.005   9.254 -1.7571  0.6261  1.4480
  107OSM   C16S10996   1.353   6.954   9.111 -0.7205  0.7831  0.7099
  107OSM   H16S10997   1.286   7.035   9.148 -1.5200  1.8831 -2.7538
  107OSM   H16T10998   1.289   6.868   9.081  1.9770 -0.5705 -1.5919
  107OSM   C17S10999   1.440   6.972   8.984 -0.3911  0.2149 -0.1185
  107OSM   H17S11000   1.518   6.894   8.970 -0.9838 -0.2593 -0.8701
  107OSM   H17T11001   1.496   7.067   9.001 -1.4333  1.1390 -1.5637
  107OSM   C18S11002   1.357   6.980   8.855 -0.2585 -0.1632  0.1314
  107OSM   H18S11003   1.426   6.986   8.769  0.7078 -1.9660  0.7249
  107OSM   H18T11004   1.288   7.066   8.865  1.6564  1.2775  1.9199
  107OSM   H18U11005   1.304   6.883   8.842 -1.7974  0.4842  1.3480
  107OSM    C1F11006   1.286   6.457  10.554  0.3958 -0.0354 -0.3189
  107OSM     OF11007   1.198   6.410  10.618 -0.6244 -0.7881  0.2058
  107OSM    C2F11008   1.330   6.393  10.427 -0.0873 -0.0330  0.3301
  107OSM    H2F11009   1.294   6.289  10.416 -2.0058  0.5430  0.8124
  107OSM    H2G11010   1.441   6.394  10.425 -0.0642  1.0888 -2.1958
  107OSM    C3F11011   1.270   6.461  10.303 -0.0489 -0.0016 -0.2260
  107OSM    H3F11012   1.299   6.567  10.287 -0.0344  0.0549  0.1596
  107OSM    H3G11013   1.162   6.446  10.326 -0.1016  0.0285 -0.4511
  107OSM    C4F11014   1.295   6.369  10.188  0.0857  0.0954 -0.2981
  107OSM    H4F11015   1.282   6.262  10.216 -1.3068  0.3409  0.0858
  107OSM    H4G11016   1.397   6.387  10.149  0.9959 -0.0874  1.8518
  107OSM    C5F11017   1.192   6.401  10.072 -0.6780 -0.1549 -0.1739
  107OSM    H5F11018   1.201   6.508  10.043 -1.0657 -0.4672 -1.5272
  107OSM    H5G11019   1.087   6.392  10.107 -0.0139  0.3237  2.0958
  107OSM    C6F11020   1.222   6.316   9.950 -0.3073  0.5762 -0.1374
  107OSM    H6F11021   1.186   6.212   9.968  0.9381  0.1342 -0.0975
  107OSM    H6G11022   1.331   6.302   9.938 -0.6775 -1.9839 -1.2983
  107OSM    C7F11023   1.149   6.367   9.820  0.0321  0.1530 -0.2932
  107OSM    H7F11024   1.160   6.478   9.819 -1.3918  0.3252 -1.5482
  107OSM    H7G11025   1.039   6.349   9.822 -0.0627  0.5986 -1.1403
  107OSM    C8F11026   1.200   6.308   9.691  0.0102 -0.6151 -0.0581
  107OSM    H8F11027   1.311   6.306   9.700  0.0390  1.3922  0.3909
  107OSM    H8G11028   1.177   6.383   9.613 -2.6631 -0.1331  1.0745
  107OSM    C9F11029   1.143   6.170   9.650  0.3071 -0.7975 -0.1016
  107OSM    H9F11030   1.066   6.132   9.719 -0.4498  1.3853  0.3321
  107OSM   C10F11031   1.179   6.116   9.532  0.0298  0.1338 -0.8381
  107OSM   H10F11032   1.138   6.016   9.514  0.6618 -0.2746 -0.0960
  107OSM   C11F11033   1.279   6.163   9.424  0.1799 -0.2569 -0.6288
  107OSM   H11F11034   1.380   6.120   9.436 -0.2761 -1.2192 -0.0529
  107OSM   H11G11035   1.289   6.273   9.438 -2.1545  0.0113 -0.6591
  107OSM   C12F11036   1.222   6.134   9.283 -0.0625 -0.6095 -0.9339
  107OSM   H12F11037   1.298   6.152   9.204 -1.0947  1.3522 -1.5362
  107OSM   H12G11038   1.139   6.205   9.261 -0.6488 -0.9199  0.2162
  107OSM   C13F11039   1.180   5.991   9.262 -0.3819 -0.4534 -0.3003
  107OSM   H13F11040   1.080   5.978   9.308  0.3886 -3.6191  0.7678
  107OSM   H13G11041   1.253   5.926   9.316 -0.1601 -3.4265 -3.7455
  107OSM   C14F11042   1.194   5.942   9.113  0.1346  0.3187  0.3640
  107OSM   H14F11043   1.188   5.834   9.087  3.9566  0.2300 -0.7801
  107OSM   H14G11044   1.298   5.970   9.086 -0.1909 -0.1082 -1.4141
  107OSM   C15F11045   1.090   6.012   9.016 -0.0584  0.1781  0.4751
  107OSM   H15F11046   1.089   6.120   9.039 -2.2160  0.0024  1.4236
  107OSM   H15G11047   0.987   5.970   9.022 -0.4499  0.4848 -2.5713
  107OSM   C16F11048   1.141   5.988   8.870 -0.7992 -0.0106 -0.2963
  107OSM   H16F11049   1.144   5.881   8.843  1.8437 -0.0108 -0.2236
  107OSM   H16G11050   1.247   6.021   8.874 -0.6871 -0.3770 -0.2609
  107OSM   C17F11051   1.078   6.084   8.766 -0.0196 -0.3721 -0.4992
  107OSM   H17F11052   1.140   6.065   8.676  1.0595 -1.4811  0.4468
  107OSM   H17G11053   1.079   6.187   8.808 -0.5049 -0.6118  0.1134
  107OSM   C18F11054   0.933   6.035   8.747 -0.0145  0.9062 -0.6936
  107OSM   H18F11055   0.904   6.043   8.640 -1.2803 -1.3818 -0.5794
  107OSM   H18G11056   0.863   6.095   8.810 -0.0797 -0.1941  0.3111
  107OSM   H18H11057   0.924   5.925   8.761 -0.4915  0.7885 -1.8271
  108OSM      N11058   3.662   1.880  11.268  0.5167 -0.4186 -0.0023
  108OSM    C1511059   3.571   1.792  11.345  0.1318  0.2772  0.4035
  108OSM   H15A11060   3.534   1.714  11.280 -1.2839  1.7674 -0.6409
  108OSM   H15B11061   3.485   1.843  11.386 -0.1666  0.0314  0.0880
  108OSM   H15C11062   3.625   1.737  11.421 -0.2721 -2.0259 -0.8773
  108OSM    C1411063   3.584   1.928  11.153 -0.3683 -0.1856  0.2276
  108OSM   H14A11064   3.632   2.006  11.096  2.0263 -0.4715  1.7566
  108OSM   H14B11065   3.486   1.965  11.179  0.0723  1.0452  0.1692
  108OSM   H14C11066   3.557   1.843  11.090 -1.6485 -0.8210  1.5647
  108OSM    C1311067   3.696   1.994  11.357 -0.3429  0.2677 -0.6076
  108OSM   H13A11068   3.610   2.050  11.391  0.5804  0.8321  0.8412
  108OSM   H13B11069   3.767   2.057  11.306 -0.1373 -0.9925 -1.9581
  108OSM   H13C11070   3.756   1.955  11.437  0.9045  1.1284 -1.0978
  108OSM    C1211071   3.786   1.806  11.216  0.0336  1.2408  0.7359
  108OSM   H12A11072   3.765   1.716  11.160  2.9450  0.7626  0.2146
  108OSM   H12B11073   3.853   1.783  11.297 -0.5721  2.1267  1.5120
  108OSM    C1111074   3.878   1.882  11.115  0.0640  0.2542 -1.2408
  108OSM   H11A11075   3.826   1.914  11.023  0.9566  1.9334 -1.2106
  108OSM   H11B11076   3.954   1.807  11.084 -1.1105 -1.0314 -1.1011
  108OSM      P11077   3.960   2.134  11.136  0.0576  0.2323 -0.0512
  108OSM    O1311078   3.906   2.221  11.243  0.7773  0.0469 -0.1649
  108OSM    O1411079   4.099   2.155  11.093 -0.4354 -0.7735  0.4027
  108OSM    O1111080   3.867   2.154  11.012  0.7925 -0.0686 -0.0204
  108OSM    O1211081   3.936   1.993  11.193  0.0645  0.4033 -0.3768
  108OSM    C1S11082   3.853   2.288  10.946 -0.3126  0.3125  0.0947
  108OSM    H1S11083   3.951   2.338  10.934 -1.1430  1.6708 -1.3226
  108OSM    H1T11084   3.779   2.353  10.999 -2.2775 -0.3450 -1.7136
  108OSM     NF11085   3.808   2.384  10.720  0.6959 -0.0009  0.0126
  108OSM    HNF11086   3.720   2.418  10.688  0.6238 -0.4524 -0.2846
  108OSM    C2S11087   3.802   2.271  10.802 -0.0212 -0.3337  0.1256
  108OSM    H2S11088   3.868   2.192  10.760  0.4922 -0.7288  1.6014
  108OSM    C3S11089   3.656   2.220  10.805 -0.2552  0.6353  0.1964
  108OSM    H3S11090   3.593   2.304  10.841 -0.8291 -0.2313  1.2927
  108OSM     O311091   3.632   2.121  10.896 -0.2014  0.1725 -0.5300
  108OSM    HO311092   3.707   2.122  10.955 -0.1589 -4.2612 -0.1777
  108OSM    C4S11093   3.610   2.179  10.670  0.3604  0.2372  0.0159
  108OSM    H4S11094   3.658   2.098  10.613  0.2856 -0.0986  0.4240
  108OSM    C5S11095   3.514   2.244  10.604  0.3994  0.2436  0.6779
  108OSM    H5S11096   3.476   2.335  10.653  1.2700  1.0001 -0.0086
  108OSM    C6S11097   3.455   2.207  10.471  0.5820 -0.3755  0.4733
  108OSM    H6S11098   3.380   2.282  10.437  0.9266 -1.3428 -2.7115
  108OSM    H6T11099   3.393   2.115  10.478 -2.2488  1.3770 -0.0576
  108OSM    C7S11100   3.557   2.229  10.348  0.1017 -0.0001 -0.1287
  108OSM    H7S11101   3.639   2.157  10.365  1.8220  1.9450  0.2181
  108OSM    H7T11102   3.591   2.334  10.337  1.0916 -0.0850  1.7268
  108OSM    C8S11103   3.502   2.181  10.213 -0.6512 -0.3406  0.0476
  108OSM    H8S11104   3.417   2.253  10.202 -1.0524 -1.0255 -1.5008
  108OSM    H8T11105   3.472   2.075  10.223 -1.8810 -0.2147 -1.8325
  108OSM    C9S11106   3.599   2.188  10.090 -0.1765  0.2476  0.9423
  108OSM    H9S11107   3.690   2.124  10.091  0.5761  0.9740 -2.9552
  108OSM    H9T11108   3.640   2.291  10.088  0.4310  0.0066 -0.3783
  108OSM   C10S11109   3.537   2.171   9.957  0.6466  0.1118  0.2650
  108OSM   H10S11110   3.446   2.236   9.953 -0.8620 -1.8116  1.4687
  108OSM   H10T11111   3.508   2.064   9.946  0.5049  0.1514  0.2398
  108OSM   C11S11112   3.624   2.203   9.828  0.3739 -0.0441  0.7099
  108OSM   H11S11113   3.718   2.144   9.840 -0.5354 -1.2668  2.2047
  108OSM   H11T11114   3.638   2.313   9.838  0.1399  0.0161  0.3659
  108OSM   C12S11115   3.549   2.169   9.700  0.3776  0.5055  0.1868
  108OSM   H12S11116   3.459   2.233   9.699 -0.5609 -0.7313  1.1662
  108OSM   H12T11117   3.524   2.061   9.688  4.2643 -0.3501 -2.1370
  108OSM   C13S11118   3.632   2.209   9.577 -0.0508 -0.0685 -0.0602
  108OSM   H13S11119   3.725   2.149   9.591 -1.0782 -1.2716  2.2785
  108OSM   H13T11120   3.644   2.319   9.585  3.0697 -0.1779 -1.7960
  108OSM   C14S11121   3.571   2.177   9.440  0.4891  0.9573  0.3394
  108OSM   H14S11122   3.466   2.213   9.438  1.1511  2.9628 -0.2570
  108OSM   H14T11123   3.578   2.066   9.433  0.1873  0.8577  1.3787
  108OSM   C15S11124   3.657   2.241   9.329  0.3025 -0.0599  0.0050
  108OSM   H15S11125   3.755   2.190   9.345  1.8647  2.0990 -2.0552
  108OSM   H15T11126   3.675   2.347   9.358 -0.7897 -0.0423  0.6503
  108OSM   C16S11127   3.624   2.224   9.182  0.0732  0.2161 -0.7181
  108OSM   H16S11128   3.519   2.250   9.154 -0.1259  0.3553  0.1357
  108OSM   H16T11129   3.641   2.118   9.151  0.3668 -0.2731  1.0133
  108OSM   C17S11130   3.715   2.316   9.102  0.3124 -0.1136  0.0842
  108OSM   H17S11131   3.824   2.308   9.122  0.0183 -1.2106  1.3758
  108OSM   H17T11132   3.693   2.424   9.118 -1.3710 -0.4000 -0.0687
  108OSM   C18S11133   3.693   2.312   8.944  0.1939  0.7348 -0.7318
  108OSM   H18S11134   3.756   2.386   8.890 -0.0195  0.6554 -1.0860
  108OSM   H18T11135   3.586   2.332   8.922  1.1312  3.6662 -3.2568
  108OSM   H18U11136   3.717   2.211   8.903 -1.7920  0.2980 -0.8879
  108OSM    C1F11137   3.920   2.424  10.665  0.1087  0.1455  0.2458
  108OSM     OF11138   4.026   2.372  10.689 -0.0369  0.6748 -0.2779
  108OSM    C2F11139   3.897   2.533  10.564  0.2172  1.0216  0.2827
  108OSM    H2F11140   3.839   2.615  10.613  0.6833  2.4748 -1.4798
  108OSM    H2G11141   3.823   2.491  10.493 -0.3203 -1.0577  1.9770
  108OSM    C3F11142   4.020   2.582  10.490 -0.3323 -0.8364 -1.0391
  108OSM    H3F11143   4.074   2.495  10.446  0.5354 -0.5616 -0.5300
  108OSM    H3G11144   4.096   2.632  10.554  2.2418 -2.1078 -2.9266
  108OSM    C4F11145   3.990   2.685  10.377  0.3422  0.3568 -0.0729
  108OSM    H4F11146   4.082   2.746  10.361  0.9475 -0.9042 -1.6428
  108OSM    H4G11147   3.911   2.752  10.419  1.6584  2.7931 -1.2367
  108OSM    C5F11148   3.938   2.625  10.240  0.4916  0.2665  0.2500
  108OSM    H5F11149   3.915   2.517  10.256  2.8024 -0.2347  0.6076
  108OSM    H5G11150   4.016   2.630  10.161 -1.2096  1.9163 -1.3994
  108OSM    C6F11151   3.808   2.696  10.191 -0.2775 -0.4601 -0.4669
  108OSM    H6F11152   3.762   2.744  10.280 -0.4040 -1.6948  0.1521
  108OSM    H6G11153   3.737   2.617  10.158  1.6603 -2.8803  0.8370
  108OSM    C7F11154   3.848   2.804  10.086 -0.1321  0.4234 -0.0508
  108OSM    H7F11155   3.901   2.757  10.000 -0.4194  0.6157 -0.3349
  108OSM    H7G11156   3.913   2.877  10.138 -2.2483  1.5195  1.2080
  108OSM    C8F11157   3.724   2.880  10.047 -0.6188  0.4553 -0.1536
  108OSM    H8F11158   3.682   2.925  10.139 -1.0446 -1.0688  0.4285
  108OSM    H8G11159   3.646   2.809  10.012 -1.6268  1.3059  0.3223
  108OSM    C9F11160   3.745   2.979   9.935  0.1975  0.0151 -1.0251
  108OSM    H9F11161   3.780   3.078   9.968  0.4060 -0.4707  0.2949
  108OSM   C10F11162   3.717   2.962   9.805 -0.1456  0.4541 -0.2538
  108OSM   H10F11163   3.733   3.052   9.744  1.0370 -0.8997 -2.0336
  108OSM   C11F11164   3.652   2.847   9.734 -0.1425 -0.1398  0.6223
  108OSM   H11F11165   3.569   2.897   9.679  2.1634  3.1237 -0.1921
  108OSM   H11G11166   3.613   2.765   9.797 -0.1711 -0.1650  0.5715
  108OSM   C12F11167   3.753   2.789   9.633  0.3765  0.3753  0.0582
  108OSM   H12F11168   3.702   2.698   9.595  3.9272 -2.4167  1.4225
  108OSM   H12G11169   3.831   2.748   9.700 -0.7484 -3.0415 -0.5242
  108OSM   C13F11170   3.813   2.876   9.524  0.0445 -1.0582  0.0812
  108OSM   H13F11171   3.892   2.948   9.554 -1.6240  2.6359 -3.3998
  108OSM   H13G11172   3.730   2.939   9.484  1.3518 -0.9752 -2.7336
  108OSM   C14F11173   3.869   2.792   9.412  0.2870 -0.8197 -0.1454
  108OSM   H14F11174   3.814   2.705   9.371 -2.8967  2.0801 -2.6432
  108OSM   H14G11175   3.971   2.759   9.442  1.5937  1.6615 -1.4699
  108OSM   C15F11176   3.893   2.882   9.298 -0.0625  0.0813  1.2722
  108OSM   H15F11177   3.951   2.971   9.328  1.3733 -0.1255 -0.6764
  108OSM   H15G11178   3.799   2.931   9.264 -0.6782 -1.3423  0.8299
  108OSM   C16F11179   3.969   2.815   9.173  0.3946 -0.0314  0.4740
  108OSM   H16F11180   3.935   2.712   9.198 -1.3925  1.0453  2.9192
  108OSM   H16G11181   4.077   2.832   9.189  0.6736 -1.6506  0.5176
  108OSM   C17F11182   3.923   2.870   9.041 -0.9651  0.5161 -0.2901
  108OSM   H17F11183   3.963   2.974   9.044  2.4904 -0.6376 -1.5679
  108OSM   H17G11184   3.813   2.854   9.027 -1.2615  1.9543  0.1877
  108OSM   C18F11185   3.993   2.806   8.918  0.1536 -0.0570 -0.2127
  108OSM   H18F11186   4.100   2.776   8.923  0.4484  0.4944 -2.1807
  108OSM   H18G11187   3.979   2.863   8.823 -0.1051  1.0514  0.4712
  108OSM   H18H11188   3.930   2.716   8.901 -1.0286  0.7773 -0.4120
  109OSM      N11189   5.033   3.844  10.966 -0.0397 -0.3078 -0.3109
  109OSM    C1511190   4.970   3.735  11.050 -0.1733 -0.2448  0.2926
  109OSM   H15A11191   5.041   3.658  11.077  1.4491  0.9198 -0.5461
  109OSM   H15B11192   4.894   3.682  10.993 -0.0138  0.9557 -1.0980
  109OSM   H15C11193   4.915   3.777  11.133  0.6538 -1.2121  1.3689
  109OSM    C1411194   4.926   3.948  10.956 -0.6985  0.1811 -0.0160
  109OSM   H14A11195   4.882   3.964  11.054  0.4229  0.0332  0.5278
  109OSM   H14B11196   4.845   3.913  10.894 -2.2873  0.6608  1.6663
  109OSM   H14C11197   4.968   4.030  10.900  0.0578 -1.4014 -1.8721
  109OSM    C1311198   5.139   3.908  11.053 -0.4568 -0.4762  0.2797
  109OSM   H13A11199   5.229   3.848  11.052 -1.4598 -2.0384 -0.9592
  109OSM   H13B11200   5.102   3.901  11.154 -0.5552 -1.0269  0.2089
  109OSM   H13C11201   5.160   4.011  11.029 -0.8895 -0.4877 -0.1617
  109OSM    C1211202   5.076   3.800  10.826 -0.7373 -0.2505  0.0290
  109OSM   H12A11203   5.160   3.732  10.823  0.1746  0.7017  2.2057
  109OSM   H12B11204   5.115   3.889  10.779  1.7579 -0.9355  0.6747
  109OSM    C1111205   4.965   3.737  10.726 -0.4414 -0.2246 -0.3635
  109OSM   H11A11206   5.008   3.729  10.623 -1.7256 -0.5591 -0.8944
  109OSM   H11B11207   4.890   3.820  10.721  2.0169  2.2908  1.3523
  109OSM      P11208   5.006   3.474  10.765 -0.1546 -0.3689  0.2132
  109OSM    O1311209   5.147   3.520  10.778 -0.1649 -0.5970  0.1623
  109OSM    O1411210   4.959   3.383  10.875  0.5841 -0.0530 -0.5106
  109OSM    O1111211   4.993   3.394  10.627 -0.6380  0.4385 -0.1075
  109OSM    O1211212   4.916   3.606  10.769  0.0162 -0.2245  0.0635
  109OSM    C1S11213   4.959   3.470  10.515 -0.2039  0.1236  0.9059
  109OSM    H1S11214   5.047   3.535  10.494  1.2308 -0.6582  3.8885
  109OSM    H1T11215   4.861   3.522  10.527 -0.4150  0.0359 -0.3161
  109OSM     NF11216   4.955   3.453  10.269  0.6579 -0.1786  0.4193
  109OSM    HNF11217   4.868   3.474  10.226 -0.0693 -0.2662  1.7840
  109OSM    C2S11218   4.945   3.371  10.392  0.3423 -0.0500 -0.0396
  109OSM    H2S11219   5.034   3.305  10.398  1.0549  0.9197  0.3297
  109OSM    C3S11220   4.817   3.284  10.404  0.6041 -0.3176 -1.1293
  109OSM    H3S11221   4.736   3.360  10.408  1.0743  0.1855 -1.0875
  109OSM     O311222   4.804   3.192  10.516  0.0700  0.1469  0.0341
  109OSM    HO311223   4.888   3.188  10.561  1.3045  1.2078 -2.0265
  109OSM    C4S11224   4.788   3.211  10.277 -0.5039  0.8053  0.5042
  109OSM    H4S11225   4.697   3.229  10.217 -0.1240  0.3268 -0.2409
  109OSM    C5S11226   4.854   3.097  10.238  0.0276 -1.3752  0.7059
  109OSM    H5S11227   4.923   3.045  10.307  2.1194 -1.1808 -1.1221
  109OSM    C6S11228   4.825   3.015  10.121  0.6498  0.8855  0.6782
  109OSM    H6S11229   4.722   2.976  10.135  0.5289 -0.3319 -2.6235
  109OSM    H6T11230   4.891   2.925  10.122 -0.8329 -0.2272  1.8700
  109OSM    C7S11231   4.829   3.091   9.989  0.5622 -0.8020  0.0923
  109OSM    H7S11232   4.926   3.143   9.986 -0.1054  0.4864 -2.2163
  109OSM    H7T11233   4.749   3.168   9.979  0.7432 -0.5347  0.7026
  109OSM    C8S11234   4.812   3.012   9.862  0.0201  0.0441  0.0574
  109OSM    H8S11235   4.714   2.961   9.876  1.3994 -2.2079  2.3733
  109OSM    H8T11236   4.880   2.925   9.871  0.0409  0.1858  1.6073
  109OSM    C9S11237   4.821   3.089   9.730 -0.0266  0.2192  0.0147
  109OSM    H9S11238   4.916   3.147   9.738 -0.3194  0.5521  1.5886
  109OSM    H9T11239   4.751   3.175   9.721  2.1285  1.8962 -1.8060
  109OSM   C10S11240   4.805   3.010   9.601  0.1838 -0.4903 -0.4075
  109OSM   H10S11241   4.710   2.954   9.614  0.6421 -1.2205 -0.1213
  109OSM   H10T11242   4.886   2.935   9.602  1.2194  0.5847  0.6170
  109OSM   C11S11243   4.816   3.104   9.473 -0.2742  0.0091 -0.3572
  109OSM   H11S11244   4.904   3.171   9.479 -1.9213  2.1578  1.5199
  109OSM   H11T11245   4.722   3.162   9.481 -1.6679 -1.8635 -2.0934
  109OSM   C12S11246   4.809   3.043   9.342 -0.2047  0.5351  0.4261
  109OSM   H12S11247   4.735   2.959   9.343 -3.0915  2.8904  0.6379
  109OSM   H12T11248   4.905   2.997   9.310 -0.7707  0.2493 -0.9626
  109OSM   C13S11249   4.786   3.163   9.245  0.5222 -0.1500 -0.2581
  109OSM   H13S11250   4.876   3.228   9.256  0.9821 -0.5154 -1.6239
  109OSM   H13T11251   4.696   3.220   9.274  0.0454 -0.9465 -0.1594
  109OSM   C14S11252   4.761   3.109   9.102  0.6513 -0.0173 -0.2315
  109OSM   H14S11253   4.709   3.185   9.041  0.1693  1.3261  1.7400
  109OSM   H14T11254   4.689   3.026   9.114 -0.4787  1.0521  0.6634
  109OSM   C15S11255   4.883   3.066   9.023 -0.6024  0.4344 -0.2299
  109OSM   H15S11256   4.932   2.984   9.081  3.0041  1.6288 -1.2810
  109OSM   H15T11257   4.958   3.147   9.009  0.2859 -0.5915 -1.7138
  109OSM   C16S11258   4.829   3.027   8.889  0.7953  0.1938  0.1684
  109OSM   H16S11259   4.797   3.111   8.823  1.0618 -1.5847 -2.3847
  109OSM   H16T11260   4.734   2.971   8.894  0.0543  1.0613 -2.5371
  109OSM   C17S11261   4.932   2.945   8.810  0.2239 -0.4598  1.0065
  109OSM   H17S11262   4.947   2.842   8.849  0.9490 -0.6159  0.3552
  109OSM   H17T11263   5.036   2.981   8.818  0.9871 -1.7392 -1.7069
  109OSM   C18S11264   4.911   2.943   8.659  0.3545  0.1508  0.1541
  109OSM   H18S11265   4.806   2.925   8.629 -0.6918  2.1115  2.2466
  109OSM   H18T11266   4.983   2.869   8.619  0.4156 -0.0809  0.6865
  109OSM   H18U11267   4.941   3.047   8.630 -1.0995  0.5787  0.1116
  109OSM    C1F11268   5.060   3.506  10.219  0.4480 -0.0022 -0.0369
  109OSM     OF11269   5.167   3.506  10.284 -0.3669  0.6945  0.3375
  109OSM    C2F11270   5.036   3.570  10.083  0.9396  0.4538  0.5742
  109OSM    H2F11271   4.994   3.673  10.085  2.7474  1.2321  0.5754
  109OSM    H2G11272   4.958   3.514  10.028  2.2771  0.8981 -1.9243
  109OSM    C3F11273   5.171   3.553  10.004 -0.1756  0.5277  0.6889
  109OSM    H3F11274   5.185   3.444   9.986  1.0057  0.3357  2.5134
  109OSM    H3G11275   5.256   3.595  10.062  0.0164  1.6364 -0.3591
  109OSM    C4F11276   5.171   3.640   9.875  0.2422  1.1038 -0.0091
  109OSM    H4F11277   5.147   3.746   9.898 -1.2036  0.4247  1.8458
  109OSM    H4G11278   5.078   3.596   9.833  0.3682  0.0527  0.7936
  109OSM    C5F11279   5.299   3.621   9.795 -0.1431  0.1871  0.7633
  109OSM    H5F11280   5.388   3.632   9.860  0.2724  2.2090 -0.0456
  109OSM    H5G11281   5.305   3.687   9.705 -1.7957 -3.1942 -2.0810
  109OSM    C6F11282   5.324   3.472   9.747  0.4664 -0.3880  0.1915
  109OSM    H6F11283   5.250   3.432   9.674  0.2586 -1.4304  0.9504
  109OSM    H6G11284   5.336   3.406   9.835 -0.9030 -1.4758 -0.3996
  109OSM    C7F11285   5.471   3.466   9.687 -0.1667 -0.4487 -0.3569
  109OSM    H7F11286   5.493   3.359   9.664 -0.5369  0.0648 -3.4893
  109OSM    H7G11287   5.540   3.488   9.771  1.7057  0.0890 -1.9765
  109OSM    C8F11288   5.499   3.544   9.554  0.2575  0.1083 -0.8053
  109OSM    H8F11289   5.455   3.644   9.572 -1.2353 -0.8999  1.7081
  109OSM    H8G11290   5.437   3.508   9.469  1.3600  0.8980 -1.9841
  109OSM    C9F11291   5.648   3.559   9.521 -0.0404  0.6648 -0.0708
  109OSM    H9F11292   5.702   3.639   9.574 -0.6581 -0.6213  2.6842
  109OSM   C10F11293   5.726   3.472   9.454 -0.4427 -0.2001 -0.3493
  109OSM   H10F11294   5.828   3.501   9.424 -0.6067  1.9588  0.9300
  109OSM   C11F11295   5.679   3.347   9.383  0.2706  0.1048 -0.3860
  109OSM   H11F11296   5.615   3.291   9.455 -2.0594  0.8456 -1.7787
  109OSM   H11G11297   5.767   3.287   9.352 -0.7151 -0.8850 -1.3460
  109OSM   C12F11298   5.598   3.375   9.256 -0.2296  0.8396  0.0632
  109OSM   H12F11299   5.653   3.458   9.209 -0.1064  1.7298  1.7037
  109OSM   H12G11300   5.497   3.409   9.289 -0.3516 -1.8946  3.0427
  109OSM   C13F11301   5.576   3.251   9.162 -0.6682  0.2660  0.3775
  109OSM   H13F11302   5.506   3.188   9.221 -0.8767  1.8005  1.8515
  109OSM   H13G11303   5.674   3.203   9.141  0.3452  2.7503 -1.0453
  109OSM   C14F11304   5.511   3.275   9.026  0.1216  0.1948  0.3929
  109OSM   H14F11305   5.473   3.176   8.994  2.5953 -0.2947 -1.3529
  109OSM   H14G11306   5.582   3.308   8.946 -1.3848  0.0753 -1.0420
  109OSM   C15F11307   5.392   3.369   9.000  0.6839 -0.4714  0.3594
  109OSM   H15F11308   5.426   3.471   9.026 -0.1773 -0.0913  0.0100
  109OSM   H15G11309   5.305   3.345   9.065 -0.5464  0.7671 -0.7644
  109OSM   C16F11310   5.356   3.351   8.854 -0.1093 -0.3763  0.2630
  109OSM   H16F11311   5.444   3.341   8.787 -0.2865 -0.8644  0.0940
  109OSM   H16G11312   5.302   3.444   8.827 -2.0109 -1.1909  1.0983
  109OSM   C17F11313   5.261   3.230   8.812 -0.1123 -0.4784 -0.2045
  109OSM   H17F11314   5.191   3.230   8.899 -0.1029 -1.1746 -0.1954
  109OSM   H17G11315   5.308   3.130   8.812  2.2668  0.5762 -0.3456
  109OSM   C18F11316   5.176   3.252   8.687 -0.6444  0.1196 -0.1028
  109OSM   H18F11317   5.105   3.332   8.715 -0.1404  0.3639  0.4910
  109OSM   H18G11318   5.114   3.161   8.669 -1.4663  0.5968  0.2856
  109OSM   H18H11319   5.244   3.277   8.602 -0.0032 -0.8570  0.1025
  110OSM      N11320   5.423   3.084  10.819 -0.0411  0.1296 -0.3466
  110OSM    C1511321   5.558   3.031  10.865 -0.1201 -0.6752 -0.5549
  110OSM   H15A11322   5.627   3.013  10.783 -2.5647 -0.1986 -2.8638
  110OSM   H15B11323   5.538   2.942  10.923 -1.9879  0.3222  0.4302
  110OSM   H15C11324   5.605   3.099  10.934  1.0675 -1.2152 -0.8001
  110OSM    C1411325   5.440   3.228  10.793 -0.0958  0.2248 -0.5147
  110OSM   H14A11326   5.358   3.266  10.734  0.0493 -0.2113 -1.0021
  110OSM   H14B11327   5.529   3.243  10.733 -0.1759 -2.1836 -1.3254
  110OSM   H14C11328   5.449   3.284  10.885  0.7112  0.6391 -0.8332
  110OSM    C1311329   5.380   3.033  10.683  0.1767 -0.2207  0.1184
  110OSM   H13A11330   5.444   3.063  10.601 -0.9374  0.2046 -0.6113
  110OSM   H13B11331   5.282   3.062  10.651  0.2940 -1.1713 -1.1508
  110OSM   H13C11332   5.371   2.926  10.682 -0.2005 -0.2067 -2.0178
  110OSM    C1211333   5.314   3.059  10.931  0.0411 -0.3968 -0.4198
  110OSM   H12A11334   5.225   3.119  10.923 -0.7681 -1.1938  1.7730
  110OSM   H12B11335   5.361   3.085  11.025 -1.8397  1.1428  0.1605
  110OSM    C1111336   5.259   2.907  10.937 -0.1982 -0.1350  0.2708
  110OSM   H11A11337   5.211   2.877  10.841  0.4650  0.8274 -0.3795
  110OSM   H11B11338   5.184   2.910  11.019 -0.4873  1.6561 -0.0248
  110OSM      P11339   5.400   2.681  10.898 -0.0401  0.0662  0.1656
  110OSM    O1311340   5.489   2.603  10.994  0.0379 -0.0985  0.1008
  110OSM    O1411341   5.276   2.611  10.857 -0.2653  0.5116  0.5823
  110OSM    O1111342   5.482   2.717  10.769  0.4893  0.3260  0.9742
  110OSM    O1211343   5.365   2.818  10.971 -0.3922 -0.3864  0.0331
  110OSM    C1S11344   5.495   2.627  10.665 -0.4540 -0.0257  0.7769
  110OSM    H1S11345   5.397   2.584  10.637  0.2022 -0.3000 -1.3350
  110OSM    H1T11346   5.563   2.547  10.703  1.3733  0.6977 -0.7797
  110OSM     NF11347   5.546   2.630  10.416  0.1093  0.3812  0.1871
  110OSM    HNF11348   5.619   2.586  10.365 -1.0208  2.1876 -3.2818
  110OSM    C2S11349   5.557   2.705  10.544 -0.1578  0.0548 -0.6661
  110OSM    H2S11350   5.498   2.798  10.530  0.4096  0.5346  0.0444
  110OSM    C3S11351   5.702   2.752  10.578  0.0623  0.6946  0.2232
  110OSM    H3S11352   5.781   2.674  10.589  0.6164  1.5159  2.5829
  110OSM     O311353   5.706   2.833  10.698 -0.6172  0.0449  0.2078
  110OSM    HO311354   5.619   2.805  10.727 -1.1166  0.9180 -0.3810
  110OSM    C4S11355   5.748   2.827  10.457  0.1170  0.3410 -0.1738
  110OSM    H4S11356   5.793   2.769  10.374  0.2357  0.4317 -0.1734
  110OSM    C5S11357   5.732   2.956  10.435  0.2134  0.2348 -0.6004
  110OSM    H5S11358   5.682   3.014  10.515 -1.2197 -1.3531 -0.2917
  110OSM    C6S11359   5.785   3.035  10.314  0.1987 -0.7421  0.1348
  110OSM    H6S11360   5.882   3.080  10.343  0.6760 -1.5092 -0.2033
  110OSM    H6T11361   5.720   3.119  10.285 -0.5645 -1.6031 -0.7279
  110OSM    C7S11362   5.817   2.942  10.188 -0.6106  0.4114  0.3277
  110OSM    H7S11363   5.726   2.883  10.165  0.3402 -0.4881 -1.3438
  110OSM    H7T11364   5.900   2.871  10.207 -0.5969  0.7491  1.6118
  110OSM    C8S11365   5.849   3.019  10.064 -0.0015 -0.3638  0.0074
  110OSM    H8S11366   5.951   3.061  10.079 -0.9124  0.9491  3.2213
  110OSM    H8T11367   5.789   3.112  10.069  3.1594  1.8255  0.2443
  110OSM    C9S11368   5.828   2.940   9.933  1.2322  0.1649 -0.0517
  110OSM    H9S11369   5.722   2.906   9.930  1.6298 -1.0815 -0.9362
  110OSM    H9T11370   5.885   2.846   9.944 -1.0832 -1.1454  1.6952
  110OSM   C10S11371   5.872   3.008   9.804  0.5374 -0.1867  0.4199
  110OSM   H10S11372   5.977   3.042   9.808  0.6811  0.1287 -2.9571
  110OSM   H10T11373   5.810   3.099   9.786  0.0630 -0.0301  2.5789
  110OSM   C11S11374   5.860   2.915   9.685 -0.6133  0.1904 -0.1518
  110OSM   H11S11375   5.758   2.874   9.668 -0.1267 -0.9778 -0.3530
  110OSM   H11T11376   5.926   2.831   9.714  1.2744  1.8482  0.5071
  110OSM   C12S11377   5.896   2.987   9.554 -0.9530  0.4176  0.4259
  110OSM   H12S11378   6.003   3.017   9.564 -1.2876  1.5068  0.8680
  110OSM   H12T11379   5.842   3.079   9.525 -0.1830  1.2633  1.6383
  110OSM   C13S11380   5.871   2.883   9.441 -0.5322  0.1194 -0.3961
  110OSM   H13S11381   5.765   2.854   9.452 -0.6043  0.8466  1.0373
  110OSM   H13T11382   5.921   2.788   9.472  0.1137 -0.4568 -2.9380
  110OSM   C14S11383   5.901   2.918   9.295 -0.2198  0.0038  0.4792
  110OSM   H14S11384   5.999   2.970   9.290 -0.7397  0.9028 -1.8195
  110OSM   H14T11385   5.824   2.990   9.258 -1.8808 -1.9327 -0.0313
  110OSM   C15S11386   5.899   2.797   9.202  0.2380 -0.1782 -0.5407
  110OSM   H15S11387   5.808   2.737   9.219 -0.3838  1.5405  2.9581
  110OSM   H15T11388   5.985   2.729   9.221 -0.3478 -0.1604  2.5039
  110OSM   C16S11389   5.878   2.829   9.055 -0.5259 -0.1458  0.2837
  110OSM   H16S11390   5.974   2.817   9.000  0.1149 -0.1106  1.3545
  110OSM   H16T11391   5.841   2.932   9.035  0.5780  0.0602 -0.8882
  110OSM   C17S11392   5.798   2.710   8.994  0.3725 -0.3551  0.1419
  110OSM   H17S11393   5.693   2.708   9.029  0.5117  0.4226  0.6355
  110OSM   H17T11394   5.842   2.618   9.037  0.6700 -0.1419  0.3042
  110OSM   C18S11395   5.809   2.694   8.839  0.2133 -0.1560 -0.3512
  110OSM   H18S11396   5.914   2.670   8.812  0.0796 -1.9697  0.5752
  110OSM   H18T11397   5.760   2.782   8.793 -0.0713  0.4581  1.0807
  110OSM   H18U11398   5.749   2.604   8.815 -0.5239 -0.0745  1.1012
  110OSM    C1F11399   5.427   2.594  10.363 -0.4814 -0.2089 -0.0553
  110OSM     OF11400   5.320   2.644  10.404 -0.3542  0.2692  0.3652
  110OSM    C2F11401   5.421   2.487  10.260  0.0234 -0.2593  0.8130
  110OSM    H2F11402   5.433   2.385  10.304 -1.9897  0.0799  2.2619
  110OSM    H2G11403   5.503   2.499  10.186 -0.5292 -0.7788  0.0904
  110OSM    C3F11404   5.287   2.472  10.179  0.1796  0.6728  0.2954
  110OSM    H3F11405   5.275   2.570  10.126  1.2161  1.7415  1.9675
  110OSM    H3G11406   5.201   2.452  10.247 -0.4768 -1.7020 -1.1348
  110OSM    C4F11407   5.280   2.355  10.079  0.0096 -0.2870 -0.2033
  110OSM    H4F11408   5.175   2.353  10.043  0.2277  1.4057 -1.0221
  110OSM    H4G11409   5.299   2.258  10.129  0.3596 -0.3756 -0.5010
  110OSM    C5F11410   5.366   2.380   9.958  0.0242  0.1157 -0.1654
  110OSM    H5F11411   5.472   2.350   9.970 -0.0849 -0.9559 -1.5656
  110OSM    H5G11412   5.359   2.482   9.914  1.7516  0.3803  0.1120
  110OSM    C6F11413   5.304   2.302   9.845  0.2417  0.1976 -0.2490
  110OSM    H6F11414   5.201   2.336   9.820 -0.7306  0.3578  3.4574
  110OSM    H6G11415   5.305   2.196   9.878  0.8145  1.1617  3.2555
  110OSM    C7F11416   5.393   2.322   9.726 -0.4301  0.1210 -0.0584
  110OSM    H7F11417   5.493   2.276   9.746 -0.7771 -1.6157 -2.0096
  110OSM    H7G11418   5.410   2.428   9.698  0.0572  0.3067  0.8901
  110OSM    C8F11419   5.339   2.244   9.603  0.0759  0.3885 -0.7516
  110OSM    H8F11420   5.408   2.266   9.518  0.8026  2.0776  0.2226
  110OSM    H8G11421   5.234   2.280   9.597  0.1818  0.8545  0.0992
  110OSM    C9F11422   5.335   2.094   9.634 -0.2032  0.9061 -0.6208
  110OSM    H9F11423   5.312   2.078   9.741 -2.0643  2.5462 -0.7129
  110OSM   C10F11424   5.352   1.994   9.546  0.0615  0.4440  0.7989
  110OSM   H10F11425   5.356   1.893   9.590 -0.4167  0.4366  0.8330
  110OSM   C11F11426   5.364   2.009   9.394  0.6541  0.3951 -0.2126
  110OSM   H11F11427   5.362   2.118   9.375  1.8904  0.1408 -2.0611
  110OSM   H11G11428   5.272   1.973   9.342  0.0925  0.5889  0.6242
  110OSM   C12F11429   5.485   1.944   9.329  0.3821 -0.1403  0.0110
  110OSM   H12F11430   5.469   1.834   9.342 -2.6545  0.4437  2.4868
  110OSM   H12G11431   5.574   1.984   9.380  0.9372 -1.7540  0.3814
  110OSM   C13F11432   5.505   1.979   9.182 -0.0834  0.3102  0.3889
  110OSM   H13F11433   5.491   2.089   9.176 -0.3285  0.1987 -2.2604
  110OSM   H13G11434   5.420   1.931   9.127  2.4070 -1.1092 -2.5089
  110OSM   C14F11435   5.633   1.946   9.114  0.0272 -0.2769  0.2343
  110OSM   H14F11436   5.625   1.928   9.005  1.0440 -0.3025  0.1490
  110OSM   H14G11437   5.640   1.842   9.154  1.7900 -0.2818 -0.0164
  110OSM   C15F11438   5.745   2.043   9.150  0.9922 -0.2111  0.2091
  110OSM   H15F11439   5.758   2.052   9.260  0.4363  0.3718  0.2339
  110OSM   H15G11440   5.729   2.142   9.102 -1.4760 -0.6689 -0.0522
  110OSM   C16F11441   5.872   1.977   9.089 -0.6238  0.5005 -0.0022
  110OSM   H16F11442   5.885   1.877   9.135  1.8178 -0.5207 -2.6048
  110OSM   H16G11443   5.965   2.034   9.112 -0.4344  0.5615 -0.8969
  110OSM   C17F11444   5.878   1.967   8.931 -0.6672 -0.1461  0.1895
  110OSM   H17F11445   5.873   2.071   8.890  0.0986 -0.7882 -1.6545
  110OSM   H17G11446   5.785   1.917   8.897 -1.1426  0.4087  0.6500
  110OSM   C18F11447   5.987   1.884   8.887 -0.6367 -0.0931  0.5738
  110OSM   H18F11448   6.007   1.864   8.780  1.9668 -2.5936  1.3919
  110OSM   H18G11449   5.975   1.784   8.934  1.0325 -1.1832 -1.1519
  110OSM   H18H11450   6.083   1.931   8.919  0.3848 -0.7410 -1.3693
  111OSM      N11451   6.117   0.212  11.117  0.1934 -0.1041 -0.2770
  111OSM    C1511452   6.230   0.136  11.180  0.8404  0.5798  0.2209
  111OSM   H15A11453   6.203   0.073  11.265  1.4080 -2.6520 -1.8168
  111OSM   H15B11454   6.310   0.202  11.210  0.2017  2.2663 -1.6128
  111OSM   H15C11455   6.261   0.062  11.107  0.0206 -0.7337  1.1526
  111OSM    C1411456   6.002   0.121  11.124 -0.3115 -0.0671 -0.3106
  111OSM   H14A11457   5.928   0.150  11.050 -1.2863  2.0620  1.3762
  111OSM   H14B11458   5.964   0.102  11.223 -1.5199  2.1990 -0.2697
  111OSM   H14C11459   6.046   0.031  11.084 -1.3391  0.1374 -2.0102
  111OSM    C1311460   6.090   0.333  11.194 -0.0143 -0.3937  0.3159
  111OSM   H13A11461   6.003   0.384  11.155 -1.2695 -3.2075 -0.9326
  111OSM   H13B11462   6.173   0.400  11.203  1.7156 -2.2785 -0.6507
  111OSM   H13C11463   6.070   0.300  11.295  2.0596  1.2396  1.3321
  111OSM    C1211464   6.163   0.254  10.976  0.1889 -0.1545 -0.3253
  111OSM   H12A11465   6.255   0.309  10.986  1.1049 -1.8242  1.0548
  111OSM   H12B11466   6.085   0.317  10.935  0.0915  0.1939  0.3853
  111OSM    C1111467   6.193   0.149  10.865  0.3175 -0.0823  0.3874
  111OSM   H11A11468   6.245   0.207  10.786  0.5657  1.4864  1.6507
  111OSM   H11B11469   6.098   0.116  10.818 -0.3312  1.3414  0.6501
  111OSM      P11470   6.287  -0.093  10.858  0.1230 -0.1195 -0.3017
  111OSM    O1311471   6.405  -0.166  10.912 -0.3463  0.8503  0.2541
  111OSM    O1411472   6.155  -0.156  10.877  0.3426  0.0235 -0.0494
  111OSM    O1111473   6.304  -0.077  10.702 -0.1533 -0.1528  0.2809
  111OSM    O1211474   6.272   0.051  10.924 -0.8700  0.5593 -0.1800
  111OSM    C1S11475   6.416  -0.008  10.645  0.2874 -0.0466 -0.2766
  111OSM    H1S11476   6.512  -0.048  10.685 -0.5200  0.2057  2.0014
  111OSM    H1T11477   6.411   0.101  10.668 -0.8090  0.2856 -1.9122
  111OSM     NF11478   6.542   0.003  10.434 -0.2136  0.1118  0.3310
  111OSM    HNF11479   6.548   0.099  10.406  1.4104 -0.8323 -3.0509
  111OSM    C2S11480   6.419  -0.033  10.488  0.1824  0.8682  0.2889
  111OSM    H2S11481   6.404  -0.142  10.476 -2.7330  1.2856 -0.7809
  111OSM    C3S11482   6.298   0.039  10.424  0.0175 -0.5774  0.6482
  111OSM    H3S11483   6.314   0.149  10.422  0.9086 -0.7035 -1.4036
  111OSM     O311484   6.172   0.028  10.489  0.4261  0.2427  0.1232
  111OSM    HO311485   6.191  -0.005  10.577 -1.9004  0.4515  0.7755
  111OSM    C4S11486   6.276  -0.014  10.284 -0.3421  0.0673  0.5499
  111OSM    H4S11487   6.297  -0.122  10.275  2.4519  0.5310  0.6937
  111OSM    C5S11488   6.245   0.065  10.182 -0.7862  0.4120 -0.4178
  111OSM    H5S11489   6.241   0.173  10.206  0.8893  0.2746  0.6035
  111OSM    C6S11490   6.225   0.015  10.041 -0.2080  0.2086  0.0914
  111OSM    H6S11491   6.131   0.053   9.997 -1.0296 -1.1695  0.5989
  111OSM    H6T11492   6.221  -0.096  10.038  0.5450  0.1539 -3.6394
  111OSM    C7S11493   6.354   0.043   9.953 -0.5555 -0.0248  0.0271
  111OSM    H7S11494   6.436  -0.021   9.991 -0.8010 -0.0203  0.5690
  111OSM    H7T11495   6.384   0.149   9.969 -0.9690 -0.0903  1.3067
  111OSM    C8S11496   6.315   0.018   9.811 -0.0301  0.3202  0.2216
  111OSM    H8S11497   6.267   0.108   9.766 -0.0349 -0.3388 -1.1572
  111OSM    H8T11498   6.249  -0.070   9.794 -0.1396  0.6431 -1.1774
  111OSM    C9S11499   6.432  -0.024   9.727 -0.1415 -0.3885  0.0659
  111OSM    H9S11500   6.484  -0.109   9.777 -0.2083 -0.8247 -0.5882
  111OSM    H9T11501   6.510   0.055   9.719 -0.3814  0.0434  1.6021
  111OSM   C10S11502   6.407  -0.071   9.587  0.5214 -0.2669 -0.1261
  111OSM   H10S11503   6.304  -0.112   9.589  0.6787 -0.6542  0.5596
  111OSM   H10T11504   6.480  -0.145   9.549  0.1300 -0.5863 -0.2628
  111OSM   C11S11505   6.394   0.043   9.492 -0.0781  0.3640 -0.7240
  111OSM   H11S11506   6.489   0.102   9.494  0.5196 -0.5631 -1.0618
  111OSM   H11T11507   6.323   0.123   9.521 -1.5355 -1.2123  0.1397
  111OSM   C12S11508   6.363  -0.003   9.351  0.0695 -0.4116 -0.3000
  111OSM   H12S11509   6.253  -0.018   9.347  0.1572 -0.9192 -1.1532
  111OSM   H12T11510   6.410  -0.103   9.336  1.0046 -0.1173  0.5285
  111OSM   C13S11511   6.419   0.083   9.249 -0.2357 -0.2804  0.2966
  111OSM   H13S11512   6.529   0.090   9.268 -0.0267 -1.0671 -0.5213
  111OSM   H13T11513   6.382   0.188   9.254  1.3539  0.3200  0.2700
  111OSM   C14S11514   6.374   0.027   9.109  0.2159 -0.3506  0.1586
  111OSM   H14S11515   6.265   0.043   9.102  0.5149  2.0405  0.3899
  111OSM   H14T11516   6.390  -0.083   9.098  2.5771 -0.1478  0.9435
  111OSM   C15S11517   6.437   0.097   8.988 -0.3559  0.0503  0.0108
  111OSM   H15S11518   6.540   0.061   8.968  0.2655  2.0394 -0.5892
  111OSM   H15T11519   6.438   0.201   9.028 -0.5376 -0.9107  2.7294
  111OSM   C16S11520   6.356   0.098   8.861  0.0721  0.5398  0.1127
  111OSM   H16S11521   6.405   0.151   8.776  0.5466  0.7902  0.5407
  111OSM   H16T11522   6.257   0.142   8.882 -0.7443 -1.0308 -0.2729
  111OSM   C17S11523   6.328  -0.047   8.812  0.4880  0.1271  0.0858
  111OSM   H17S11524   6.314  -0.110   8.903 -1.1243  0.9175  0.4225
  111OSM   H17T11525   6.415  -0.081   8.753 -1.2461 -2.4215 -1.2000
  111OSM   C18S11526   6.196  -0.056   8.728 -0.0402  0.3317 -0.0435
  111OSM   H18S11527   6.108  -0.014   8.781 -1.2524 -0.5655 -1.2792
  111OSM   H18T11528   6.184  -0.166   8.720  2.0551  0.1309 -1.3686
  111OSM   H18U11529   6.206  -0.008   8.628  4.0439  0.5153  0.2869
  111OSM    C1F11530   6.651  -0.069  10.436  0.1151  0.0853  0.1581
  111OSM     OF11531   6.647  -0.186  10.473 -0.2215 -0.2399  0.1351
  111OSM    C2F11532   6.769   0.004  10.384  0.2459  0.6507 -0.4988
  111OSM    H2F11533   6.847   0.005  10.462 -1.0137  0.1973  0.8072
  111OSM    H2G11534   6.744   0.108  10.352 -0.2606  0.6342 -0.1634
  111OSM    C3F11535   6.837  -0.073  10.267 -0.4565 -0.4746 -0.6761
  111OSM    H3F11536   6.862  -0.177  10.297  0.9763  0.1119  0.2483
  111OSM    H3G11537   6.933  -0.019  10.260 -1.4493  1.9821  2.4586
  111OSM    C4F11538   6.763  -0.075  10.137 -0.6450 -0.0649 -0.7757
  111OSM    H4F11539   6.770   0.022  10.085 -2.7835 -0.1688 -1.3674
  111OSM    H4G11540   6.653  -0.085  10.149 -1.6265  3.2199 -4.7481
  111OSM    C5F11541   6.813  -0.175  10.035 -0.3138  0.6029  0.4360
  111OSM    H5F11542   6.823  -0.282  10.064  0.8631  0.9645  1.4581
  111OSM    H5G11543   6.917  -0.138  10.021 -0.2917  0.4994  0.3199
  111OSM    C6F11544   6.734  -0.175   9.905  0.0842 -0.3238  0.5609
  111OSM    H6F11545   6.733  -0.071   9.866  1.7468  0.4394  2.3673
  111OSM    H6G11546   6.632  -0.214   9.924  0.8435 -2.0813  1.1408
  111OSM    C7F11547   6.797  -0.272   9.800  0.4841  0.3966 -0.4139
  111OSM    H7F11548   6.772  -0.377   9.826  0.7824  0.9279  2.2281
  111OSM    H7G11549   6.908  -0.268   9.803  0.4857  2.3890  4.2517
  111OSM    C8F11550   6.757  -0.243   9.655  0.8600  0.6797 -0.3900
  111OSM    H8F11551   6.648  -0.231   9.639  0.5828 -2.1197 -1.1759
  111OSM    H8G11552   6.781  -0.318   9.577 -2.4101  1.3702 -2.2432
  111OSM    C9F11553   6.834  -0.117   9.605 -0.1327 -0.2337 -0.4880
  111OSM    H9F11554   6.864  -0.040   9.679 -1.1352  1.8061 -2.0977
  111OSM   C10F11555   6.860  -0.096   9.475 -0.3274  0.0012  0.1787
  111OSM   H10F11556   6.920  -0.006   9.453 -1.0254  0.4942  0.2622
  111OSM   C11F11557   6.824  -0.176   9.359  0.5805  0.2674  0.2772
  111OSM   H11F11558   6.783  -0.104   9.284 -1.1798 -0.2733  0.6674
  111OSM   H11G11559   6.736  -0.243   9.363  0.5603  0.2185 -0.6505
  111OSM   C12F11560   6.942  -0.261   9.306  0.3957  0.1147  0.3602
  111OSM   H12F11561   6.982  -0.316   9.393  1.4135  0.4740  0.1249
  111OSM   H12G11562   7.029  -0.197   9.280  0.8626 -1.1824 -1.3844
  111OSM   C13F11563   6.896  -0.355   9.196  0.2657  0.2633 -0.2672
  111OSM   H13F11564   6.796  -0.391   9.227  0.7895  0.2144  1.4739
  111OSM   H13G11565   6.971  -0.436   9.183  2.1621  2.2505 -2.7515
  111OSM   C14F11566   6.897  -0.290   9.063 -0.1376  0.3564  0.2554
  111OSM   H14F11567   6.835  -0.201   9.044  1.0406  0.9723 -0.9141
  111OSM   H14G11568   6.862  -0.369   8.993  1.1110  1.2910 -1.4968
  111OSM   C15F11569   7.035  -0.255   9.002  0.2578 -0.6199  0.1201
  111OSM   H15F11570   7.112  -0.321   9.049  0.6834  1.5140  2.7353
  111OSM   H15G11571   7.066  -0.158   9.047  0.2587  0.1967 -1.5768
  111OSM   C16F11572   7.039  -0.243   8.850  0.0380 -0.8391  0.0351
  111OSM   H16F11573   6.957  -0.174   8.820 -2.3302 -2.6175  2.0337
  111OSM   H16G11574   7.017  -0.339   8.798  0.7931 -1.7726  1.3816
  111OSM   C17F11575   7.171  -0.182   8.803  0.2082  0.4483 -0.3975
  111OSM   H17F11576   7.211  -0.233   8.713  0.7474  0.5798 -0.2351
  111OSM   H17G11577   7.243  -0.197   8.887 -0.3341  1.1318  0.2095
  111OSM   C18F11578   7.167  -0.033   8.776 -0.5360  0.6016 -0.0645
  111OSM   H18F11579   7.270  -0.007   8.743 -0.5956  1.4177  0.3697
  111OSM   H18G11580   7.147   0.027   8.868 -2.2439  0.5040 -0.3422
  111OSM   H18H11581   7.075  -0.004   8.721 -0.4571  2.6705  0.7777
  112OSM      N11582   6.426   4.388  11.305 -0.3965  0.1290  0.3470
  112OSM    C1511583   6.553   4.406  11.233 -1.0006  0.2340 -0.6039
  112OSM   H15A11584   6.587   4.508  11.241 -2.8390  0.8312  0.1312
  112OSM   H15B11585   6.542   4.395  11.126  0.8107  1.3732 -0.9435
  112OSM   H15C11586   6.622   4.338  11.281 -2.1788 -0.2075  0.5549
  112OSM    C1411587   6.374   4.255  11.264  0.2352  0.8307  0.9261
  112OSM   H14A11588   6.349   4.254  11.159  1.0556  1.2032  0.7214
  112OSM   H14B11589   6.280   4.234  11.312 -0.7632 -0.5759 -1.4554
  112OSM   H14C11590   6.440   4.169  11.271 -0.1421  0.2845 -1.4301
  112OSM    C1311591   6.459   4.366  11.449 -0.2685 -0.2807 -0.3969
  112OSM   H13A11592   6.518   4.276  11.456  2.0164  1.2319  1.4304
  112OSM   H13B11593   6.381   4.368  11.523  0.6034 -1.1803  0.5905
  112OSM   H13C11594   6.520   4.449  11.481 -2.0951  0.5058  1.2394
  112OSM    C1211595   6.322   4.491  11.290  0.0965  0.3513 -0.1297
  112OSM   H12A11596   6.362   4.588  11.317 -0.5745  0.8892 -1.0238
  112OSM   H12B11597   6.251   4.469  11.368  1.2713 -2.1262  0.3324
  112OSM    C1111598   6.257   4.501  11.152  0.4066 -0.2559 -0.2179
  112OSM   H11A11599   6.226   4.398  11.122  0.6424 -0.3776 -0.0483
  112OSM   H11B11600   6.331   4.532  11.076 -0.9034 -1.2834 -1.9986
  112OSM      P11601   6.126   4.715  11.086  0.1069  0.1569  0.1215
  112OSM    O1311602   5.985   4.755  11.122  0.0473 -0.6888  0.5068
  112OSM    O1411603   6.229   4.814  11.116 -0.0678 -0.2282  1.0584
  112OSM    O1111604   6.139   4.662  10.937  0.3461  0.1840  0.8062
  112OSM    O1211605   6.146   4.588  11.164 -0.6307  0.5993 -0.1025
  112OSM    C1S11606   6.257   4.706  10.868 -1.1237  0.0610 -0.3171
  112OSM    H1S11607   6.345   4.651  10.908 -0.2906  1.1850 -0.5543
  112OSM    H1T11608   6.285   4.811  10.892 -0.9187 -0.0532 -0.0495
  112OSM     NF11609   6.357   4.771  10.645 -0.4170 -0.3967 -0.2487
  112OSM    HNF11610   6.331   4.849  10.589  0.3254  1.1557  1.4780
  112OSM    C2S11611   6.248   4.691  10.712  0.1613 -0.7951  0.1040
  112OSM    H2S11612   6.263   4.583  10.695  0.1253 -1.2491  2.5813
  112OSM    C3S11613   6.107   4.729  10.655 -0.7350  0.2328  0.4137
  112OSM    H3S11614   6.083   4.836  10.669 -1.6770  0.3213 -1.4893
  112OSM     O311615   5.996   4.656  10.709  0.9363  0.0312  0.3085
  112OSM    HO311616   6.031   4.611  10.787  0.4290 -0.6294  0.1640
  112OSM    C4S11617   6.113   4.694  10.504 -0.5586 -0.1785 -0.1052
  112OSM    H4S11618   6.150   4.783  10.450  0.7392 -0.7662 -0.2159
  112OSM    C5S11619   6.071   4.587  10.436 -0.2489 -0.2964  0.0860
  112OSM    H5S11620   6.021   4.502  10.484  1.5587 -2.1657 -1.1700
  112OSM    C6S11621   6.080   4.591  10.286 -0.4201 -0.1203 -0.0275
  112OSM    H6S11622   6.079   4.483  10.259  1.5233 -0.1138 -0.2808
  112OSM    H6T11623   6.179   4.633  10.260 -0.2604 -0.5247 -0.0907
  112OSM    C7S11624   5.972   4.663  10.219  0.2958 -0.9332 -0.4587
  112OSM    H7S11625   5.958   4.765  10.263 -2.6866 -2.0106  1.3979
  112OSM    H7T11626   5.874   4.611  10.222  0.9578 -2.2296 -0.8395
  112OSM    C8S11627   6.001   4.681  10.066 -0.1872 -0.5442  0.0512
  112OSM    H8S11628   6.043   4.588  10.023 -0.7045 -1.4387  1.4095
  112OSM    H8T11629   6.094   4.740  10.053  1.8741 -2.9017  2.7848
  112OSM    C9S11630   5.892   4.738   9.975  0.4416  0.6177 -0.0020
  112OSM    H9S11631   5.865   4.841  10.005  2.0865  1.3724 -0.9753
  112OSM    H9T11632   5.804   4.670   9.977  0.9653 -0.2771 -2.7407
  112OSM   C10S11633   5.925   4.729   9.823  0.5164  0.4200  0.6396
  112OSM   H10S11634   5.943   4.624   9.791  0.2133  0.3893  0.5688
  112OSM   H10T11635   6.022   4.779   9.805  1.1159 -1.3802 -1.4906
  112OSM   C11S11636   5.814   4.783   9.734 -0.2973  0.3234  0.1310
  112OSM   H11S11637   5.802   4.893   9.744 -1.9592  0.4885 -2.6541
  112OSM   H11T11638   5.717   4.738   9.765 -1.3396  1.2613 -1.5592
  112OSM   C12S11639   5.823   4.753   9.584  0.6311  0.4375 -0.4637
  112OSM   H12S11640   5.826   4.642   9.582 -0.6645  0.3847 -0.3572
  112OSM   H12T11641   5.922   4.783   9.545  1.8331 -1.5315  0.9536
  112OSM   C13S11642   5.706   4.805   9.503 -0.0987  0.4638 -0.3076
  112OSM   H13S11643   5.713   4.915   9.494 -0.6489  0.6180  0.8837
  112OSM   H13T11644   5.618   4.774   9.564  1.1757 -0.3988  1.1507
  112OSM   C14S11645   5.695   4.745   9.360 -0.0482  0.3521  0.5914
  112OSM   H14S11646   5.801   4.743   9.327  0.1192 -1.2620  1.1366
  112OSM   H14T11647   5.648   4.810   9.284  0.8955 -1.9632 -2.1320
  112OSM   C15S11648   5.613   4.615   9.338  0.0651  0.4622 -0.0263
  112OSM   H15S11649   5.509   4.645   9.313  0.0871  2.2853  1.8603
  112OSM   H15T11650   5.596   4.549   9.426 -0.6049  1.7527  0.8401
  112OSM   C16S11651   5.674   4.536   9.219  0.3277  0.3264 -0.2582
  112OSM   H16S11652   5.682   4.600   9.128  1.2039 -0.0005 -0.4161
  112OSM   H16T11653   5.605   4.453   9.192 -0.2667 -0.4075  3.0173
  112OSM   C17S11654   5.805   4.470   9.262  0.7056  0.4862 -0.0893
  112OSM   H17S11655   5.793   4.425   9.363 -2.9125  1.4868  0.0921
  112OSM   H17T11656   5.881   4.548   9.284  0.0877  0.4178  2.6927
  112OSM   C18S11657   5.875   4.370   9.166  0.7839  0.0915  1.0900
  112OSM   H18S11658   5.957   4.320   9.222  1.5317 -1.1552 -1.0110
  112OSM   H18T11659   5.930   4.419   9.083  1.0531  0.9078  1.7378
  112OSM   H18U11660   5.801   4.297   9.125  0.2650  1.3792 -0.3478
  112OSM    C1F11661   6.485   4.755  10.673 -0.9244  0.1107 -0.9043
  112OSM     OF11662   6.527   4.651  10.729 -0.2915 -0.0530  0.6981
  112OSM    C2F11663   6.584   4.862  10.630 -0.4575  0.7340  0.2881
  112OSM    H2F11664   6.620   4.915  10.721  0.2728 -0.1595  0.5327
  112OSM    H2G11665   6.528   4.935  10.568 -0.7640 -0.0002 -0.3086
  112OSM    C3F11666   6.693   4.784  10.556 -0.2603  0.2708  0.3503
  112OSM    H3F11667   6.737   4.702  10.617  0.4000  1.6152  1.7800
  112OSM    H3G11668   6.779   4.846  10.522 -0.1170 -0.0257  0.1649
  112OSM    C4F11669   6.649   4.704  10.424 -0.4682 -0.2853  0.1719
  112OSM    H4F11670   6.575   4.629  10.458 -1.3902  1.1906  1.5790
  112OSM    H4G11671   6.744   4.659  10.387  0.9976  1.7892  1.2031
  112OSM    C5F11672   6.579   4.775  10.308  0.2878 -0.0241  0.0115
  112OSM    H5F11673   6.627   4.874  10.295  1.6461 -0.6660 -0.0346
  112OSM    H5G11674   6.473   4.796  10.337  0.7527  2.6453  0.0359
  112OSM    C6F11675   6.587   4.687  10.179  0.4771 -0.4562 -0.1446
  112OSM    H6F11676   6.585   4.584  10.221  1.8492 -0.7085 -0.6509
  112OSM    H6G11677   6.690   4.702  10.141  0.6913 -0.4887  0.4148
  112OSM    C7F11678   6.474   4.715  10.082 -0.1408  0.1251  1.1182
  112OSM    H7F11679   6.379   4.721  10.140  1.4698  0.3499  3.9015
  112OSM    H7G11680   6.471   4.629  10.011  0.4733  0.6408  0.4590
  112OSM    C8F11681   6.490   4.842  10.004 -1.2560 -1.0263  0.6521
  112OSM    H8F11682   6.488   4.922  10.081 -2.2929 -0.1293 -0.2704
  112OSM    H8G11683   6.404   4.868   9.938 -0.2540  2.3806  0.5308
  112OSM    C9F11684   6.617   4.840   9.915 -0.3307  0.3174  0.0791
  112OSM    H9F11685   6.668   4.743   9.912  1.0651  1.0523 -1.4407
  112OSM   C10F11686   6.646   4.947   9.836 -0.5769 -0.4687 -0.5279
  112OSM   H10F11687   6.734   4.957   9.772  0.1467  0.9379  0.6245
  112OSM   C11F11688   6.556   5.076   9.836  0.7586 -0.1773  0.2488
  112OSM   H11F11689   6.615   5.170   9.831  0.5978 -0.1151 -0.6070
  112OSM   H11G11690   6.481   5.077   9.918  1.1344 -0.3270  0.5973
  112OSM   C12F11691   6.477   5.086   9.706 -0.4107 -0.3906  0.0051
  112OSM   H12F11692   6.411   5.170   9.735  0.3298  0.2173 -0.0445
  112OSM   H12G11693   6.403   5.003   9.699 -1.6802  0.7660 -0.9384
  112OSM   C13F11694   6.567   5.122   9.585 -0.4541 -0.2840 -0.9094
  112OSM   H13F11695   6.640   5.043   9.557 -1.6898 -2.3058  1.1899
  112OSM   H13G11696   6.628   5.210   9.613  1.3388 -1.2748 -1.5062
  112OSM   C14F11697   6.485   5.159   9.457  0.1303  0.2749 -0.4379
  112OSM   H14F11698   6.389   5.211   9.480 -0.8352 -2.1644  1.6749
  112OSM   H14G11699   6.462   5.059   9.414  0.1106  0.1793 -0.2121
  112OSM   C15F11700   6.570   5.238   9.356 -0.7109  0.0189  0.0457
  112OSM   H15F11701   6.599   5.341   9.385 -0.1523  0.7718 -2.8681
  112OSM   H15G11702   6.503   5.275   9.276 -0.4513  0.3009 -0.0443
  112OSM   C16F11703   6.692   5.169   9.297  0.1620  0.5499 -0.0384
  112OSM   H16F11704   6.751   5.105   9.366  1.7012  1.3887 -0.5247
  112OSM   H16G11705   6.756   5.252   9.260 -1.2034  1.8732  0.4917
  112OSM   C17F11706   6.659   5.065   9.178 -0.8533 -0.1184  0.2309
  112OSM   H17F11707   6.598   4.987   9.229  2.4330 -1.5714  2.2851
  112OSM   H17G11708   6.748   5.008   9.143 -0.6277  0.1884  0.3067
  112OSM   C18F11709   6.584   5.120   9.058 -0.6446 -0.2507  0.1040
  112OSM   H18F11710   6.485   5.161   9.087 -0.9440 -1.1865  0.4560
  112OSM   H18G11711   6.571   5.044   8.977 -0.5972  0.7276 -0.8480
  112OSM   H18H11712   6.639   5.209   9.020  0.1915 -0.0858  1.6395
  113OSM      N11713   3.897   6.757  11.317  0.4783 -0.0398  0.1845
  113OSM    C1511714   3.757   6.716  11.341 -0.0259 -0.8572  0.0922
  113OSM   H15A11715   3.725   6.749  11.438  1.6929  0.6460  0.1978
  113OSM   H15B11716   3.748   6.608  11.345 -1.7987 -0.7179  3.0762
  113OSM   H15C11717   3.692   6.766  11.271 -0.6990 -1.2312  0.4404
  113OSM    C1411718   3.898   6.902  11.372 -0.7902 -0.0753 -0.7032
  113OSM   H14A11719   3.991   6.949  11.344 -1.7182  0.6391 -2.7372
  113OSM   H14B11720   3.890   6.905  11.480  0.1259 -2.2392 -0.5052
  113OSM   H14C11721   3.817   6.960  11.331  0.1578  0.7241 -1.5056
  113OSM    C1311722   3.993   6.674  11.389 -0.9466  0.4245  0.2771
  113OSM   H13A11723   3.975   6.673  11.495 -0.8221  1.9084  0.3220
  113OSM   H13B11724   4.096   6.702  11.370 -1.1052 -0.2140 -1.8115
  113OSM   H13C11725   3.984   6.574  11.349  0.9270  0.5823 -0.6828
  113OSM    C1211726   3.924   6.758  11.168  0.1983  0.4678 -0.0916
  113OSM   H12A11727   3.848   6.813  11.115 -0.0257 -1.9876 -2.5672
  113OSM   H12B11728   3.923   6.655  11.136 -1.6235  0.8801 -1.5202
  113OSM    C1111729   4.061   6.806  11.127 -0.1596 -0.9511  0.5363
  113OSM   H11A11730   4.101   6.785  11.026 -0.1478 -0.5216  0.4484
  113OSM   H11B11731   4.132   6.755  11.195  0.1208 -0.2805  0.7494
  113OSM      P11732   4.009   7.039  11.044 -0.2679 -0.1665  0.1072
  113OSM    O1311733   3.866   7.001  11.043 -0.1770  0.5299  0.8323
  113OSM    O1411734   4.038   7.174  11.083  0.0512 -0.1083 -0.3050
  113OSM    O1111735   4.089   7.002  10.915  0.4092 -0.2817  0.8055
  113OSM    O1211736   4.070   6.943  11.155 -0.1018 -0.0901  0.4295
  113OSM    C1S11737   4.232   7.021  10.902  0.0646  0.2522 -0.4272
  113OSM    H1S11738   4.280   6.938  10.958 -2.4331 -0.1945  1.2241
  113OSM    H1T11739   4.268   7.109  10.960  2.2517 -1.5624  1.1653
  113OSM     NF11740   4.416   7.030  10.739  0.5254  0.3610 -0.2694
  113OSM    HNF11741   4.456   7.117  10.712  1.1210  0.2410  0.2202
  113OSM    C2S11742   4.271   7.032  10.759  0.2511 -0.8080 -0.3574
  113OSM    H2S11743   4.235   6.941  10.706  0.0890 -2.1030  1.8377
  113OSM    C3S11744   4.204   7.154  10.690 -0.3694 -0.1879  0.7584
  113OSM    H3S11745   4.272   7.239  10.713  2.5201 -2.1956  0.1596
  113OSM     O311746   4.070   7.178  10.721  0.3608  0.1192 -0.3172
  113OSM    HO311747   4.048   7.110  10.786  1.1405 -0.8863 -1.0828
  113OSM    C4S11748   4.224   7.138  10.541  0.2468  0.1152  0.5643
  113OSM    H4S11749   4.327   7.166  10.512 -0.5678  1.6650 -1.0560
  113OSM    C5S11750   4.135   7.099  10.449  0.1096  0.2573  0.2368
  113OSM    H5S11751   4.032   7.089  10.485  0.5946 -1.6519  1.2240
  113OSM    C6S11752   4.156   7.075  10.303  0.3808 -0.0729  0.5707
  113OSM    H6S11753   4.127   7.156  10.232  1.0950 -2.1628 -2.2832
  113OSM    H6T11754   4.090   6.993  10.267 -2.2757  2.1152  0.1328
  113OSM    C7S11755   4.300   7.032  10.270  0.2309  0.3594 -0.3245
  113OSM    H7S11756   4.343   6.955  10.337 -0.5348  0.3519  0.1614
  113OSM    H7T11757   4.365   7.123  10.273  1.0573 -0.1768 -1.2370
  113OSM    C8S11758   4.305   6.986  10.116 -0.3546 -0.4858  0.1808
  113OSM    H8S11759   4.221   6.916  10.095 -1.8903  1.7070 -1.2822
  113OSM    H8T11760   4.401   6.931  10.099 -0.1085 -0.1255  0.3951
  113OSM    C9S11761   4.291   7.096  10.007  0.0839 -0.3325 -0.2616
  113OSM    H9S11762   4.370   7.168  10.040 -0.5610  0.8331 -1.1703
  113OSM    H9T11763   4.192   7.144  10.019  1.0471  1.8402 -0.4979
  113OSM   C10S11764   4.322   7.066   9.856  0.3080 -0.2056  0.4491
  113OSM   H10S11765   4.273   6.967   9.842 -1.7082  0.7772  0.2555
  113OSM   H10T11766   4.432   7.056   9.844  0.1584  0.2780 -1.8439
  113OSM   C11S11767   4.247   7.153   9.761 -0.0832  0.0268 -0.1071
  113OSM   H11S11768   4.285   7.257   9.759  0.1695  0.0339 -4.2583
  113OSM   H11T11769   4.143   7.159   9.798 -0.4662  0.1224 -1.1710
  113OSM   C12S11770   4.254   7.115   9.613 -1.0136 -0.1468  0.2483
  113OSM   H12S11771   4.278   7.009   9.593 -2.0569  0.0398 -2.3427
  113OSM   H12T11772   4.341   7.165   9.565 -0.9946 -0.2379  0.1875
  113OSM   C13S11773   4.119   7.151   9.547 -0.2991 -0.5020  0.0421
  113OSM   H13S11774   4.111   7.261   9.559  1.4710 -0.3752  0.3977
  113OSM   H13T11775   4.023   7.116   9.591 -1.2696 -0.7896 -2.1763
  113OSM   C14S11776   4.125   7.102   9.405  0.8470 -0.2093  0.1318
  113OSM   H14S11777   4.144   6.993   9.394 -0.1989 -0.2001 -2.7118
  113OSM   H14T11778   4.212   7.148   9.354  0.9877 -1.0537 -0.3958
  113OSM   C15S11779   4.008   7.136   9.324  0.7953  0.4500  0.4939
  113OSM   H15S11780   3.954   7.227   9.359 -2.3629 -0.7767 -0.8196
  113OSM   H15T11781   3.928   7.061   9.336  2.1192 -1.7079 -2.7761
  113OSM   C16S11782   4.047   7.154   9.180 -0.7717  0.1307  0.3974
  113OSM   H16S11783   4.137   7.217   9.167 -1.2990  0.3318 -3.4610
  113OSM   H16T11784   3.970   7.205   9.117 -0.0220 -2.3781 -2.7946
  113OSM   C17S11785   4.043   7.022   9.101 -0.7238  0.5617  0.8210
  113OSM   H17S11786   3.959   6.962   9.144 -0.3070  1.8728  3.7070
  113OSM   H17T11787   4.135   6.971   9.134 -0.3304  0.7565  0.0518
  113OSM   C18S11788   4.060   7.034   8.946  0.4858 -0.2396 -0.3113
  113OSM   H18S11789   4.027   6.942   8.894 -0.0447  1.0907 -2.4706
  113OSM   H18T11790   4.164   7.049   8.909  0.7183 -1.0321 -0.0075
  113OSM   H18U11791   3.998   7.119   8.911 -0.3256 -1.1542 -1.1775
  113OSM    C1F11792   4.485   6.923  10.771  0.2764 -0.3426  0.6941
  113OSM     OF11793   4.430   6.819  10.800  0.6181  0.2388 -0.6491
  113OSM    C2F11794   4.629   6.947  10.765  0.4607 -0.4549 -0.3042
  113OSM    H2F11795   4.668   6.883  10.847  0.1203  1.0894  1.1324
  113OSM    H2G11796   4.662   7.049  10.791  2.0738 -0.8406 -0.7472
  113OSM    C3F11797   4.706   6.926  10.635 -0.2064  0.9971  0.4845
  113OSM    H3F11798   4.674   6.827  10.596 -2.5287  0.6021  3.1305
  113OSM    H3G11799   4.816   6.927  10.650  0.1253  1.0781 -1.5763
  113OSM    C4F11800   4.688   7.044  10.540  0.3123  0.1889  0.1160
  113OSM    H4F11801   4.711   7.139  10.593 -1.7425  1.8616 -1.7809
  113OSM    H4G11802   4.581   7.058  10.513  0.3195 -0.3355 -0.1837
  113OSM    C5F11803   4.767   7.025  10.405 -0.2295 -0.3594 -0.2033
  113OSM    H5F11804   4.871   7.016  10.443 -0.5425 -0.8978  0.5447
  113OSM    H5G11805   4.772   7.113  10.337 -0.8751 -0.5666 -0.5227
  113OSM    C6F11806   4.717   6.903  10.328 -0.0357 -0.2437 -0.1263
  113OSM    H6F11807   4.613   6.931  10.301  0.2011 -0.0683 -0.8779
  113OSM    H6G11808   4.730   6.806  10.382 -0.8789 -0.8679 -1.0195
  113OSM    C7F11809   4.796   6.879  10.199  0.5432  0.7153  0.4556
  113OSM    H7F11810   4.907   6.877  10.205  0.7436 -0.7635 -2.2292
  113OSM    H7G11811   4.761   6.957  10.128 -1.7860  0.6195  1.3952
  113OSM    C8F11812   4.750   6.749  10.129 -0.1797  0.3804 -0.3477
  113OSM    H8F11813   4.745   6.673  10.210  0.1861 -0.1420 -0.8013
  113OSM    H8G11814   4.827   6.708  10.060  1.1136 -0.8071  1.7188
  113OSM    C9F11815   4.618   6.746  10.049 -0.3455 -0.0915  0.1297
  113OSM    H9F11816   4.531   6.769  10.112  1.2297  1.9056  1.7273
  113OSM   C10F11817   4.602   6.708   9.919  0.1115 -0.5848  0.3644
  113OSM   H10F11818   4.499   6.711   9.881 -1.1745 -2.3633  3.3718
  113OSM   C11F11819   4.706   6.656   9.829  0.4023  0.4258  1.0573
  113OSM   H11F11820   4.810   6.637   9.864  1.1819  0.8482 -0.9122
  113OSM   H11G11821   4.710   6.711   9.733 -1.8477  0.5776  0.9999
  113OSM   C12F11822   4.653   6.513   9.789  0.2308 -0.9893  0.3207
  113OSM   H12F11823   4.552   6.512   9.742  1.1944  0.3489 -1.9002
  113OSM   H12G11824   4.638   6.445   9.876 -1.1401 -0.3636  0.5984
  113OSM   C13F11825   4.752   6.450   9.685  0.5741 -0.4486  0.2260
  113OSM   H13F11826   4.853   6.463   9.730  0.9644  1.0884 -1.0203
  113OSM   H13G11827   4.748   6.508   9.591  2.2398 -1.7237 -0.6849
  113OSM   C14F11828   4.726   6.306   9.637  0.2683  0.2267  0.2781
  113OSM   H14F11829   4.619   6.313   9.606  0.6271  1.2022 -0.8170
  113OSM   H14G11830   4.734   6.235   9.722 -2.5334 -0.4937  0.0441
  113OSM   C15F11831   4.824   6.264   9.531 -0.6857  0.7019  0.1620
  113OSM   H15F11832   4.926   6.275   9.575 -0.9085  2.0794  0.3688
  113OSM   H15G11833   4.818   6.327   9.439  0.2300  2.5303  1.2937
  113OSM   C16F11834   4.813   6.110   9.500  0.1573  0.1996  0.1478
  113OSM   H16F11835   4.806   6.052   9.595 -1.0428  2.2933  1.4098
  113OSM   H16G11836   4.901   6.075   9.442  1.1949 -0.0244  1.7959
  113OSM   C17F11837   4.693   6.088   9.414  0.0900  0.2888 -0.1131
  113OSM   H17F11838   4.616   6.158   9.453  0.4644 -0.4836  2.1580
  113OSM   H17G11839   4.650   5.987   9.428 -1.0340  0.3140 -2.6948
  113OSM   C18F11840   4.726   6.110   9.267  0.2337 -0.1630  0.8760
  113OSM   H18F11841   4.826   6.070   9.238 -0.6493 -2.4199  0.6769
  113OSM   H18G11842   4.718   6.219   9.249 -2.4964 -0.6807 -1.9911
  113OSM   H18H11843   4.655   6.047   9.210  0.3155  1.7272 -1.4399
  114OSM      N11844   6.100   2.709  10.787  0.2669  0.4598  0.0612
  114OSM    C1511845   5.957   2.700  10.831 -0.5583 -0.6960  0.1835
  114OSM   H15A11846   5.914   2.787  10.878  0.9217  1.0253 -1.4992
  114OSM   H15B11847   5.943   2.616  10.897 -1.4847  1.4238  2.8202
  114OSM   H15C11848   5.902   2.687  10.738 -0.0924  1.1569 -0.3926
  114OSM    C1411849   6.151   2.577  10.753  0.4206  0.4796 -0.3759
  114OSM   H14A11850   6.256   2.559  10.735  0.0119 -2.8622 -0.0528
  114OSM   H14B11851   6.111   2.543  10.659  0.4236  0.1104 -0.2483
  114OSM   H14C11852   6.128   2.499  10.825 -0.8555 -0.6835 -1.9855
  114OSM    C1311853   6.096   2.797  10.665  0.3503 -0.5031 -0.2377
  114OSM   H13A11854   6.198   2.816  10.636  1.1781 -3.2910  0.5286
  114OSM   H13B11855   6.035   2.884  10.686  0.0614 -1.0781  1.4654
  114OSM   H13C11856   6.042   2.735  10.596  0.0520  0.0924 -0.5429
  114OSM    C1211857   6.180   2.771  10.895 -0.3023  0.4986 -0.4844
  114OSM   H12A11858   6.280   2.791  10.860  1.0007 -0.5286  2.3584
  114OSM   H12B11859   6.202   2.709  10.981 -2.4994  1.6622  1.0156
  114OSM    C1111860   6.124   2.904  10.950 -0.1113 -0.2150 -0.5793
  114OSM   H11A11861   6.035   2.875  11.011 -0.1737  0.1090 -0.5165
  114OSM   H11B11862   6.092   2.964  10.862 -0.3470  2.0701  0.9770
  114OSM      P11863   6.216   3.109  11.064 -0.0900 -0.0614 -0.2473
  114OSM    O1311864   6.106   3.131  11.163  0.0222 -0.2757  0.5899
  114OSM    O1411865   6.351   3.162  11.100  0.4376  0.2805  0.0748
  114OSM    O1111866   6.177   3.189  10.933 -0.0175 -0.4992  0.3745
  114OSM    O1211867   6.235   2.962  11.023 -0.1995  0.4060  0.4603
  114OSM    C1S11868   6.193   3.324  10.902  0.3036 -0.3308  0.5398
  114OSM    H1S11869   6.282   3.362  10.956 -0.4297  1.8117  0.3326
  114OSM    H1T11870   6.099   3.378  10.927  0.9255  0.8444  0.3802
  114OSM     NF11871   6.254   3.491  10.730  0.1384  0.5958  0.0314
  114OSM    HNF11872   6.190   3.557  10.691 -0.3734 -0.7107 -1.4592
  114OSM    C2S11873   6.212   3.352  10.745 -0.1063 -0.2191 -0.1243
  114OSM    H2S11874   6.297   3.286  10.715  0.6141  1.3162 -1.6220
  114OSM    C3S11875   6.092   3.296  10.672  0.4743  0.0988  0.0591
  114OSM    H3S11876   6.002   3.343  10.718  1.1056 -0.4238  1.9159
  114OSM     O311877   6.086   3.153  10.695 -0.5032 -0.6737  0.2070
  114OSM    HO311878   6.115   3.145  10.786 -3.1071 -1.8693  1.0393
  114OSM    C4S11879   6.110   3.318  10.526 -0.0237 -0.1425  0.4304
  114OSM    H4S11880   6.181   3.252  10.474  0.4388  0.0360  0.8386
  114OSM    C5S11881   6.030   3.405  10.455  0.2735  0.2414 -0.3387
  114OSM    H5S11882   5.940   3.448  10.501  1.0041 -0.0059  1.4175
  114OSM    C6S11883   6.033   3.429  10.302 -0.2256 -0.4273 -0.0595
  114OSM    H6S11884   6.048   3.538  10.295  1.0307 -0.6693 -2.0458
  114OSM    H6T11885   5.932   3.399  10.268 -0.5520 -1.2187  1.5204
  114OSM    C7S11886   6.144   3.366  10.217  0.5595  0.4364 -0.6595
  114OSM    H7S11887   6.128   3.259  10.193  1.0599  0.0331  0.7079
  114OSM    H7T11888   6.242   3.388  10.265  0.9223 -1.9558 -0.1783
  114OSM    C8S11889   6.154   3.419  10.073 -0.9546 -0.7518 -0.1259
  114OSM    H8S11890   6.229   3.356  10.021 -0.2794  0.6400 -0.9096
  114OSM    H8T11891   6.194   3.523  10.070  1.5151 -1.6487 -0.5969
  114OSM    C9S11892   6.024   3.417  10.002 -0.1060  0.1869  0.1268
  114OSM    H9S11893   5.948   3.487  10.040 -0.6677  0.2562 -1.0971
  114OSM    H9T11894   5.984   3.314   9.995 -0.5238  0.0182  3.3226
  114OSM   C10S11895   6.063   3.474   9.851 -0.0738 -0.3854 -0.6990
  114OSM   H10S11896   6.138   3.556   9.854 -0.2769 -0.2180  1.1391
  114OSM   H10T11897   5.968   3.515   9.812  0.4639  3.7541  1.7275
  114OSM   C11S11898   6.122   3.363   9.766  0.6977  0.2597 -0.2181
  114OSM   H11S11899   6.042   3.289   9.749  1.6190 -1.5879  2.7036
  114OSM   H11T11900   6.206   3.300   9.804  0.8628 -1.6042 -3.3663
  114OSM   C12S11901   6.168   3.425   9.630  0.1884  0.5042  0.3166
  114OSM   H12S11902   6.265   3.476   9.649  0.6169 -0.4936  0.8852
  114OSM   H12T11903   6.086   3.495   9.602  0.5485  0.9389  0.3445
  114OSM   C13S11904   6.160   3.319   9.522 -0.0642  0.2632  0.8251
  114OSM   H13S11905   6.056   3.287   9.500 -0.4785  1.2423  1.2942
  114OSM   H13T11906   6.223   3.233   9.554  0.1627  0.3631  0.6466
  114OSM   C14S11907   6.193   3.373   9.379  0.2603  0.4130 -0.3624
  114OSM   H14S11908   6.293   3.423   9.381 -0.9566  2.9884 -0.4009
  114OSM   H14T11909   6.123   3.458   9.368  0.0054  0.5085  1.5606
  114OSM   C15S11910   6.174   3.267   9.268 -0.3284  0.1678 -0.0683
  114OSM   H15S11911   6.082   3.208   9.286  0.8790 -1.9161 -0.4422
  114OSM   H15T11912   6.264   3.203   9.282 -0.6668  0.1217  2.2633
  114OSM   C16S11913   6.181   3.340   9.130  0.7811  0.6973 -0.1724
  114OSM   H16S11914   6.287   3.361   9.104  0.9459  0.6895  0.4709
  114OSM   H16T11915   6.118   3.431   9.125 -1.3810 -0.7770 -1.2480
  114OSM   C17S11916   6.128   3.238   9.028 -0.1288  0.3449  0.4794
  114OSM   H17S11917   6.186   3.144   9.043  1.6068  1.1896 -0.6271
  114OSM   H17T11918   6.157   3.266   8.925 -1.7631  0.3682  0.0057
  114OSM   C18S11919   5.978   3.211   9.038 -0.3989  0.6071 -0.2653
  114OSM   H18S11920   5.917   3.285   8.982 -1.2905 -0.4676 -0.7346
  114OSM   H18T11921   5.946   3.222   9.143 -0.9836 -0.0822 -0.3656
  114OSM   H18U11922   5.959   3.104   9.015 -1.1524  0.6758  0.0140
  114OSM    C1F11923   6.370   3.547  10.772 -0.7212 -0.0475 -0.1429
  114OSM     OF11924   6.454   3.482  10.835  0.1635  0.3880 -0.5999
  114OSM    C2F11925   6.397   3.688  10.753  0.0835  0.0604 -0.1827
  114OSM    H2F11926   6.412   3.740  10.850  1.7492  1.1738 -0.9977
  114OSM    H2G11927   6.309   3.731  10.699 -0.1980  0.0461  0.2648
  114OSM    C3F11928   6.529   3.712  10.682 -0.1852 -0.2621 -0.5572
  114OSM    H3F11929   6.615   3.654  10.722 -0.1679  0.2902  0.2245
  114OSM    H3G11930   6.552   3.820  10.693  1.3041 -0.7072  1.1157
  114OSM    C4F11931   6.526   3.674  10.532 -0.1696  0.2987  0.1446
  114OSM    H4F11932   6.487   3.571  10.517  1.6250 -0.4818  0.5251
  114OSM    H4G11933   6.632   3.682  10.502 -0.9818  3.9430 -2.3640
  114OSM    C5F11934   6.450   3.760  10.434 -0.1546 -0.5242  0.2521
  114OSM    H5F11935   6.491   3.863  10.440 -1.4708  0.2082 -1.9048
  114OSM    H5G11936   6.341   3.757  10.454  0.0295 -0.3715  1.3691
  114OSM    C6F11937   6.433   3.721  10.288 -0.2490  0.2036 -0.6860
  114OSM    H6F11938   6.373   3.629  10.269 -0.3904  0.1127  0.1642
  114OSM    H6G11939   6.535   3.703  10.249 -0.4264  2.1410 -2.2266
  114OSM    C7F11940   6.365   3.843  10.220  0.1703 -0.0220  0.6147
  114OSM    H7F11941   6.371   3.829  10.110 -3.4873  0.1557  0.2768
  114OSM    H7G11942   6.421   3.933  10.255  0.2758 -0.4566  1.5874
  114OSM    C8F11943   6.214   3.858  10.245  0.7172 -0.1494 -0.1180
  114OSM    H8F11944   6.197   3.864  10.355 -3.1767 -1.2436 -0.5162
  114OSM    H8G11945   6.164   3.766  10.210 -0.9901  1.2877 -1.6982
  114OSM    C9F11946   6.135   3.972  10.186 -0.2831 -0.6141 -0.2239
  114OSM    H9F11947   6.121   4.053  10.259  0.3960 -0.1736 -0.5740
  114OSM   C10F11948   6.100   3.990  10.055  0.0750  0.5179 -0.3788
  114OSM   H10F11949   6.056   4.084  10.020  0.1082  0.1596 -1.3993
  114OSM   C11F11950   6.120   3.891   9.946  0.2979 -0.3869 -0.6034
  114OSM   H11F11951   6.022   3.866   9.899 -0.6014  1.8644 -0.0448
  114OSM   H11G11952   6.157   3.796   9.990  1.5878 -0.5021 -1.8606
  114OSM   C12F11953   6.222   3.945   9.840  0.9607  0.4707  0.3161
  114OSM   H12F11954   6.318   3.935   9.895  1.8448 -0.8690 -1.3851
  114OSM   H12G11955   6.200   4.053   9.827  0.7132  0.3410 -0.3618
  114OSM   C13F11956   6.243   3.854   9.722 -0.8183  0.3674  0.2487
  114OSM   H13F11957   6.254   3.750   9.759 -1.1398  0.6256  1.1040
  114OSM   H13G11958   6.333   3.888   9.667 -1.4282  2.6216  0.5636
  114OSM   C14F11959   6.120   3.861   9.629  0.4232 -0.0854 -0.4268
  114OSM   H14F11960   6.110   3.968   9.601  2.4267  1.0938  2.8591
  114OSM   H14G11961   6.025   3.836   9.681 -0.4420  2.7827 -0.4421
  114OSM   C15F11962   6.133   3.793   9.491  0.4984  0.0380 -0.1751
  114OSM   H15F11963   6.167   3.689   9.511  2.5865  1.2894  3.9048
  114OSM   H15G11964   6.212   3.839   9.429  2.0288 -1.0365  0.9017
  114OSM   C16F11965   6.007   3.799   9.407  0.3708  0.3872 -0.3024
  114OSM   H16F11966   5.933   3.877   9.436  1.5933  1.0696  1.0844
  114OSM   H16G11967   5.952   3.705   9.428 -0.1536  0.8014  0.2271
  114OSM   C17F11968   6.038   3.793   9.252 -0.1306  0.5444  0.2345
  114OSM   H17F11969   6.094   3.698   9.242 -1.4515 -0.1997 -0.3136
  114OSM   H17G11970   6.098   3.880   9.217  0.4053 -0.3293 -1.1065
  114OSM   C18F11971   5.915   3.792   9.156 -0.6615  0.3853 -0.2018
  114OSM   H18F11972   5.858   3.698   9.172 -1.5644  0.8818 -0.4209
  114OSM   H18G11973   5.951   3.789   9.051 -0.8961 -1.4626 -0.2521
  114OSM   H18H11974   5.861   3.887   9.178  0.5974  0.6312  2.1200
  115OSM      N11975   2.733   3.223  11.166  0.9510 -0.3895 -0.8015
  115OSM    C1511976   2.694   3.119  11.255 -0.6423 -0.3494  0.3171
  115OSM   H15A11977   2.780   3.059  11.281 -0.6542  0.1681  1.6045
  115OSM   H15B11978   2.612   3.066  11.208 -0.8082 -1.1666  1.4915
  115OSM   H15C11979   2.658   3.171  11.342 -0.4316  1.0438 -0.3881
  115OSM    C1411980   2.622   3.328  11.150 -0.1868  0.4218  0.1517
  115OSM   H14A11981   2.656   3.399  11.076  0.3702 -1.2372 -1.2611
  115OSM   H14B11982   2.615   3.373  11.248  0.3554  2.2851 -0.6231
  115OSM   H14C11983   2.526   3.292  11.115 -0.6489  1.2176  0.5724
  115OSM    C1311984   2.851   3.293  11.217  0.3321 -0.3540  0.2887
  115OSM   H13A11985   2.844   3.317  11.322  1.9267  0.4502  0.2418
  115OSM   H13B11986   2.863   3.384  11.160 -1.3010  0.0623  0.5557
  115OSM   H13C11987   2.939   3.233  11.198 -0.2413 -1.1557  0.0862
  115OSM    C1211988   2.761   3.165  11.030 -0.1707 -0.2528  0.4339
  115OSM   H12A11989   2.843   3.096  11.039  1.0720  0.7041 -2.3696
  115OSM   H12B11990   2.807   3.244  10.972  2.4235  0.8291  3.6772
  115OSM    C1111991   2.643   3.093  10.953 -0.2388  0.7833  0.3405
  115OSM   H11A11992   2.685   3.069  10.853  3.4690 -0.8243  2.1092
  115OSM   H11B11993   2.558   3.164  10.950  0.5583  1.7432 -1.9549
  115OSM      P11994   2.696   2.844  11.013  0.3520 -0.1085 -0.2981
  115OSM    O1311995   2.831   2.887  11.042 -0.4087  0.1074  0.0168
  115OSM    O1411996   2.629   2.743  11.090  0.1909  0.1822 -0.2769
  115OSM    O1111997   2.683   2.812  10.859 -0.1911  0.0002  0.1325
  115OSM    O1211998   2.609   2.975  11.021 -0.4724 -0.2599 -0.3150
  115OSM    C1S11999   2.594   2.706  10.806  0.6126  0.1901  0.4941
  115OSM    H1S12000   2.491   2.747  10.811  0.8290  0.9016 -0.5349
  115OSM    H1T12001   2.598   2.610  10.862  1.0563 -0.3340 -0.4066
  115OSM     NF12002   2.543   2.569  10.611  0.5980  0.0695 -1.0846
  115OSM    HNF12003   2.566   2.473  10.620 -0.0490  0.0935  1.9390
  115OSM    C2S12004   2.629   2.672  10.663  0.3728  0.7998  0.3738
  115OSM    H2S12005   2.610   2.764  10.604 -0.4805 -0.2640 -1.0868
  115OSM    C3S12006   2.780   2.629  10.649  1.0333 -0.1033 -0.4082
  115OSM    H3S12007   2.792   2.541  10.715 -1.2540  0.3623  0.7402
  115OSM     O312008   2.877   2.729  10.693  0.4347 -0.0735 -0.2547
  115OSM    HO312009   2.821   2.783  10.750  0.1171 -0.1467 -0.4915
  115OSM    C4S12010   2.798   2.585  10.505  1.1425  0.7535  1.1300
  115OSM    H4S12011   2.778   2.478  10.492 -2.0847  1.3572  0.4146
  115OSM    C5S12012   2.849   2.653  10.397  0.3720 -0.6767 -0.0327
  115OSM    H5S12013   2.876   2.758  10.414 -3.0873  0.3858 -0.4083
  115OSM    C6S12014   2.872   2.596  10.257  0.0420  0.7804  0.1107
  115OSM    H6S12015   2.866   2.485  10.249  3.1152  0.5778 -0.6073
  115OSM    H6T12016   2.971   2.621  10.213  1.8863 -1.2317  2.8509
  115OSM    C7S12017   2.775   2.651  10.151  0.0284  0.0859  0.2589
  115OSM    H7S12018   2.758   2.760  10.165  0.7989 -0.0356  2.6781
  115OSM    H7T12019   2.679   2.604  10.181  2.0872 -3.1433  2.4548
  115OSM    C8S12020   2.820   2.616  10.008 -0.0717  0.0506 -0.2390
  115OSM    H8S12021   2.926   2.644   9.994  0.1183 -0.9935 -0.9778
  115OSM    H8T12022   2.750   2.671   9.941 -0.4292 -0.8857 -0.6514
  115OSM    C9S12023   2.812   2.466   9.970 -0.5825 -0.2119  0.6970
  115OSM    H9S12024   2.874   2.412  10.045 -1.1187 -0.1499  1.1913
  115OSM    H9T12025   2.860   2.452   9.871 -0.0717  1.4394  0.6799
  115OSM   C10S12026   2.686   2.393   9.974  0.1988 -0.0633 -0.8927
  115OSM   H10S12027   2.613   2.443   9.908  0.3520  3.0739  1.1187
  115OSM   H10T12028   2.644   2.404  10.076 -0.3838  0.4023 -1.1817
  115OSM   C11S12029   2.700   2.244   9.943 -0.3001 -0.0562 -0.4494
  115OSM   H11S12030   2.758   2.195  10.024  1.9720  0.3475 -1.7231
  115OSM   H11T12031   2.766   2.227   9.855 -0.1850 -3.0884  0.1173
  115OSM   C12S12032   2.557   2.180   9.937 -0.1443  0.6723 -0.2142
  115OSM   H12S12033   2.493   2.214   9.852 -1.2211 -0.4227  0.1325
  115OSM   H12T12034   2.509   2.204  10.034  0.7721 -2.3771  1.1070
  115OSM   C13S12035   2.580   2.037   9.909 -0.6914  0.1532 -0.0727
  115OSM   H13S12036   2.650   1.983   9.976 -0.9582  0.3762  0.3894
  115OSM   H13T12037   2.633   2.024   9.813  1.6576 -0.4125  1.2184
  115OSM   C14S12038   2.442   1.958   9.900 -0.4546 -0.1891 -0.7877
  115OSM   H14S12039   2.471   1.860   9.856 -1.5513 -0.7207 -0.3616
  115OSM   H14T12040   2.367   2.006   9.834 -1.3003  0.0634  0.3324
  115OSM   C15S12041   2.383   1.924  10.040  0.6820 -0.0991  0.1266
  115OSM   H15S12042   2.278   1.892  10.025  0.7880 -0.1706 -0.4751
  115OSM   H15T12043   2.372   2.023  10.089 -0.2350  0.6564 -1.5174
  115OSM   C16S12044   2.457   1.825  10.129  0.6159  0.1468  0.5130
  115OSM   H16S12045   2.563   1.835  10.097 -0.0922  3.9448 -1.3049
  115OSM   H16T12046   2.413   1.726  10.108  2.5822 -0.2086 -2.4944
  115OSM   C17S12047   2.457   1.865  10.279 -0.0258  0.0385  0.1009
  115OSM   H17S12048   2.506   1.964  10.285  1.0525 -0.4146 -0.9644
  115OSM   H17T12049   2.529   1.811  10.344 -1.4613 -2.1231  0.0038
  115OSM   C18S12050   2.323   1.858  10.354  0.5130 -0.0772  0.7797
  115OSM   H18S12051   2.269   1.762  10.338 -3.1036  1.4860  2.5083
  115OSM   H18T12052   2.262   1.950  10.341  0.7289 -0.2963 -2.5610
  115OSM   H18U12053   2.342   1.853  10.463  0.3691  0.7902  0.8456
  115OSM    C1F12054   2.415   2.602  10.573  0.4094  0.1967  0.4287
  115OSM     OF12055   2.370   2.720  10.581 -0.0320 -0.3709  0.1910
  115OSM    C2F12056   2.336   2.486  10.514  0.7171  0.6546  0.1707
  115OSM    H2F12057   2.266   2.453  10.594  1.4591 -1.3984  0.0268
  115OSM    H2G12058   2.416   2.414  10.488  0.4164 -0.3018  1.7770
  115OSM    C3F12059   2.249   2.527  10.390 -0.1655  0.6681 -0.1509
  115OSM    H3F12060   2.307   2.601  10.331  1.9458  0.4050  1.4829
  115OSM    H3G12061   2.151   2.570  10.421 -0.5450  1.3887 -2.1558
  115OSM    C4F12062   2.210   2.424  10.287 -0.5593  0.9367 -0.4274
  115OSM    H4F12063   2.155   2.342  10.338  1.0648 -0.0823 -0.2291
  115OSM    H4G12064   2.296   2.373  10.239 -0.7198  2.0507 -1.9653
  115OSM    C5F12065   2.130   2.477  10.168 -0.2703 -0.0539 -0.4720
  115OSM    H5F12066   2.195   2.551  10.118  0.2116 -0.3563 -0.2977
  115OSM    H5G12067   2.038   2.526  10.207 -0.7149  0.9593 -2.6691
  115OSM    C6F12068   2.103   2.367  10.068 -0.4580 -0.4038  0.2408
  115OSM    H6F12069   2.084   2.275  10.128  1.2801 -0.5169  0.6702
  115OSM    H6G12070   2.197   2.349  10.012  0.9641  0.8482  2.1146
  115OSM    C7F12071   1.984   2.396   9.972  0.3007 -0.1413 -0.3552
  115OSM    H7F12072   2.031   2.467   9.900  2.5140 -1.8528 -0.6840
  115OSM    H7G12073   1.899   2.442  10.028  2.3798 -1.0290  3.9054
  115OSM    C8F12074   1.941   2.279   9.886 -0.1560  0.1067  0.1696
  115OSM    H8F12075   2.035   2.227   9.858 -0.4524  0.0270 -0.6870
  115OSM    H8G12076   1.893   2.314   9.793 -1.3097 -0.8228  0.3960
  115OSM    C9F12077   1.856   2.175   9.952  0.1958 -0.4606 -0.4025
  115OSM    H9F12078   1.891   2.143  10.051  0.7429 -0.4784 -0.5976
  115OSM   C10F12079   1.745   2.104   9.907 -0.3974 -0.3819 -0.0185
  115OSM   H10F12080   1.686   2.039   9.974  0.6045 -1.2500  0.0609
  115OSM   C11F12081   1.677   2.121   9.774  0.1179 -0.5206  0.4869
  115OSM   H11F12082   1.687   2.227   9.743  0.1905 -1.3681 -2.7561
  115OSM   H11G12083   1.570   2.096   9.791 -0.2995  0.8163 -0.1060
  115OSM   C12F12084   1.732   2.030   9.654  0.5533 -0.3020  0.1695
  115OSM   H12F12085   1.720   1.923   9.683  0.5464  0.5476  3.8784
  115OSM   H12G12086   1.840   2.050   9.642  0.2752  0.9565 -0.3859
  115OSM   C13F12087   1.645   2.047   9.529 -1.0005 -0.1026  0.3817
  115OSM   H13F12088   1.617   2.153   9.509 -1.9205 -0.6553 -1.5653
  115OSM   H13G12089   1.554   1.985   9.535 -0.8696 -0.2319  1.0177
  115OSM   C14F12090   1.727   1.995   9.405  0.0997 -0.1382  0.2969
  115OSM   H14F12091   1.762   1.891   9.421 -0.3822 -0.3723 -0.1461
  115OSM   H14G12092   1.817   2.059   9.392 -1.0397  1.4199 -0.1832
  115OSM   C15F12093   1.653   1.991   9.269 -1.2604 -0.0412  0.1630
  115OSM   H15F12094   1.576   1.911   9.274  1.4416 -2.7945  0.9556
  115OSM   H15G12095   1.725   1.964   9.188 -0.9068  2.9840 -0.6505
  115OSM   C16F12096   1.599   2.134   9.223 -0.4892 -0.2502  0.1664
  115OSM   H16F12097   1.664   2.217   9.259  2.3836 -2.1493 -0.2946
  115OSM   H16G12098   1.507   2.169   9.274  0.3995 -1.2706  2.6256
  115OSM   C17F12099   1.589   2.150   9.070  0.3319 -0.4694  0.7445
  115OSM   H17F12100   1.537   2.072   9.011  1.0414 -1.2898  1.1858
  115OSM   H17G12101   1.692   2.146   9.029  0.3451  0.8739  0.5963
  115OSM   C18F12102   1.523   2.286   9.027 -0.3545  0.3978 -0.0869
  115OSM   H18F12103   1.433   2.312   9.087 -0.1378  1.9839 -0.4092
  115OSM   H18G12104   1.488   2.275   8.922  1.7685 -0.1061 -0.7778
  115OSM   H18H12105   1.599   2.366   9.028  0.3837 -0.1403 -3.1982
  116OSM      N12106   6.314   6.441  11.187  0.0775 -0.7516 -0.5549
  116OSM    C1512107   6.459   6.495  11.198  0.2396 -0.1475  0.1583
  116OSM   H15A12108   6.529   6.417  11.223  0.0209  0.1781  1.8538
  116OSM   H15B12109   6.470   6.572  11.272  0.6470 -0.5062  0.4734
  116OSM   H15C12110   6.483   6.543  11.104  0.9394  0.5227  0.6805
  116OSM    C1412111   6.298   6.343  11.303 -0.0411 -0.0544 -0.0669
  116OSM   H14A12112   6.198   6.303  11.303  0.5353 -1.6295  0.9223
  116OSM   H14B12113   6.317   6.388  11.399 -0.1314  0.9304 -0.5066
  116OSM   H14C12114   6.369   6.261  11.296 -0.0796 -0.0788 -0.1715
  116OSM    C1312115   6.204   6.541  11.211 -0.0555  0.6862 -0.0225
  116OSM   H13A12116   6.211   6.619  11.136  2.0238  1.1228  0.5701
  116OSM   H13B12117   6.202   6.578  11.312  0.2208  0.5818  0.0222
  116OSM   H13C12118   6.108   6.496  11.187 -0.0114  0.6474 -0.1261
  116OSM    C1212119   6.299   6.366  11.055 -0.1954 -0.5259 -1.2038
  116OSM   H12A12120   6.385   6.303  11.037 -0.8622 -1.6818 -0.4761
  116OSM   H12B12121   6.303   6.435  10.972  0.4969  1.4768  0.4027
  116OSM    C1112122   6.175   6.273  11.038  0.2284 -0.1253 -0.3824
  116OSM   H11A12123   6.163   6.250  10.930 -2.8267  0.2856 -0.1957
  116OSM   H11B12124   6.085   6.334  11.058  1.8428  3.1733 -2.3193
  116OSM      P12125   6.296   6.048  11.076 -0.3456  0.2687  0.0842
  116OSM    O1312126   6.429   6.085  11.128  0.1070 -0.2571 -0.5234
  116OSM    O1412127   6.244   5.917  11.111  0.8299 -0.1970 -0.8221
  116OSM    O1112128   6.301   6.053  10.914  0.3516  0.8188 -0.6643
  116OSM    O1212129   6.185   6.152  11.118  0.0918  0.5043  0.0667
  116OSM    C1S12130   6.358   5.953  10.827 -0.1371  0.1503  0.4342
  116OSM    H1S12131   6.303   5.859  10.850 -0.6340 -0.2568 -2.0732
  116OSM    H1T12132   6.462   5.936  10.860 -0.5681 -0.1484  1.6880
  116OSM     NF12133   6.376   5.888  10.584  0.1314  0.1228  0.4486
  116OSM    HNF12134   6.470   5.869  10.557 -0.9062 -1.4874 -2.4292
  116OSM    C2S12135   6.347   5.994  10.676 -0.7594 -0.1195 -0.6274
  116OSM    H2S12136   6.243   6.018  10.645 -0.7824 -1.8851 -2.0854
  116OSM    C3S12137   6.440   6.111  10.659 -0.0840 -0.9202  0.0682
  116OSM    H3S12138   6.542   6.069  10.672  1.0326  1.3190 -0.9461
  116OSM     O312139   6.427   6.213  10.757  0.2141 -0.1628  0.3269
  116OSM    HO312140   6.375   6.174  10.827  1.7616  0.4015  1.8685
  116OSM    C4S12141   6.441   6.180  10.526 -0.7925 -0.6998  1.2744
  116OSM    H4S12142   6.348   6.229  10.492  0.1511  1.0460  1.0908
  116OSM    C5S12143   6.553   6.183  10.444  0.6058 -0.1546  0.6165
  116OSM    H5S12144   6.651   6.159  10.487  0.7513 -2.2746 -0.7422
  116OSM    C6S12145   6.554   6.242  10.301  0.2171 -0.6831  0.4271
  116OSM    H6S12146   6.555   6.173  10.214  2.5282  2.1641 -2.0098
  116OSM    H6T12147   6.640   6.309  10.284 -0.3250 -0.6198 -2.6929
  116OSM    C7S12148   6.436   6.332  10.270 -0.1168  0.5700  0.7895
  116OSM    H7S12149   6.433   6.416  10.342  0.9136  1.4238 -0.1428
  116OSM    H7T12150   6.342   6.276  10.290 -0.1025  0.9527  1.9901
  116OSM    C8S12151   6.439   6.381  10.119 -0.2599  0.3676  0.3790
  116OSM    H8S12152   6.545   6.403  10.094 -0.5408  0.2042 -1.0248
  116OSM    H8T12153   6.389   6.479  10.102  1.2507  1.1113 -0.0394
  116OSM    C9S12154   6.388   6.286  10.014 -0.3211 -0.0994  0.3833
  116OSM    H9S12155   6.279   6.267  10.023 -0.1235 -0.7288  1.8010
  116OSM    H9T12156   6.426   6.183  10.031 -1.7212 -0.9294 -1.2089
  116OSM   C10S12157   6.419   6.335   9.875  0.6377 -0.3468  0.4212
  116OSM   H10S12158   6.528   6.335   9.853  0.4029 -0.5920 -0.8388
  116OSM   H10T12159   6.370   6.433   9.857 -3.2741 -2.4580 -1.7891
  116OSM   C11S12160   6.361   6.247   9.763 -0.0842 -0.2857  1.8501
  116OSM   H11S12161   6.251   6.254   9.769 -0.2258 -1.5265  0.9638
  116OSM   H11T12162   6.377   6.139   9.781 -1.8872 -1.0152 -0.4559
  116OSM   C12S12163   6.418   6.281   9.621  0.3650 -0.3840  1.0841
  116OSM   H12S12164   6.519   6.235   9.618  1.4164  1.7270  2.0253
  116OSM   H12T12165   6.430   6.392   9.618 -0.4572 -0.2963 -1.3269
  116OSM   C13S12166   6.325   6.244   9.508 -0.7673  0.2545 -0.8185
  116OSM   H13S12167   6.223   6.285   9.529  0.1127  1.4184  1.6076
  116OSM   H13T12168   6.328   6.134   9.497  1.5102  0.3370 -1.4278
  116OSM   C14S12169   6.383   6.308   9.387  0.0641 -0.1046  0.6525
  116OSM   H14S12170   6.492   6.292   9.372  0.5595  2.1820  1.4475
  116OSM   H14T12171   6.363   6.418   9.393  0.1145  0.1248 -2.1242
  116OSM   C15S12172   6.319   6.251   9.255 -0.3184  0.2218  0.6077
  116OSM   H15S12173   6.209   6.264   9.253 -0.0714  2.9877 -1.5013
  116OSM   H15T12174   6.341   6.144   9.238  2.7858  1.1027 -2.0537
  116OSM   C16S12175   6.364   6.339   9.136  0.3845 -0.5220  0.3289
  116OSM   H16S12176   6.365   6.444   9.170 -1.5296  0.1776 -1.5646
  116OSM   H16T12177   6.293   6.333   9.051  0.6794 -0.5390  0.0809
  116OSM   C17S12178   6.510   6.314   9.090  0.5090  0.4095  0.3175
  116OSM   H17S12179   6.505   6.213   9.045  1.2421 -0.1974  1.5437
  116OSM   H17T12180   6.574   6.305   9.181 -0.7814 -0.7301  1.1645
  116OSM   C18S12181   6.546   6.430   9.001 -0.0402 -0.3147  0.0871
  116OSM   H18S12182   6.548   6.518   9.069  1.5761 -0.7771  0.7039
  116OSM   H18T12183   6.461   6.430   8.929 -2.1624  1.3325  2.4301
  116OSM   H18U12184   6.646   6.424   8.953 -0.6441  0.5344 -1.3578
  116OSM    C1F12185   6.285   5.792  10.546 -0.1986  0.3795  0.5106
  116OSM     OF12186   6.194   5.763  10.625 -0.2437 -0.6945 -0.7116
  116OSM    C2F12187   6.327   5.711  10.424  0.1305 -0.1831  0.8833
  116OSM    H2F12188   6.398   5.628  10.445 -0.9364 -1.4160 -0.2750
  116OSM    H2G12189   6.373   5.783  10.353 -0.7381 -1.4885 -1.0850
  116OSM    C3F12190   6.204   5.639  10.365 -0.4976 -0.5983  0.0077
  116OSM    H3F12191   6.135   5.719  10.331 -0.9619 -0.2818  1.5782
  116OSM    H3G12192   6.150   5.577  10.440 -0.8162 -1.2398 -0.7450
  116OSM    C4F12193   6.236   5.548  10.249 -0.9490 -0.3787 -0.4399
  116OSM    H4F12194   6.149   5.494  10.207  0.2018 -0.6868 -2.5272
  116OSM    H4G12195   6.315   5.476  10.277  0.6424  1.4236 -0.0817
  116OSM    C5F12196   6.309   5.606  10.129  0.1503 -0.1835 -0.2905
  116OSM    H5F12197   6.406   5.646  10.167  0.5447 -0.1740 -1.2816
  116OSM    H5G12198   6.260   5.691  10.078 -2.4565 -0.7997  1.0017
  116OSM    C6F12199   6.337   5.490  10.028 -0.2380  0.2114  0.1220
  116OSM    H6F12200   6.245   5.440   9.992  1.1191 -2.0001 -0.4970
  116OSM    H6G12201   6.393   5.426  10.099 -1.2242  2.0336  2.6732
  116OSM    C7F12202   6.420   5.536   9.906 -0.2366  0.5831 -1.0228
  116OSM    H7F12203   6.469   5.448   9.860  2.2823 -0.4601  3.0865
  116OSM    H7G12204   6.497   5.604   9.948 -0.7113 -0.2227  1.3222
  116OSM    C8F12205   6.335   5.628   9.807 -0.6309 -0.0194  0.1484
  116OSM    H8F12206   6.416   5.668   9.742  0.3524 -1.7784  0.2291
  116OSM    H8G12207   6.288   5.705   9.872  0.1116 -1.8613  3.0500
  116OSM    C9F12208   6.226   5.566   9.727  0.2824 -0.2372 -0.0703
  116OSM    H9F12209   6.125   5.560   9.772 -0.1317  0.2691 -0.9202
  116OSM   C10F12210   6.229   5.524   9.594  0.7071 -0.8116 -0.5431
  116OSM   H10F12211   6.134   5.493   9.550 -0.7202 -0.3829  2.0394
  116OSM   C11F12212   6.352   5.541   9.502 -0.0493  1.2788 -0.1371
  116OSM   H11F12213   6.377   5.439   9.466 -1.6369  1.2838 -1.4216
  116OSM   H11G12214   6.439   5.574   9.562  0.4563 -0.7618  0.3299
  116OSM   C12F12215   6.339   5.640   9.380  0.1512  0.8219 -0.2891
  116OSM   H12F12216   6.330   5.738   9.431 -1.6043  0.0277  1.0157
  116OSM   H12G12217   6.240   5.624   9.332  0.0305 -2.8707  0.9464
  116OSM   C13F12218   6.444   5.620   9.272 -0.9822 -0.0947  0.0942
  116OSM   H13F12219   6.457   5.512   9.249  1.3613  0.2100 -0.3136
  116OSM   H13G12220   6.548   5.641   9.307 -0.9652 -1.3445  0.8364
  116OSM   C14F12221   6.425   5.695   9.139  0.5674  0.1231  0.0786
  116OSM   H14F12222   6.395   5.801   9.155 -1.6160 -0.5362  0.7834
  116OSM   H14G12223   6.332   5.660   9.089  0.3058  1.8987 -0.7598
  116OSM   C15F12224   6.554   5.680   9.044 -0.1785  0.1247  0.4504
  116OSM   H15F12225   6.573   5.577   9.004  1.8838 -0.4576  2.6646
  116OSM   H15G12226   6.639   5.714   9.107 -2.0617  2.0468  2.0760
  116OSM   C16F12227   6.535   5.768   8.924  0.5482  0.4500  1.1839
  116OSM   H16F12228   6.546   5.873   8.958  0.3299  0.6777  0.5660
  116OSM   H16G12229   6.437   5.747   8.878  1.2201 -1.3418  0.4744
  116OSM   C17F12230   6.636   5.744   8.808 -0.7841  0.0910 -0.2574
  116OSM   H17F12231   6.667   5.638   8.806  0.0045  0.3187 -0.4881
  116OSM   H17G12232   6.737   5.781   8.835 -0.7542  0.0918 -0.3721
  116OSM   C18F12233   6.591   5.793   8.662  0.5846  0.2306  0.3371
  116OSM   H18F12234   6.531   5.886   8.673  2.4442  1.9279 -2.4833
  116OSM   H18G12235   6.526   5.717   8.615 -0.0499  0.5116  0.7401
  116OSM   H18H12236   6.680   5.816   8.599 -2.3570  0.4103 -4.2311
  117OSM      N12237   3.677   6.217  11.585  0.4054  0.1349  0.0183
  117OSM    C1512238   3.688   6.311  11.699  0.3774 -0.0010  0.0730
  117OSM   H15A12239   3.594   6.317  11.752 -0.1618 -0.7522 -0.7786
  117OSM   H15B12240   3.710   6.414  11.677 -0.9320  0.0669 -1.1008
  117OSM   H15C12241   3.761   6.276  11.770  1.7072  3.2173  0.4520
  117OSM    C1412242   3.661   6.074  11.637  0.3945 -0.3292  0.0099
  117OSM   H14A12243   3.746   6.039  11.694  1.2651  0.5492 -0.7073
  117OSM   H14B12244   3.637   6.004  11.559  1.3885  0.5311 -1.1076
  117OSM   H14C12245   3.585   6.083  11.714 -0.5031  0.1541 -0.9134
  117OSM    C1312246   3.555   6.255  11.507  0.5960 -0.4881 -0.1481
  117OSM   H13A12247   3.534   6.182  11.430 -3.1762  1.4791 -1.2667
  117OSM   H13B12248   3.561   6.358  11.476 -0.8233 -0.1513  0.6190
  117OSM   H13C12249   3.473   6.263  11.577 -1.4716  0.7660 -2.5280
  117OSM    C1212250   3.804   6.220  11.493  0.0127 -0.5401  0.1354
  117OSM   H12A12251   3.810   6.144  11.416  0.9930 -0.2835 -0.0527
  117OSM   H12B12252   3.889   6.196  11.555 -0.4524 -0.8225  0.6728
  117OSM    C1112253   3.840   6.358  11.428  0.5127  0.9644 -0.3533
  117OSM   H11A12254   3.941   6.354  11.384 -0.0163 -1.0782 -1.5162
  117OSM   H11B12255   3.835   6.434  11.509  1.3866 -2.3969  3.1921
  117OSM      P12256   3.758   6.308  11.181  0.0449  0.2519  0.0780
  117OSM    O1312257   3.803   6.169  11.202  0.6302  0.2164 -0.0036
  117OSM    O1412258   3.620   6.324  11.120  0.9924  0.1653  0.1589
  117OSM    O1112259   3.858   6.382  11.089  0.0117 -0.5698  0.0370
  117OSM    O1212260   3.757   6.390  11.315  0.9073 -0.0937 -1.4557
  117OSM    C1S12261   4.000   6.365  11.075  0.7995 -0.5548 -0.1665
  117OSM    H1S12262   4.034   6.264  11.104  4.9264  0.5097 -0.6319
  117OSM    H1T12263   4.060   6.433  11.140  1.1102 -0.2224 -0.7874
  117OSM     NF12264   4.194   6.365  10.911 -0.0475  0.2315 -0.2301
  117OSM    HNF12265   4.260   6.440  10.905  1.6992 -1.3545 -2.7558
  117OSM    C2S12266   4.048   6.399  10.929 -0.9958  0.7239 -0.5141
  117OSM    H2S12267   3.985   6.337  10.863  1.6175 -2.5124 -0.2204
  117OSM    C3S12268   4.019   6.548  10.890  0.4430  0.1556 -0.0620
  117OSM    H3S12269   4.086   6.618  10.945  1.1451 -0.9492  0.5344
  117OSM     O312270   3.885   6.587  10.910 -0.4718  0.3565  0.3160
  117OSM    HO312271   3.838   6.508  10.939 -3.1300  0.3056 -3.3826
  117OSM    C4S12272   4.041   6.558  10.741 -0.3148  0.0286  0.2405
  117OSM    H4S12273   3.967   6.507  10.678  1.0764 -2.0286  0.1784
  117OSM    C5S12274   4.137   6.639  10.684 -0.1680 -0.6273 -0.5105
  117OSM    H5S12275   4.208   6.700  10.739  0.5182  1.3531 -3.3621
  117OSM    C6S12276   4.162   6.652  10.536  0.2958  0.0200 -0.1567
  117OSM    H6S12277   4.268   6.683  10.524  0.9777 -2.2020 -0.3416
  117OSM    H6T12278   4.100   6.734  10.494 -2.1864 -0.9569  1.3865
  117OSM    C7S12279   4.129   6.529  10.447 -0.2552 -0.1540 -0.0215
  117OSM    H7S12280   4.028   6.485  10.454  0.1418 -1.1255 -0.2844
  117OSM    H7T12281   4.197   6.442  10.463  1.6672  1.5114  1.4641
  117OSM    C8S12282   4.156   6.565  10.294 -0.4962  0.3995 -0.8728
  117OSM    H8S12283   4.255   6.614  10.288 -0.0933 -0.3035 -0.1644
  117OSM    H8T12284   4.080   6.640  10.263 -1.4505  0.4343  1.3927
  117OSM    C9S12285   4.138   6.449  10.195 -0.0623  0.9722  0.1601
  117OSM    H9S12286   4.032   6.417  10.181  1.2264 -3.8107 -0.7706
  117OSM    H9T12287   4.200   6.362  10.227  1.2329  1.7960 -0.0373
  117OSM   C10S12288   4.197   6.474  10.051 -0.2663 -0.0783  0.1928
  117OSM   H10S12289   4.305   6.453  10.063 -0.5263 -0.3658  2.5162
  117OSM   H10T12290   4.182   6.576  10.009 -0.0643 -1.0068 -2.2785
  117OSM   C11S12291   4.149   6.377   9.944 -0.1619 -0.2731 -0.6787
  117OSM   H11S12292   4.041   6.389   9.918 -0.6880 -1.6106  0.7247
  117OSM   H11T12293   4.165   6.271   9.976 -0.3979 -0.1495 -0.1512
  117OSM   C12S12294   4.217   6.405   9.805 -0.2310  0.5861  0.6328
  117OSM   H12S12295   4.328   6.413   9.811 -0.1708  1.5584 -1.0967
  117OSM   H12T12296   4.192   6.505   9.764  1.6909  0.1767 -1.8000
  117OSM   C13S12297   4.182   6.289   9.713  0.9405  0.0901 -0.9501
  117OSM   H13S12298   4.071   6.292   9.708  0.6309  0.1973  3.0016
  117OSM   H13T12299   4.215   6.192   9.754  2.9953  1.1492  0.0566
  117OSM   C14S12300   4.246   6.306   9.574 -0.0333 -0.2815  0.3437
  117OSM   H14S12301   4.342   6.361   9.570 -0.1977  0.0334  0.6651
  117OSM   H14T12302   4.171   6.360   9.511  2.4666  0.2073 -2.4527
  117OSM   C15S12303   4.261   6.162   9.501 -0.1084 -0.3095 -0.0185
  117OSM   H15S12304   4.176   6.105   9.543  0.0311 -0.0362  0.6459
  117OSM   H15T12305   4.355   6.119   9.543 -0.2407 -0.1721  0.4243
  117OSM   C16S12306   4.265   6.153   9.353  0.0638 -0.1067  0.6905
  117OSM   H16S12307   4.349   6.221   9.325  0.2722 -0.1182  1.2620
  117OSM   H16T12308   4.175   6.200   9.308  0.4493 -0.8576 -0.9162
  117OSM   C17S12309   4.273   6.011   9.295  0.1879  0.4357  0.5136
  117OSM   H17S12310   4.170   5.974   9.313  0.3742 -0.3906 -0.0163
  117OSM   H17T12311   4.349   5.946   9.344  0.1731  0.3422  0.4148
  117OSM   C18S12312   4.303   6.020   9.142 -0.2208  0.6476  0.7896
  117OSM   H18S12313   4.300   5.919   9.097 -0.3647  0.2924  1.5825
  117OSM   H18T12314   4.403   6.065   9.123 -0.8396  1.4647 -0.7726
  117OSM   H18U12315   4.235   6.085   9.082  3.2159  2.6601 -1.2716
  117OSM    C1F12316   4.232   6.235  10.910  0.5593 -0.6901  0.6940
  117OSM     OF12317   4.148   6.140  10.924  0.2274 -0.6782 -0.3976
  117OSM    C2F12318   4.375   6.203  10.895  0.0048  0.4633 -0.4218
  117OSM    H2F12319   4.414   6.173  10.994 -0.4242  0.9191 -0.1134
  117OSM    H2G12320   4.427   6.294  10.856  1.6640 -0.4282 -0.3669
  117OSM    C3F12321   4.399   6.087  10.799 -0.4229 -0.4358 -0.4758
  117OSM    H3F12322   4.339   5.997  10.825 -0.4038  0.5386  3.6745
  117OSM    H3G12323   4.505   6.057  10.818 -0.1039  0.9820  0.0914
  117OSM    C4F12324   4.379   6.110  10.650 -0.4256  0.0505  0.3935
  117OSM    H4F12325   4.445   6.041  10.593  0.3050 -0.7151  2.1029
  117OSM    H4G12326   4.422   6.211  10.632 -2.0288  1.2841  2.8264
  117OSM    C5F12327   4.233   6.114  10.591  0.2900  0.1861 -0.6710
  117OSM    H5F12328   4.180   6.208  10.614  1.6442  1.0478 -0.9859
  117OSM    H5G12329   4.174   6.029  10.633  0.6958 -0.5471 -1.5299
  117OSM    C6F12330   4.232   6.105  10.440  0.3025  0.4988  0.9230
  117OSM    H6F12331   4.278   6.009  10.409 -1.0182  0.4057 -0.9346
  117OSM    H6G12332   4.295   6.179  10.385  0.6723 -0.4529  0.0408
  117OSM    C7F12333   4.098   6.111  10.369  0.0550  0.0336 -0.3039
  117OSM    H7F12334   4.120   6.103  10.260 -0.7501  0.3307 -0.4960
  117OSM    H7G12335   4.045   6.207  10.387  0.0427 -0.2872  1.5428
  117OSM    C8F12336   4.001   5.999  10.414 -0.9756  0.7671  0.5080
  117OSM    H8F12337   3.952   6.006  10.514 -0.4529  1.3157  0.7317
  117OSM    H8G12338   4.056   5.903  10.405 -0.6760  1.0346 -0.6804
  117OSM    C9F12339   3.882   6.002  10.323  0.2464  1.1065 -0.3417
  117OSM    H9F12340   3.812   6.086  10.339 -0.2267  0.5126  0.8016
  117OSM   C10F12341   3.851   5.910  10.236  0.0602 -0.5303  0.3244
  117OSM   H10F12342   3.760   5.933  10.179 -0.7947 -0.6148  1.6010
  117OSM   C11F12343   3.927   5.786  10.197 -0.4669  0.3533 -0.7609
  117OSM   H11F12344   3.852   5.705  10.187  0.9123 -0.8744 -1.4652
  117OSM   H11G12345   3.975   5.755  10.293 -0.7327 -1.6408 -1.2304
  117OSM   C12F12346   4.019   5.802  10.073 -0.3333 -0.5220 -0.1442
  117OSM   H12F12347   4.092   5.719  10.070  2.3735  1.6160  1.7789
  117OSM   H12G12348   4.083   5.891  10.090 -0.1890 -0.7594  0.6084
  117OSM   C13F12349   3.947   5.829   9.944  0.2114  0.3667  0.0698
  117OSM   H13F12350   3.889   5.923   9.937 -1.2706 -0.5905 -1.7028
  117OSM   H13G12351   3.871   5.748   9.937 -0.6195  1.1160  0.2888
  117OSM   C14F12352   4.050   5.843   9.832  0.4145 -0.7773  0.4376
  117OSM   H14F12353   4.138   5.776   9.844 -0.2394 -1.8682 -0.6553
  117OSM   H14G12354   4.078   5.949   9.852 -1.3598 -0.4810  1.6608
  117OSM   C15F12355   3.996   5.842   9.689  0.0957  0.2629  0.3536
  117OSM   H15F12356   3.954   5.742   9.666 -0.0829  0.4673 -0.2358
  117OSM   H15G12357   4.087   5.855   9.627  0.2287 -0.0923  0.4736
  117OSM   C16F12358   3.903   5.959   9.640  0.0851  0.2341 -0.2985
  117OSM   H16F12359   3.946   6.047   9.692 -0.9751 -0.5566  2.1038
  117OSM   H16G12360   3.803   5.941   9.685 -0.2795  0.9241 -0.8175
  117OSM   C17F12361   3.888   5.983   9.495 -0.2172  0.1317  0.1058
  117OSM   H17F12362   3.797   5.928   9.461 -0.7625 -0.1049  1.8016
  117OSM   H17G12363   3.982   5.948   9.449  0.7689  0.3530  1.8476
  117OSM   C18F12364   3.889   6.133   9.460  0.1285 -0.7925 -0.2140
  117OSM   H18F12365   3.887   6.151   9.351  1.4727 -0.1180 -0.1522
  117OSM   H18G12366   3.977   6.188   9.499 -0.2590 -0.5396  0.3159
  117OSM   H18H12367   3.791   6.174   9.493 -0.2387 -1.8166  0.0149
  118OSM      N12368   3.417   0.935  10.974 -0.0115 -0.6678 -0.7842
  118OSM    C1512369   3.377   1.080  10.932  0.2351  0.3127  0.4701
  118OSM   H15A12370   3.359   1.143  11.018 -0.5699  0.3747  0.2615
  118OSM   H15B12371   3.288   1.077  10.871  1.1201 -3.1508 -0.8668
  118OSM   H15C12372   3.458   1.130  10.881 -1.8199  2.9132 -0.4978
  118OSM    C1412373   3.320   0.915  11.085  0.2177 -0.4256 -0.1303
  118OSM   H14A12374   3.318   0.815  11.125 -1.3043  0.1018  1.2279
  118OSM   H14B12375   3.225   0.924  11.034  0.2701  0.8695 -0.0430
  118OSM   H14C12376   3.319   0.989  11.164  0.3605 -1.9474  1.3444
  118OSM    C1312377   3.377   0.846  10.861  0.4321  0.2932  0.4881
  118OSM   H13A12378   3.357   0.746  10.895  0.1156  0.2777  0.2676
  118OSM   H13B12379   3.446   0.840  10.778  0.3084 -1.7854  0.4811
  118OSM   H13C12380   3.292   0.894  10.814  2.4266  1.8666 -1.7918
  118OSM    C1212381   3.563   0.938  11.024  0.5308  0.0223 -0.0861
  118OSM   H12A12382   3.580   0.838  11.062 -0.2397  0.6611  2.0862
  118OSM   H12B12383   3.558   0.999  11.113 -0.9084 -2.1355  1.4083
  118OSM    C1112384   3.668   0.997  10.936 -0.6279 -0.2205  1.1257
  118OSM   H11A12385   3.675   0.946  10.837 -3.2657  1.8845 -0.2667
  118OSM   H11B12386   3.771   0.994  10.978  1.1452  0.2877 -2.7089
  118OSM      P12387   3.688   1.249  11.001 -0.1462  0.2398 -0.0386
  118OSM    O1312388   3.600   1.363  10.980  0.7704  0.1792  0.1298
  118OSM    O1412389   3.699   1.187  11.138  0.5073  0.2908  0.5284
  118OSM    O1112390   3.834   1.274  10.948  0.0861  0.4331 -0.1609
  118OSM    O1212391   3.644   1.132  10.898  0.1693  0.3527  0.4343
  118OSM    C1S12392   3.872   1.300  10.815  0.3131  0.8377  0.1289
  118OSM    H1S12393   3.812   1.245  10.739  1.9588 -0.0690 -0.5719
  118OSM    H1T12394   3.981   1.286  10.805  0.9209  0.7149  4.6978
  118OSM     NF12395   3.867   1.453  10.639  0.0953  0.0529 -0.6147
  118OSM    HNF12396   3.957   1.488  10.615  0.3980  1.1796  1.8618
  118OSM    C2S12397   3.853   1.447  10.783 -0.5877  0.3265  0.1235
  118OSM    H2S12398   3.751   1.484  10.808 -0.5941 -0.2939  1.0355
  118OSM    C3S12399   3.960   1.524  10.860 -0.0702  0.2012 -0.2200
  118OSM    H3S12400   4.064   1.505  10.826  0.3721 -0.7035  1.4990
  118OSM     O312401   3.962   1.505  10.998  0.7284 -0.2656 -0.5650
  118OSM    HO312402   3.895   1.440  11.020  0.7880  0.0128  0.5216
  118OSM    C4S12403   3.936   1.671  10.831  0.5127 -0.2419  0.0872
  118OSM    H4S12404   3.837   1.716  10.845  1.5683  2.7141 -0.9655
  118OSM    C5S12405   4.022   1.764  10.793  0.0938 -1.1712 -0.5717
  118OSM    H5S12406   4.129   1.742  10.783  0.2894 -0.8345  0.6130
  118OSM    C6S12407   3.983   1.914  10.773  0.0382  0.3992 -0.2415
  118OSM    H6S12408   4.043   1.964  10.851 -0.1282 -0.5152  0.4914
  118OSM    H6T12409   3.874   1.933  10.787 -0.4115 -1.5539 -0.7422
  118OSM    C7S12410   4.025   1.970  10.634  0.3982 -0.6813  0.3575
  118OSM    H7S12411   4.125   1.932  10.606  0.0348 -1.7492  0.4585
  118OSM    H7T12412   4.028   2.079  10.657  1.3811 -0.9866  1.7838
  118OSM    C8S12413   3.912   1.933  10.530  0.0675 -0.6092  0.6056
  118OSM    H8S12414   3.807   1.945  10.565 -0.0608  1.2751 -0.2561
  118OSM    H8T12415   3.922   1.827  10.501  0.2712  0.1046 -2.2491
  118OSM    C9S12416   3.913   2.017  10.398  0.2174  0.1428  0.0353
  118OSM    H9S12417   3.905   2.123  10.429 -1.8672 -0.1310  0.5943
  118OSM    H9T12418   3.819   1.987  10.347 -0.1317 -1.8282  1.7102
  118OSM   C10S12419   4.029   1.987  10.301  0.6713  0.8897 -0.4036
  118OSM   H10S12420   4.035   1.876  10.303 -1.4873  0.7332  0.4112
  118OSM   H10T12421   4.123   2.012  10.354 -0.4049 -0.7238  2.4792
  118OSM   C11S12422   4.014   2.038  10.162  0.9540  0.3174 -0.4771
  118OSM   H11S12423   3.907   2.018  10.142  0.3770 -1.3139  3.3632
  118OSM   H11T12424   4.058   1.965  10.090 -0.0659 -1.9798  1.1313
  118OSM   C12S12425   4.051   2.179  10.133 -0.1140 -0.0389 -0.0664
  118OSM   H12S12426   4.161   2.194  10.143 -0.5314  2.3736  1.9873
  118OSM   H12T12427   4.001   2.246  10.206  0.2994 -1.8801  2.0170
  118OSM   C13S12428   4.008   2.222   9.989 -0.4845 -0.2929 -0.6815
  118OSM   H13S12429   3.906   2.179   9.981 -0.8075 -0.0124  1.3106
  118OSM   H13T12430   4.080   2.172   9.922 -0.3317  0.0857 -0.8041
  118OSM   C14S12431   4.026   2.375   9.982 -0.8387  0.5361  0.4366
  118OSM   H14S12432   4.131   2.408   9.969 -1.1382  0.6552 -2.3433
  118OSM   H14T12433   3.986   2.421  10.075 -1.2494 -0.1960  0.6332
  118OSM   C15S12434   3.941   2.431   9.872 -0.1958  0.0623  1.2619
  118OSM   H15S12435   3.966   2.539   9.874 -0.3639  0.1555 -0.5415
  118OSM   H15T12436   3.832   2.420   9.889  0.0753 -1.4789  2.2114
  118OSM   C16S12437   3.979   2.378   9.736  0.2419  0.8521  0.0841
  118OSM   H16S12438   3.954   2.270   9.728 -0.7784  1.1304 -0.5772
  118OSM   H16T12439   4.090   2.370   9.734  0.1532 -0.5447 -1.3039
  118OSM   C17S12440   3.935   2.458   9.618 -0.5733 -0.5533  0.0193
  118OSM   H17S12441   3.997   2.550   9.622  2.4775 -2.1260 -4.1897
  118OSM   H17T12442   3.825   2.471   9.630 -0.6613  0.3074 -1.4063
  118OSM   C18S12443   3.962   2.401   9.477  0.3171 -0.1090  0.1012
  118OSM   H18S12444   3.918   2.299   9.465 -2.0405  0.8933 -0.3668
  118OSM   H18T12445   4.070   2.404   9.451  0.0362  2.1150 -1.0512
  118OSM   H18U12446   3.911   2.449   9.390  0.2633 -0.0328  0.1744
  118OSM    C1F12447   3.758   1.442  10.558  0.3355 -0.2744 -0.1120
  118OSM     OF12448   3.649   1.414  10.599 -0.5520 -0.5347  0.2201
  118OSM    C2F12449   3.784   1.456  10.413  0.5592 -0.0777 -0.4890
  118OSM    H2F12450   3.893   1.449  10.395  0.4690  0.2523 -1.2092
  118OSM    H2G12451   3.747   1.559  10.392  0.7069  0.0701 -0.0283
  118OSM    C3F12452   3.705   1.348  10.334 -0.0795  0.0843  0.2832
  118OSM    H3F12453   3.599   1.380  10.340  0.2468  0.9243  1.9915
  118OSM    H3G12454   3.721   1.241  10.361 -0.2729 -0.0392 -0.0795
  118OSM    C4F12455   3.754   1.352  10.183 -0.4421  0.5326  0.8333
  118OSM    H4F12456   3.854   1.302  10.179 -0.6994  0.0232 -2.0028
  118OSM    H4G12457   3.751   1.459  10.153 -1.4611  0.7538  1.6797
  118OSM    C5F12458   3.671   1.275  10.079 -0.0382 -0.1810  0.3199
  118OSM    H5F12459   3.565   1.304  10.070  0.0856  0.1825 -0.0061
  118OSM    H5G12460   3.667   1.167  10.106 -0.8611 -0.1471  0.3500
  118OSM    C6F12461   3.726   1.280   9.938  0.1996  0.0322  0.0107
  118OSM    H6F12462   3.811   1.209   9.945  0.0450 -0.3516 -1.7349
  118OSM    H6G12463   3.766   1.382   9.919 -1.4500  0.6668 -0.1743
  118OSM    C7F12464   3.643   1.230   9.826 -0.5837 -0.3573  0.7445
  118OSM    H7F12465   3.540   1.269   9.844 -0.8429 -0.1074 -1.0175
  118OSM    H7G12466   3.632   1.120   9.831 -0.4146 -0.5365 -1.6694
  118OSM    C8F12467   3.676   1.294   9.693  0.3377  0.8974  0.3059
  118OSM    H8F12468   3.674   1.405   9.693 -0.3041  0.9018 -0.6110
  118OSM    H8G12469   3.596   1.252   9.627 -0.0702 -0.2118  1.4532
  118OSM    C9F12470   3.810   1.243   9.646 -1.0967 -0.3341 -0.0885
  118OSM    H9F12471   3.881   1.191   9.712  0.6862 -0.3190 -1.8919
  118OSM   C10F12472   3.850   1.268   9.524 -0.1207 -0.0627  0.8274
  118OSM   H10F12473   3.948   1.234   9.487 -0.9701  0.1015 -1.8110
  118OSM   C11F12474   3.771   1.348   9.426  0.5924 -0.1178  0.1493
  118OSM   H11F12475   3.678   1.394   9.466  0.4246 -0.4951  0.2047
  118OSM   H11G12476   3.731   1.282   9.345 -2.0898 -0.5699  1.6856
  118OSM   C12F12477   3.870   1.458   9.375  0.1951 -0.3474 -0.4790
  118OSM   H12F12478   3.968   1.419   9.340 -0.1505 -1.1019 -0.6117
  118OSM   H12G12479   3.886   1.532   9.457  0.4443 -0.6610 -0.2444
  118OSM   C13F12480   3.805   1.537   9.260  0.0023 -0.0988 -0.6580
  118OSM   H13F12481   3.707   1.580   9.289 -0.5119 -0.8926 -1.1833
  118OSM   H13G12482   3.783   1.457   9.186  1.5737  1.5128 -2.9782
  118OSM   C14F12483   3.902   1.647   9.219  0.5332 -0.1575  0.1540
  118OSM   H14F12484   4.003   1.602   9.211  1.2106  1.3211  0.0123
  118OSM   H14G12485   3.903   1.726   9.298 -0.1008  2.3641 -2.2036
  118OSM   C15F12486   3.876   1.716   9.084 -0.5261 -0.0091 -0.4311
  118OSM   H15F12487   3.767   1.737   9.076 -0.2683  0.7769 -2.1876
  118OSM   H15G12488   3.901   1.643   9.004 -2.2473 -1.7161  0.4930
  118OSM   C16F12489   3.955   1.846   9.054 -0.0108 -0.4240  0.0844
  118OSM   H16F12490   4.064   1.837   9.035  0.5105  3.1481  0.6904
  118OSM   H16G12491   3.943   1.909   9.145 -0.0003 -0.1590 -0.0952
  118OSM   C17F12492   3.886   1.935   8.945  0.4836  0.1409 -0.5049
  118OSM   H17F12493   3.781   1.959   8.972  0.0915  1.2961 -2.7604
  118OSM   H17G12494   3.875   1.869   8.856  0.2331  0.4563 -0.7099
  118OSM   C18F12495   3.970   2.059   8.923 -0.4581  0.6446 -0.2173
  118OSM   H18F12496   3.979   2.130   9.008  0.2543  0.7158 -0.3437
  118OSM   H18G12497   3.926   2.118   8.839  1.4201  0.9595 -1.0361
  118OSM   H18H12498   4.074   2.028   8.901 -0.5760 -0.0562  0.1909
  119OSM      N12499   5.239   0.447  11.154 -0.1699  0.1407 -0.6363
  119OSM    C1512500   5.114   0.415  11.226 -0.1552  0.1391  0.2938
  119OSM   H15A12501   5.143   0.393  11.327  1.1374 -0.6393 -0.2220
  119OSM   H15B12502   5.062   0.329  11.186  0.3910  0.2444 -0.6710
  119OSM   H15C12503   5.038   0.492  11.223 -0.0412  0.3458 -4.0327
  119OSM    C1412504   5.303   0.568  11.217 -0.6893 -0.0910 -0.3231
  119OSM   H14A12505   5.400   0.579  11.170 -0.8964 -0.5246 -0.8649
  119OSM   H14B12506   5.323   0.560  11.323 -1.2898  1.1926 -0.1035
  119OSM   H14C12507   5.247   0.658  11.198 -2.5841 -1.1058  0.2137
  119OSM    C1312508   5.333   0.332  11.184 -0.2780 -0.3377 -0.4134
  119OSM   H13A12509   5.289   0.235  11.170 -2.0652  0.1995  1.0565
  119OSM   H13B12510   5.367   0.336  11.287  0.4279 -0.8929 -0.6179
  119OSM   H13C12511   5.423   0.341  11.125 -0.0615 -1.6626 -0.3051
  119OSM    C1212512   5.226   0.469  11.003 -0.4073 -0.1877 -0.8588
  119OSM   H12A12513   5.173   0.562  10.984 -1.7689 -1.0852 -1.5968
  119OSM   H12B12514   5.159   0.395  10.964 -1.5265  0.6272 -0.5506
  119OSM    C1112515   5.347   0.473  10.913 -0.0802 -0.2680 -0.2997
  119OSM   H11A12516   5.318   0.493  10.808  1.4730  0.4160 -0.6363
  119OSM   H11B12517   5.397   0.374  10.916 -1.9774 -1.2446  2.4053
  119OSM      P12518   5.583   0.558  10.989 -0.1864  0.0275 -0.0158
  119OSM    O1312519   5.648   0.695  11.003  0.8806  0.9742  0.5031
  119OSM    O1412520   5.599   0.460  11.103  0.0966 -0.9245 -0.1679
  119OSM    O1112521   5.635   0.489  10.856 -0.1405 -0.0827 -0.1802
  119OSM    O1212522   5.430   0.579  10.964 -0.2339  0.3457  0.0918
  119OSM    C1S12523   5.595   0.537  10.729  0.4754 -0.1416 -0.6758
  119OSM    H1S12524   5.644   0.637  10.720  1.4163 -0.4519  0.6502
  119OSM    H1T12525   5.488   0.557  10.709  0.6882 -0.4259 -2.2260
  119OSM     NF12526   5.587   0.517  10.498 -0.3070 -0.8658 -0.4917
  119OSM    HNF12527   5.488   0.519  10.489 -0.3267  0.7428 -0.1954
  119OSM    C2S12528   5.643   0.448  10.610 -0.6543  0.0975  0.3847
  119OSM    H2S12529   5.754   0.441  10.601 -0.9032 -2.1319 -1.9444
  119OSM    C3S12530   5.583   0.308  10.636 -0.1273 -0.2356 -0.5066
  119OSM    H3S12531   5.475   0.322  10.661  0.8634  0.7873  4.0353
  119OSM     O312532   5.644   0.238  10.746  0.7643 -0.1933 -0.2424
  119OSM    HO312533   5.681   0.311  10.797  0.0188  0.9664 -1.3076
  119OSM    C4S12534   5.607   0.215  10.519  0.7501 -0.5018 -0.0713
  119OSM    H4S12535   5.705   0.166  10.509  1.1605  0.5558 -1.4705
  119OSM    C5S12536   5.513   0.188  10.425  0.0802 -0.0525  0.4777
  119OSM    H5S12537   5.415   0.237  10.417  0.3298  0.2711 -0.9737
  119OSM    C6S12538   5.541   0.082  10.314  0.3834 -0.3936 -0.4324
  119OSM    H6S12539   5.458   0.010  10.299  0.2400 -0.5525  0.9922
  119OSM    H6T12540   5.629   0.020  10.342 -0.2955 -1.6221 -0.9466
  119OSM    C7S12541   5.567   0.134  10.172 -0.0923 -0.2213  0.0576
  119OSM    H7S12542   5.673   0.161  10.158 -0.3596  0.0045 -1.8122
  119OSM    H7T12543   5.497   0.217  10.149 -1.8574 -2.2759 -2.5170
  119OSM    C8S12544   5.548   0.024  10.069 -0.0378 -0.1597  0.3416
  119OSM    H8S12545   5.445  -0.019  10.072 -0.6753  0.9376 -2.5588
  119OSM    H8T12546   5.609  -0.057  10.114 -0.7629  0.2962  2.2087
  119OSM    C9S12547   5.589   0.071   9.927 -0.0858  0.3077 -0.3684
  119OSM    H9S12548   5.698   0.089   9.931 -0.3184  1.5580  1.2774
  119OSM    H9T12549   5.536   0.163   9.896 -2.6388 -0.7154  0.6106
  119OSM   C10S12550   5.548  -0.034   9.821  0.3512  0.0443  0.7056
  119OSM   H10S12551   5.437  -0.042   9.824  0.3451 -2.3326 -1.6785
  119OSM   H10T12552   5.582  -0.139   9.838 -0.3680 -0.0821  1.4344
  119OSM   C11S12553   5.592   0.019   9.686  0.1622  0.2672  0.5349
  119OSM   H11S12554   5.702   0.028   9.689  0.3569 -0.2076 -2.1280
  119OSM   H11T12555   5.562   0.126   9.680  2.0893  0.7838 -0.8765
  119OSM   C12S12556   5.540  -0.063   9.574  0.4748 -0.2942  0.4701
  119OSM   H12S12557   5.429  -0.064   9.577  0.4786  0.6375  1.7468
  119OSM   H12T12558   5.566  -0.171   9.581  1.5107 -0.0850  0.0595
  119OSM   C13S12559   5.572   0.005   9.444 -0.3911  0.2629  0.0955
  119OSM   H13S12560   5.682   0.004   9.430 -0.3313  1.8114  0.2714
  119OSM   H13T12561   5.527   0.107   9.437 -1.8942 -0.2899  1.1727
  119OSM   C14S12562   5.516  -0.074   9.322  0.1986 -0.6320  0.1980
  119OSM   H14S12563   5.406  -0.087   9.330  0.2922 -0.7871  1.6628
  119OSM   H14T12564   5.567  -0.171   9.303  0.1873 -0.6167  0.0928
  119OSM   C15S12565   5.523   0.024   9.208 -0.3417  0.3831  0.2642
  119OSM   H15S12566   5.619   0.078   9.225 -0.4461  0.6615 -0.0274
  119OSM   H15T12567   5.446   0.103   9.204  1.1422  1.8599 -0.4230
  119OSM   C16S12568   5.535  -0.045   9.068 -0.8863 -0.1753  0.3213
  119OSM   H16S12569   5.432  -0.059   9.030 -1.4302  1.3929  1.1517
  119OSM   H16T12570   5.579  -0.146   9.085 -0.0111 -0.0803 -1.1844
  119OSM   C17S12571   5.634   0.031   8.970  0.0872  0.1573  0.8398
  119OSM   H17S12572   5.669  -0.042   8.894  0.1887  1.2872 -0.2144
  119OSM   H17T12573   5.726   0.057   9.027  0.8324  1.7076 -0.9902
  119OSM   C18S12574   5.582   0.148   8.892  0.2751 -0.3193  0.0434
  119OSM   H18S12575   5.495   0.124   8.826  0.7118 -1.2333 -0.2249
  119OSM   H18T12576   5.660   0.163   8.815  0.9816 -2.7898  0.1973
  119OSM   H18U12577   5.566   0.242   8.949  1.2190  0.5677 -1.1172
  119OSM    C1F12578   5.647   0.616  10.427 -0.5819  0.5440  0.3158
  119OSM     OF12579   5.763   0.655  10.459 -0.3669 -0.0001 -0.0272
  119OSM    C2F12580   5.573   0.667  10.311  0.2968 -0.6452 -0.1718
  119OSM    H2F12581   5.584   0.777  10.300  1.7060 -0.6397  0.9261
  119OSM    H2G12582   5.465   0.642  10.315  0.5178 -1.4669  2.5077
  119OSM    C3F12583   5.626   0.603  10.177  0.4714  0.2249  0.6310
  119OSM    H3F12584   5.635   0.494  10.193  0.6291  0.1538  0.0490
  119OSM    H3G12585   5.726   0.650  10.170 -0.3471  1.7488 -4.1595
  119OSM    C4F12586   5.552   0.636  10.052 -0.2624  0.5507  0.2513
  119OSM    H4F12587   5.584   0.738  10.024  1.4613 -0.3362 -1.2384
  119OSM    H4G12588   5.441   0.626  10.062 -0.2986  0.9439  0.2577
  119OSM    C5F12589   5.598   0.541   9.935 -0.2905  0.2067 -0.3690
  119OSM    H5F12590   5.572   0.434   9.954 -0.9877  0.4800  0.2786
  119OSM    H5G12591   5.708   0.546   9.948 -0.2065 -3.1759  1.1748
  119OSM    C6F12592   5.549   0.586   9.797 -0.1549 -0.5312  0.6460
  119OSM    H6F12593   5.598   0.678   9.760 -0.3724 -0.6648  0.0066
  119OSM    H6G12594   5.441   0.610   9.810  0.4482  2.9181  0.1632
  119OSM    C7F12595   5.586   0.471   9.697  0.2471  0.3415 -0.4816
  119OSM    H7F12596   5.543   0.378   9.740 -3.2313  1.2986 -1.5244
  119OSM    H7G12597   5.697   0.466   9.690  0.1996  0.4571 -1.5227
  119OSM    C8F12598   5.541   0.500   9.548 -0.0475 -0.0716 -1.6208
  119OSM    H8F12599   5.576   0.603   9.526  1.5931 -0.0217  0.8112
  119OSM    H8G12600   5.430   0.508   9.541 -0.0969 -0.5247 -1.4080
  119OSM    C9F12601   5.589   0.381   9.459 -0.0751  0.6126  0.2602
  119OSM    H9F12602   5.566   0.284   9.504 -0.2196  0.1569 -0.7873
  119OSM   C10F12603   5.639   0.393   9.339  0.0622 -0.1074  0.3681
  119OSM   H10F12604   5.653   0.302   9.279  1.9595  0.3876  0.0017
  119OSM   C11F12605   5.637   0.518   9.259 -0.1893 -0.0884 -0.2141
  119OSM   H11F12606   5.737   0.547   9.221 -0.3052 -1.2028 -1.4445
  119OSM   H11G12607   5.598   0.608   9.311  0.8465 -0.6509  1.6407
  119OSM   C12F12608   5.546   0.505   9.135 -0.1947 -0.7028  0.3136
  119OSM   H12F12609   5.593   0.438   9.060 -1.5374  1.4583 -2.6521
  119OSM   H12G12610   5.525   0.600   9.082 -0.8934 -0.5484  0.8614
  119OSM   C13F12611   5.404   0.442   9.166 -0.0751 -0.0689  0.1610
  119OSM   H13F12612   5.352   0.500   9.246  0.7615 -0.0365  0.6884
  119OSM   H13G12613   5.426   0.337   9.194  2.5953  0.3545 -0.1454
  119OSM   C14F12614   5.314   0.442   9.041 -0.2937 -0.1819 -0.2989
  119OSM   H14F12615   5.386   0.412   8.962 -0.0754 -0.5051  0.0176
  119OSM   H14G12616   5.280   0.545   9.019  0.2705  0.7213  2.7162
  119OSM   C15F12617   5.199   0.334   9.038  0.5827 -1.2105  0.2687
  119OSM   H15F12618   5.148   0.330   9.137  2.7100  0.5648  1.5338
  119OSM   H15G12619   5.243   0.232   9.042 -1.5635 -2.2074 -0.0998
  119OSM   C16F12620   5.099   0.330   8.913 -0.1784 -0.5371  0.3133
  119OSM   H16F12621   5.160   0.311   8.822 -0.6160  0.6381 -0.2400
  119OSM   H16G12622   5.048   0.427   8.894 -0.3044 -0.3660  1.4707
  119OSM   C17F12623   4.993   0.221   8.929  0.5921  0.0055  0.2683
  119OSM   H17F12624   4.950   0.227   9.032  0.3672 -1.0360  0.2437
  119OSM   H17G12625   5.040   0.121   8.931  0.5041 -0.0319  0.5954
  119OSM   C18F12626   4.895   0.210   8.807  0.4502  0.2784  0.1006
  119OSM   H18F12627   4.821   0.293   8.795  1.3159  0.7899 -2.3099
  119OSM   H18G12628   4.826   0.123   8.817 -0.9791  1.1264 -1.5977
  119OSM   H18H12629   4.946   0.205   8.709 -0.0371  1.9962 -0.2884
  120OSM      N12630   3.676   3.656  10.787 -0.0295  0.4799  0.1023
  120OSM    C1512631   3.751   3.630  10.919  1.1767 -0.3126  0.0808
  120OSM   H15A12632   3.856   3.625  10.895  1.0333  0.0523 -0.6514
  120OSM   H15B12633   3.718   3.541  10.970  1.3507  1.3043  3.2573
  120OSM   H15C12634   3.732   3.706  10.993  0.6710  1.0136 -1.3528
  120OSM    C1412635   3.758   3.749  10.709  0.1198 -0.0862  0.1936
  120OSM   H14A12636   3.865   3.749  10.724  0.5974  3.1509 -2.3602
  120OSM   H14B12637   3.738   3.852  10.735  2.8288  0.7752 -0.8706
  120OSM   H14C12638   3.739   3.744  10.603  1.7940  3.6912 -0.4214
  120OSM    C1312639   3.671   3.529  10.720 -0.2252 -0.0554  0.3882
  120OSM   H13A12640   3.618   3.533  10.626 -1.5085 -0.4076  1.0736
  120OSM   H13B12641   3.618   3.460  10.784 -1.1269  0.3810  0.1311
  120OSM   H13C12642   3.766   3.492  10.685  0.4130  1.5053  0.3809
  120OSM    C1212643   3.542   3.710  10.821  0.7822 -0.2550  0.5608
  120OSM   H12A12644   3.552   3.801  10.878  2.3324 -0.0199 -0.0151
  120OSM   H12B12645   3.498   3.638  10.888  0.8859 -0.5070  0.3634
  120OSM    C1112646   3.430   3.737  10.709 -0.9543 -0.1709  0.7251
  120OSM   H11A12647   3.337   3.782  10.751 -0.8970  1.5243 -0.8203
  120OSM   H11B12648   3.397   3.641  10.664 -1.1861  0.0125  0.5009
  120OSM      P12649   3.459   3.974  10.606  0.1153  0.3029  0.1505
  120OSM    O1312650   3.316   4.002  10.597  0.7293 -0.4544  0.6330
  120OSM    O1412651   3.536   4.044  10.707  0.4374  0.3797 -0.0404
  120OSM    O1112652   3.510   4.019  10.468 -0.8149  0.0521  1.2220
  120OSM    O1212653   3.490   3.823  10.609 -0.2206  0.6323 -0.1319
  120OSM    C1S12654   3.657   4.032  10.466  0.8087  0.1739 -0.0441
  120OSM    H1S12655   3.711   3.947  10.513 -0.4200 -0.1036  0.9278
  120OSM    H1T12656   3.693   4.121  10.522  2.9888 -0.8693  0.3304
  120OSM     NF12657   3.858   3.990  10.320 -0.1785  0.3577  0.2106
  120OSM    HNF12658   3.926   4.062  10.311  0.6586 -0.5584 -1.3274
  120OSM    C2S12659   3.717   4.029  10.320  0.0820 -0.4530 -0.2575
  120OSM    H2S12660   3.657   3.950  10.269 -1.1401  0.1835  0.1593
  120OSM    C3S12661   3.682   4.163  10.249 -0.3374 -0.2355  0.6226
  120OSM    H3S12662   3.742   4.240  10.303  0.4627 -0.6987  0.4182
  120OSM     O312663   3.543   4.197  10.246  0.3136  0.3260  0.0311
  120OSM    HO312664   3.512   4.127  10.304  1.8762 -0.0918  0.3989
  120OSM    C4S12665   3.729   4.155  10.110 -0.3581 -0.2158  0.8111
  120OSM    H4S12666   3.688   4.074  10.048  0.7202 -1.2374  1.3800
  120OSM    C5S12667   3.806   4.241  10.052 -0.1984  0.1371  0.2521
  120OSM    H5S12668   3.831   4.332  10.109  2.4978 -0.4874  0.2002
  120OSM    C6S12669   3.857   4.244   9.910 -0.1187 -0.0034  0.1670
  120OSM    H6S12670   3.965   4.271   9.905  0.6167 -2.2701  2.1585
  120OSM    H6T12671   3.797   4.321   9.858 -1.4778  0.4328  2.3022
  120OSM    C7S12672   3.842   4.116   9.826  0.2401  0.0241  0.7939
  120OSM    H7S12673   3.737   4.081   9.815  1.2807 -3.1602 -0.0149
  120OSM    H7T12674   3.886   4.027   9.876  0.6675 -1.5209 -2.1221
  120OSM    C8S12675   3.882   4.133   9.673 -0.3071 -0.1489 -0.3350
  120OSM    H8S12676   3.806   4.203   9.631  0.6599  1.4710  0.5121
  120OSM    H8T12677   3.866   4.036   9.622 -0.9353  0.1645 -0.7515
  120OSM    C9S12678   4.029   4.180   9.643  0.3850  0.0467  0.0923
  120OSM    H9S12679   4.114   4.136   9.699 -0.4773 -1.0700  0.5602
  120OSM    H9T12680   4.033   4.289   9.663 -1.1120  0.1526 -0.0551
  120OSM   C10S12681   4.066   4.173   9.496  0.1097  0.2406  0.3875
  120OSM   H10S12682   4.070   4.065   9.468 -0.4413 -0.2876  2.1843
  120OSM   H10T12683   4.159   4.228   9.468 -0.2464  0.2882 -0.7542
  120OSM   C11S12684   3.972   4.241   9.396 -0.6930  0.6305 -0.2258
  120OSM   H11S12685   3.929   4.326   9.452 -1.3991 -0.2123  0.5494
  120OSM   H11T12686   3.888   4.174   9.369  0.6008 -0.5409 -1.5491
  120OSM   C12S12687   4.038   4.292   9.263 -0.5200  0.7043 -0.4021
  120OSM   H12S12688   4.135   4.343   9.279  0.5814  0.8845 -5.7656
  120OSM   H12T12689   3.963   4.367   9.228 -0.1740  1.7411  0.9891
  120OSM   C13S12690   4.065   4.185   9.165 -0.6472  0.5423 -0.3287
  120OSM   H13S12691   3.976   4.119   9.159  0.4301 -1.2425  2.0043
  120OSM   H13T12692   4.144   4.123   9.211 -0.1981 -0.7525 -2.6490
  120OSM   C14S12693   4.098   4.240   9.020 -0.3277  0.4146  0.0020
  120OSM   H14S12694   4.186   4.307   9.022 -1.1319  1.5168 -0.5458
  120OSM   H14T12695   4.007   4.296   8.989 -0.3399  1.1672  1.3549
  120OSM   C15S12696   4.138   4.127   8.916 -0.6386  1.0070 -0.5214
  120OSM   H15S12697   4.143   4.178   8.817 -1.0408  1.7204 -0.1815
  120OSM   H15T12698   4.059   4.049   8.928 -1.3496  1.4716 -1.9316
  120OSM   C16S12699   4.278   4.067   8.933  0.1390  0.1401  0.3757
  120OSM   H16S12700   4.285   4.034   9.038 -0.8133  3.5532  1.6641
  120OSM   H16T12701   4.350   4.151   8.942 -0.2883  0.3302  2.5856
  120OSM   C17S12702   4.318   3.961   8.823 -0.3454  0.1124 -1.6159
  120OSM   H17S12703   4.359   4.018   8.737  0.9876  3.2251  0.8782
  120OSM   H17T12704   4.220   3.920   8.790 -0.7321  1.0631 -1.6904
  120OSM   C18S12705   4.426   3.858   8.870  0.2503  0.1343 -0.2747
  120OSM   H18S12706   4.376   3.769   8.915  0.3617 -0.6088 -1.5844
  120OSM   H18T12707   4.490   3.907   8.947  0.5184 -3.8221  2.3562
  120OSM   H18U12708   4.500   3.838   8.790  0.5086 -2.1643  0.4599
  120OSM    C1F12709   3.900   3.862  10.321  0.3291 -0.2219 -0.0957
  120OSM     OF12710   3.821   3.772  10.350  0.2569 -0.4537 -0.1363
  120OSM    C2F12711   4.038   3.831  10.290  0.0682 -0.2251  0.3427
  120OSM    H2F12712   4.101   3.802  10.377 -0.0922 -0.9159  0.2384
  120OSM    H2G12713   4.078   3.919  10.236 -1.5954  0.5408  0.2896
  120OSM    C3F12714   4.041   3.720  10.182  0.0085 -0.0508 -0.2581
  120OSM    H3F12715   4.008   3.625  10.228 -0.1273 -0.5166 -1.2944
  120OSM    H3G12716   4.142   3.686  10.151 -0.9699 -2.3449 -1.1500
  120OSM    C4F12717   3.943   3.742  10.061  0.4525  0.7550  0.1755
  120OSM    H4F12718   3.967   3.842  10.017 -0.3966  0.5036 -0.9122
  120OSM    H4G12719   3.837   3.747  10.095  0.0557  1.7387 -1.1242
  120OSM    C5F12720   3.971   3.642   9.945  0.4577 -0.2173  0.1170
  120OSM    H5F12721   3.930   3.542   9.973 -2.9828  0.9995 -0.0630
  120OSM    H5G12722   4.082   3.636   9.939  0.5273 -0.3954  1.3861
  120OSM    C6F12723   3.909   3.695   9.815 -0.0844  0.4562 -0.0580
  120OSM    H6F12724   3.954   3.796   9.799  1.2488  0.0021  0.6554
  120OSM    H6G12725   3.804   3.723   9.838  0.4542  0.5198  2.7174
  120OSM    C7F12726   3.925   3.598   9.703 -0.3336  0.2101  0.4164
  120OSM    H7F12727   3.876   3.501   9.724 -4.5458  1.5414 -2.0644
  120OSM    H7G12728   4.034   3.581   9.693 -0.2156  0.9566  0.3570
  120OSM    C8F12729   3.860   3.638   9.573 -0.3010  0.2758  0.7690
  120OSM    H8F12730   3.753   3.625   9.599 -0.5874 -0.0910 -0.4925
  120OSM    H8G12731   3.875   3.558   9.497 -1.3749  1.6208 -0.9614
  120OSM    C9F12732   3.896   3.775   9.521  0.0461  0.8101  0.0349
  120OSM    H9F12733   3.911   3.856   9.594 -0.5905 -1.8828  3.4922
  120OSM   C10F12734   3.903   3.807   9.394 -0.1592 -0.2986  0.0013
  120OSM   H10F12735   3.916   3.913   9.369 -1.4256 -0.4308 -1.3792
  120OSM   C11F12736   3.881   3.721   9.273  0.2950 -0.2707  0.1145
  120OSM   H11F12737   3.780   3.745   9.233  0.2015 -1.4667 -0.3866
  120OSM   H11G12738   3.882   3.610   9.275  0.2412 -0.3140 -1.1532
  120OSM   C12F12739   3.986   3.749   9.158  0.3848  0.2659 -0.2546
  120OSM   H12F12740   4.086   3.708   9.184  0.5553  0.6175 -0.3563
  120OSM   H12G12741   3.996   3.860   9.158 -1.7507  0.6432  3.5430
  120OSM   C13F12742   3.959   3.686   9.021 -0.1705  0.2790  0.1170
  120OSM   H13F12743   3.891   3.750   8.960 -1.0304  0.0556  0.8090
  120OSM   H13G12744   3.916   3.584   9.025  1.2483 -0.2972  2.1100
  120OSM   C14F12745   4.099   3.677   8.949  0.0503 -0.2471 -0.2042
  120OSM   H14F12746   4.170   3.622   9.014  2.0079  1.6133 -0.6729
  120OSM   H14G12747   4.142   3.778   8.937 -2.6773  0.9494 -0.6673
  120OSM   C15F12748   4.096   3.604   8.808  0.7938 -0.4150  0.7574
  120OSM   H15F12749   4.025   3.655   8.739  2.8200  0.0926 -1.0569
  120OSM   H15G12750   4.056   3.501   8.821  0.2672 -0.1817  1.0351
  120OSM   C16F12751   4.224   3.606   8.727  0.1446  0.3606 -0.2778
  120OSM   H16F12752   4.321   3.573   8.771  0.4955 -0.7270 -1.7632
  120OSM   H16G12753   4.239   3.705   8.680 -0.4540 -0.5089 -2.4825
  120OSM   C17F12754   4.219   3.506   8.614 -0.0195  0.2912 -0.2385
  120OSM   H17F12755   4.175   3.416   8.662 -2.4751  2.3202  1.6071
  120OSM   H17G12756   4.317   3.496   8.563 -0.0896  0.4562 -0.4071
  120OSM   C18F12757   4.130   3.567   8.512 -0.8012  0.1780 -0.0194
  120OSM   H18F12758   4.036   3.598   8.562 -0.8219 -2.6792  1.9479
  120OSM   H18G12759   4.103   3.482   8.446 -0.7084  0.2049 -0.0922
  120OSM   H18H12760   4.186   3.651   8.466  1.6361 -1.0769  0.5203
  121OSM      N12761   3.124   0.417  10.878  0.3617  0.2131 -0.3739
  121OSM    C1512762   3.064   0.279  10.857  0.3020 -1.0736 -0.2680
  121OSM   H15A12763   3.130   0.202  10.892 -0.1799 -1.1919  0.3915
  121OSM   H15B12764   3.054   0.260  10.751  0.8662 -2.2087 -0.1326
  121OSM   H15C12765   2.972   0.264  10.911  0.6638  1.9669  1.4556
  121OSM    C1412766   3.241   0.433  10.784 -0.2798  0.4870 -0.2580
  121OSM   H14A12767   3.291   0.525  10.807  2.2355 -1.2136  1.6561
  121OSM   H14B12768   3.214   0.431  10.679  1.5439 -0.9036 -0.7453
  121OSM   H14C12769   3.305   0.349  10.806 -0.4991  0.2941 -0.3469
  121OSM    C1312770   3.030   0.530  10.844  0.4496 -0.8594 -0.4945
  121OSM   H13A12771   3.065   0.630  10.861  0.8736 -1.0602 -0.1657
  121OSM   H13B12772   2.938   0.521  10.900  0.2334 -1.0957 -0.8810
  121OSM   H13C12773   2.986   0.514  10.747  2.1470 -0.7534 -1.3122
  121OSM    C1212774   3.162   0.431  11.030  0.0579  0.1620  0.3568
  121OSM   H12A12775   3.244   0.365  11.051  0.0580  0.5303  1.6247
  121OSM   H12B12776   3.076   0.396  11.085  1.1477  0.2476  2.2019
  121OSM    C1112777   3.208   0.568  11.084 -0.0300  0.6219  0.3335
  121OSM   H11A12778   3.211   0.577  11.195  0.3859  1.5799  0.2528
  121OSM   H11B12779   3.130   0.641  11.056 -2.4746 -1.8118  0.4439
  121OSM      P12780   3.473   0.574  11.102 -0.1902  0.6331  0.9915
  121OSM    O1312781   3.478   0.647  11.226  0.0047 -0.4639  0.3863
  121OSM    O1412782   3.493   0.430  11.119  0.1695  0.4776  0.1596
  121OSM    O1112783   3.583   0.630  10.997 -0.1950 -0.0883 -0.1378
  121OSM    O1212784   3.339   0.603  11.029  0.2309 -0.2700 -0.8424
  121OSM    C1S12785   3.676   0.533  10.941  0.3419 -0.2578  0.5191
  121OSM    H1S12786   3.614   0.445  10.915  0.1608 -1.2787  3.8219
  121OSM    H1T12787   3.749   0.492  11.015  1.5238 -1.0687 -1.0532
  121OSM     NF12788   3.773   0.474  10.717  0.1321 -1.1061  0.1774
  121OSM    HNF12789   3.869   0.449  10.702 -0.0660 -1.4396 -0.5988
  121OSM    C2S12790   3.747   0.580  10.814  0.6858 -0.4476 -0.1564
  121OSM    H2S12791   3.672   0.643  10.761  1.7434  0.3940 -0.7043
  121OSM    C3S12792   3.876   0.659  10.845  0.9696 -0.4299 -1.1572
  121OSM    H3S12793   3.959   0.588  10.867  0.1369 -1.1648 -0.2678
  121OSM     O312794   3.868   0.741  10.961  0.3318  0.3241 -0.3484
  121OSM    HO312795   3.777   0.726  10.987  1.0998 -0.1748  2.3211
  121OSM    C4S12796   3.920   0.745  10.728  0.7820 -0.3523 -0.4340
  121OSM    H4S12797   3.838   0.808  10.689  1.2089  1.2917  1.1662
  121OSM    C5S12798   4.044   0.756  10.678 -0.7571 -0.5100  0.1141
  121OSM    H5S12799   4.128   0.700  10.722 -0.6272 -0.4301 -0.0314
  121OSM    C6S12800   4.086   0.851  10.564  0.0627  0.0294  0.5094
  121OSM    H6S12801   4.138   0.939  10.608  0.3863 -0.8748  1.9901
  121OSM    H6T12802   3.998   0.894  10.511  2.6107  1.7358 -2.6421
  121OSM    C7S12803   4.155   0.777  10.447 -0.0390  0.0633 -0.2566
  121OSM    H7S12804   4.077   0.712  10.401 -0.5052 -0.4783  1.2517
  121OSM    H7T12805   4.218   0.693  10.483 -2.1794 -0.3495  2.8351
  121OSM    C8S12806   4.228   0.866  10.348  0.2602 -0.8600 -0.4931
  121OSM    H8S12807   4.306   0.908  10.415  0.6075 -1.4426 -0.5203
  121OSM    H8T12808   4.159   0.938  10.300 -0.7867 -1.7865 -0.4283
  121OSM    C9S12809   4.304   0.792  10.239  0.7720 -0.4495 -0.7970
  121OSM    H9S12810   4.251   0.707  10.191 -1.1059 -0.1919  0.7070
  121OSM    H9T12811   4.386   0.737  10.290  0.2808 -0.1814  0.3001
  121OSM   C10S12812   4.355   0.882  10.122 -0.6362 -0.4931 -1.2758
  121OSM   H10S12813   4.425   0.816  10.067  1.6123  1.2107 -0.6077
  121OSM   H10T12814   4.405   0.976  10.155 -1.5208 -0.7860  1.1085
  121OSM   C11S12815   4.240   0.903  10.030  0.5927  0.2502  0.4854
  121OSM   H11S12816   4.162   0.963  10.080  0.0932 -0.1161  0.1668
  121OSM   H11T12817   4.191   0.806  10.004  1.6351 -0.0613 -0.3929
  121OSM   C12S12818   4.282   0.980   9.908 -0.0929 -0.3045  0.3152
  121OSM   H12S12819   4.358   0.920   9.853 -0.2468 -1.8849  1.7238
  121OSM   H12T12820   4.330   1.076   9.937 -1.4051  0.6644 -0.6358
  121OSM   C13S12821   4.157   1.009   9.819 -0.6362  0.0382  0.3243
  121OSM   H13S12822   4.069   1.055   9.869 -2.6067  0.2503 -3.0395
  121OSM   H13T12823   4.122   0.906   9.795  3.1149 -1.8085  1.8626
  121OSM   C14S12824   4.177   1.092   9.687 -0.1176 -0.4718  0.4636
  121OSM   H14S12825   4.105   1.069   9.606 -1.5878  0.4795  1.4430
  121OSM   H14T12826   4.273   1.060   9.640 -0.9623 -1.4602 -0.6149
  121OSM   C15S12827   4.185   1.247   9.705 -0.1564 -0.4334 -0.4527
  121OSM   H15S12828   4.243   1.257   9.799 -1.4169 -0.9684  0.4030
  121OSM   H15T12829   4.083   1.290   9.718  0.5986  1.3991 -0.2617
  121OSM   C16S12830   4.254   1.319   9.598 -0.1747  0.4705  0.2862
  121OSM   H16S12831   4.211   1.295   9.498  1.2501  2.8334 -1.0003
  121OSM   H16T12832   4.359   1.285   9.608 -0.1122  0.7318  0.5127
  121OSM   C17S12833   4.267   1.470   9.620  0.4979 -0.2742 -0.0232
  121OSM   H17S12834   4.168   1.512   9.648  0.1801  0.3863 -1.9939
  121OSM   H17T12835   4.294   1.512   9.521 -0.6706 -1.4375 -0.8704
  121OSM   C18S12836   4.359   1.524   9.727  0.3499  0.4866 -0.1078
  121OSM   H18S12837   4.460   1.477   9.725 -0.1557 -0.7234  1.0389
  121OSM   H18T12838   4.317   1.501   9.828 -0.4993 -0.5621 -0.6745
  121OSM   H18U12839   4.376   1.633   9.718  1.3950  0.2437 -1.2535
  121OSM    C1F12840   3.682   0.408  10.648  0.1647  0.0734 -0.0088
  121OSM     OF12841   3.565   0.440  10.649  0.3262  0.2276  0.2285
  121OSM    C2F12842   3.734   0.288  10.565  0.2861  0.2899 -0.1227
  121OSM    H2F12843   3.661   0.204  10.572  0.2430  0.2677 -0.7843
  121OSM    H2G12844   3.826   0.243  10.610 -1.3690 -1.5359  1.6569
  121OSM    C3F12845   3.742   0.332  10.416 -0.1268 -0.6601 -0.6383
  121OSM    H3F12846   3.821   0.408  10.401 -1.3443  0.5343 -1.1958
  121OSM    H3G12847   3.651   0.393  10.398  0.3488 -0.4794 -2.6423
  121OSM    C4F12848   3.749   0.206  10.323 -0.0658 -0.9643 -0.9116
  121OSM    H4F12849   3.653   0.151  10.330 -0.4125 -0.2016  1.2989
  121OSM    H4G12850   3.831   0.145  10.368 -1.4131 -1.3267  1.2223
  121OSM    C5F12851   3.792   0.251  10.188  0.2385 -0.2160  0.2776
  121OSM    H5F12852   3.878   0.320  10.204 -1.6387  2.2298  0.3104
  121OSM    H5G12853   3.711   0.316  10.150  0.5650 -0.4882 -0.9339
  121OSM    C6F12854   3.815   0.151  10.077 -0.1526  0.6699  0.4675
  121OSM    H6F12855   3.725   0.086  10.070 -1.0416  1.9714 -0.8650
  121OSM    H6G12856   3.916   0.105  10.076  0.5459  2.0505  2.5843
  121OSM    C7F12857   3.803   0.214   9.935  0.4663 -0.5213 -0.5123
  121OSM    H7F12858   3.883   0.291   9.926  1.6601 -1.3791  1.9022
  121OSM    H7G12859   3.708   0.271   9.925  0.4799 -0.4350 -0.1478
  121OSM    C8F12860   3.814   0.119   9.816  0.3336  0.4542 -0.1399
  121OSM    H8F12861   3.777   0.172   9.726  2.3754 -1.7213 -2.3994
  121OSM    H8G12862   3.755   0.026   9.829 -2.6782  1.8959 -2.3918
  121OSM    C9F12863   3.958   0.101   9.786 -0.5531  0.1255  0.2269
  121OSM    H9F12864   4.030   0.143   9.858 -0.2173  1.4539 -0.8323
  121OSM   C10F12865   4.007   0.044   9.674  0.6969  1.1038  0.0988
  121OSM   H10F12866   4.114   0.030   9.654  0.4104 -1.9237  0.3414
  121OSM   C11F12867   3.920  -0.010   9.559 -0.1052  0.9142 -0.1804
  121OSM   H11F12868   3.921   0.067   9.479 -1.2075  1.8092  0.6184
  121OSM   H11G12869   3.812  -0.020   9.586 -0.3776 -0.9406 -1.7750
  121OSM   C12F12870   4.001  -0.125   9.494 -0.2777  0.1035 -0.2909
  121OSM   H12F12871   3.987  -0.217   9.556  0.0065  1.9349  2.7247
  121OSM   H12G12872   4.111  -0.109   9.487 -0.0056 -0.7060  1.4737
  121OSM   C13F12873   3.955  -0.146   9.353 -0.6679 -0.2356 -0.3667
  121OSM   H13F12874   3.983  -0.054   9.298  2.5134 -0.9241 -0.0693
  121OSM   H13G12875   3.844  -0.157   9.350 -0.6585 -0.1611 -1.8698
  121OSM   C14F12876   4.022  -0.263   9.287 -0.2137  0.0541 -0.4959
  121OSM   H14F12877   4.006  -0.361   9.338 -0.5588  0.6680  0.6146
  121OSM   H14G12878   4.125  -0.229   9.265 -0.3884  1.7244  1.0083
  121OSM   C15F12879   3.948  -0.300   9.159 -0.1064 -0.0331  0.4039
  121OSM   H15F12880   3.935  -0.214   9.089  0.1150 -0.9058 -0.7514
  121OSM   H15G12881   3.844  -0.335   9.176  0.2155 -2.2800 -1.6706
  121OSM   C16F12882   4.011  -0.420   9.081 -0.0842 -0.3452 -0.5794
  121OSM   H16F12883   3.943  -0.444   8.998  1.9469  0.0178 -2.4482
  121OSM   H16G12884   4.006  -0.504   9.153  0.6517 -0.5535 -0.7587
  121OSM   C17F12885   4.155  -0.391   9.033  0.4661  0.0684 -0.1615
  121OSM   H17F12886   4.199  -0.486   8.996 -0.9687 -0.9048  0.5333
  121OSM   H17G12887   4.207  -0.357   9.125  0.1112  0.8115 -0.2302
  121OSM   C18F12888   4.155  -0.285   8.921  0.6617 -0.7656  0.3830
  121OSM   H18F12889   4.259  -0.256   8.898 -0.0208 -0.1330 -2.2966
  121OSM   H18G12890   4.092  -0.199   8.954 -0.5920 -1.5558  0.1230
  121OSM   H18H12891   4.097  -0.319   8.832 -1.0171 -0.3407  1.2598
  122OSM      N12892   3.040   5.224  11.348  0.0476  0.2590  0.4902
  122OSM    C1512893   3.015   5.114  11.448  0.7035 -0.3208  0.3664
  122OSM   H15A12894   3.099   5.080  11.508 -0.1710 -2.2070  0.5747
  122OSM   H15B12895   2.974   5.026  11.400  0.9620 -0.4504  0.3818
  122OSM   H15C12896   2.934   5.136  11.516  0.9197 -2.6647  1.4997
  122OSM    C1412897   2.912   5.261  11.277  0.0899  0.0875 -0.4614
  122OSM   H14A12898   2.827   5.284  11.340 -0.3218  0.8271 -1.2534
  122OSM   H14B12899   2.876   5.185  11.209  0.0513  0.5328 -0.9469
  122OSM   H14C12900   2.923   5.345  11.209  1.7472  1.8692  1.8478
  122OSM    C1312901   3.074   5.353  11.421  0.1852 -0.3090  0.9161
  122OSM   H13A12902   3.167   5.346  11.475  0.9280  1.5706 -0.0212
  122OSM   H13B12903   2.994   5.391  11.482  1.0436  1.5850  0.9168
  122OSM   H13C12904   3.082   5.438  11.356 -1.1311  0.2073  1.4077
  122OSM    C1212905   3.151   5.189  11.250  1.3648 -0.1734  0.3131
  122OSM   H12A12906   3.123   5.093  11.208  0.4989  0.3811 -0.3995
  122OSM   H12B12907   3.244   5.163  11.298 -0.0626  0.0986  3.4666
  122OSM    C1112908   3.179   5.282  11.129  0.0379  0.0173  0.7420
  122OSM   H11A12909   3.282   5.274  11.088 -0.3884 -0.3128 -0.2899
  122OSM   H11B12910   3.179   5.387  11.163 -1.3493 -0.0486  0.9726
  122OSM      P12911   3.088   5.124  10.940  0.2784 -0.1992  0.0132
  122OSM    O1312912   3.170   5.022  11.002 -0.1836  0.0459  0.3190
  122OSM    O1412913   2.949   5.086  10.908 -0.3166  0.2549  0.1624
  122OSM    O1112914   3.164   5.170  10.803  0.4563 -0.0989  0.8937
  122OSM    O1212915   3.080   5.258  11.024 -0.0545  0.0480 -0.8551
  122OSM    C1S12916   3.276   5.261  10.798  0.0437  0.0198  0.0047
  122OSM    H1S12917   3.359   5.223  10.861  1.7464 -0.3580 -2.3215
  122OSM    H1T12918   3.251   5.365  10.828  1.1446  1.0297 -2.3174
  122OSM     NF12919   3.454   5.352  10.651  0.3906 -0.1809 -0.7019
  122OSM    HNF12920   3.443   5.446  10.621 -0.6022  0.0973  0.4382
  122OSM    C2S12921   3.337   5.265  10.651 -0.6682  0.0875  0.4338
  122OSM    H2S12922   3.369   5.159  10.637 -1.9513 -0.4484  1.3152
  122OSM    C3S12923   3.230   5.294  10.533 -0.2974  0.2523  0.3817
  122OSM    H3S12924   3.201   5.400  10.550 -0.0743  0.0440  2.1762
  122OSM     O312925   3.108   5.216  10.537  0.1635 -0.0748 -0.4343
  122OSM    HO312926   3.097   5.175  10.624 -0.1001 -0.4203 -0.6254
  122OSM    C4S12927   3.293   5.279  10.400  0.3543  0.3191 -0.0739
  122OSM    H4S12928   3.349   5.368  10.367  0.0460  0.2733 -0.7347
  122OSM    C5S12929   3.284   5.179  10.312  0.0532  0.1668  0.0364
  122OSM    H5S12930   3.223   5.089  10.327 -0.4525  0.5046  0.0455
  122OSM    C6S12931   3.353   5.188  10.176 -0.5909 -0.5991  0.0659
  122OSM    H6S12932   3.456   5.148  10.184 -0.9297 -1.2474  1.3847
  122OSM    H6T12933   3.370   5.296  10.153  3.4522 -0.5897  2.1509
  122OSM    C7S12934   3.279   5.115  10.062  0.0927 -0.4747 -0.1927
  122OSM    H7S12935   3.187   5.175  10.045 -0.6500 -0.9931  1.6856
  122OSM    H7T12936   3.254   5.016  10.105  0.0513  0.5827  2.4129
  122OSM    C8S12937   3.367   5.089   9.940 -0.6804  0.3815 -0.3845
  122OSM    H8S12938   3.457   5.030   9.967  0.5367  1.2040 -2.3640
  122OSM    H8T12939   3.400   5.176   9.878 -2.3124  0.2237 -1.5386
  122OSM    C9S12940   3.291   4.995   9.846 -0.5503  0.0173  0.5121
  122OSM    H9S12941   3.208   5.050   9.798  0.0128  0.6146  0.1973
  122OSM    H9T12942   3.248   4.918   9.913 -0.0418 -0.3505  0.4285
  122OSM   C10S12943   3.380   4.934   9.737 -0.5486 -0.4212  0.6275
  122OSM   H10S12944   3.467   4.882   9.782  0.1256 -0.7323 -0.9656
  122OSM   H10T12945   3.424   5.009   9.669  0.1153 -1.1378  0.2478
  122OSM   C11S12946   3.317   4.823   9.661  0.0647  0.9539  0.8875
  122OSM   H11S12947   3.217   4.859   9.628  0.5220 -0.4581 -2.5052
  122OSM   H11T12948   3.304   4.739   9.732 -0.9451 -0.5515 -0.9686
  122OSM   C12S12949   3.392   4.773   9.539  0.0918  0.7892 -0.7419
  122OSM   H12S12950   3.367   4.668   9.514  0.6769  0.5519 -0.3515
  122OSM   H12T12951   3.502   4.776   9.557  0.1029  1.7024 -0.9077
  122OSM   C13S12952   3.360   4.849   9.408 -0.2813 -0.4266 -0.4112
  122OSM   H13S12953   3.379   4.958   9.419 -2.1071 -0.0853 -0.3390
  122OSM   H13T12954   3.251   4.845   9.389 -0.6256  2.9072  0.2291
  122OSM   C14S12955   3.419   4.788   9.279 -0.6366 -0.2376 -0.3424
  122OSM   H14S12956   3.524   4.755   9.286 -0.9653 -1.4686 -1.0286
  122OSM   H14T12957   3.406   4.857   9.193 -0.4810 -0.5705 -0.6329
  122OSM   C15S12958   3.334   4.678   9.226  0.0850  0.3687 -0.1806
  122OSM   H15S12959   3.232   4.721   9.210  1.0546  3.0923  0.3323
  122OSM   H15T12960   3.327   4.598   9.302 -2.8233  0.6289 -0.0536
  122OSM   C16S12961   3.386   4.613   9.092 -0.1619  0.3845 -0.6377
  122OSM   H16S12962   3.332   4.519   9.068 -0.7036  0.5526 -0.1125
  122OSM   H16T12963   3.493   4.582   9.098  0.2874  1.7955 -1.0823
  122OSM   C17S12964   3.372   4.710   8.967 -0.1077 -0.3126 -0.1512
  122OSM   H17S12965   3.444   4.791   8.994 -1.2480  0.2228  1.4685
  122OSM   H17T12966   3.268   4.748   8.971 -0.9024 -2.1868 -1.6834
  122OSM   C18S12967   3.398   4.654   8.831  0.4489  0.1629  0.2082
  122OSM   H18S12968   3.498   4.620   8.798 -0.6293  0.8191 -4.5433
  122OSM   H18T12969   3.357   4.720   8.751  1.4643 -1.7557 -2.0049
  122OSM   H18U12970   3.341   4.562   8.804  1.1576 -0.5999  1.2377
  122OSM    C1F12971   3.563   5.321  10.711  0.2494 -0.5797  0.1069
  122OSM     OF12972   3.578   5.218  10.778  0.4168  0.2542 -0.2395
  122OSM    C2F12973   3.671   5.423  10.697 -0.0632 -0.1523 -0.0981
  122OSM    H2F12974   3.731   5.423  10.791  0.1784 -1.7243 -0.2351
  122OSM    H2G12975   3.629   5.526  10.690  0.5780  0.2581  1.5430
  122OSM    C3F12976   3.772   5.398  10.578  0.1155 -0.2815  0.4060
  122OSM    H3F12977   3.808   5.295  10.595 -0.4636 -0.3446  1.2687
  122OSM    H3G12978   3.852   5.476  10.584  0.5044 -0.7396  1.3505
  122OSM    C4F12979   3.728   5.407  10.433  0.1275  0.1340 -0.3454
  122OSM    H4F12980   3.648   5.483  10.426  1.4231  2.1371  3.6719
  122OSM    H4G12981   3.679   5.309  10.412 -1.6420  0.4468  1.9659
  122OSM    C5F12982   3.836   5.456  10.338  0.3122 -0.1562  0.1510
  122OSM    H5F12983   3.923   5.397  10.373  0.7387 -0.3302 -1.1526
  122OSM    H5G12984   3.847   5.566  10.352 -0.8696  0.2064 -1.5271
  122OSM    C6F12985   3.805   5.412  10.192  0.0659 -1.0530 -0.3249
  122OSM    H6F12986   3.845   5.309  10.182  0.1883 -1.1179  0.7237
  122OSM    H6G12987   3.855   5.477  10.117 -0.1003 -0.3251  0.1830
  122OSM    C7F12988   3.666   5.414  10.138  0.2096 -0.3953  0.4998
  122OSM    H7F12989   3.591   5.360  10.202 -0.5787 -0.0246 -0.0967
  122OSM    H7G12990   3.672   5.368  10.037 -0.8367  0.0463  0.2202
  122OSM    C8F12991   3.626   5.555  10.119 -0.3325  0.1227  0.5665
  122OSM    H8F12992   3.701   5.600  10.050  0.7291  0.6762  2.0294
  122OSM    H8G12993   3.640   5.612  10.213  0.1567 -1.3477  1.4222
  122OSM    C9F12994   3.489   5.563  10.065  0.4000 -0.2925  0.0324
  122OSM    H9F12995   3.417   5.581  10.146 -0.3106 -2.3439 -0.1104
  122OSM   C10F12996   3.443   5.529   9.938 -0.0710 -0.5665 -0.6085
  122OSM   H10F12997   3.334   5.529   9.921 -0.5011 -0.8435  1.7578
  122OSM   C11F12998   3.520   5.469   9.826  0.5468  0.0131  0.6990
  122OSM   H11F12999   3.530   5.359   9.833 -2.2792 -0.4983 -1.4464
  122OSM   H11G13000   3.624   5.509   9.821  1.3560 -1.8541  1.6077
  122OSM   C12F13001   3.462   5.497   9.685  0.0968  0.6783 -0.2252
  122OSM   H12F13002   3.476   5.605   9.664  2.9383  0.2857 -0.7613
  122OSM   H12G13003   3.353   5.471   9.688  0.3907 -0.7677  3.2598
  122OSM   C13F13004   3.532   5.409   9.574 -0.3907  0.2404 -0.3042
  122OSM   H13F13005   3.536   5.306   9.615  3.4087 -1.6467 -4.4105
  122OSM   H13G13006   3.639   5.432   9.550  0.2720 -1.1992  1.1162
  122OSM   C14F13007   3.448   5.405   9.442  0.2490  0.0621  0.0384
  122OSM   H14F13008   3.347   5.381   9.480 -0.1450  0.4994 -0.7020
  122OSM   H14G13009   3.489   5.321   9.382 -0.6403 -0.3824  0.0320
  122OSM   C15F13010   3.454   5.528   9.347 -0.2270  0.6002  0.6365
  122OSM   H15F13011   3.395   5.598   9.411  0.5415  1.1084  0.8065
  122OSM   H15G13012   3.392   5.514   9.256 -0.0920 -1.1184  0.7756
  122OSM   C16F13013   3.598   5.579   9.322  0.2878 -0.2392  0.2246
  122OSM   H16F13014   3.654   5.507   9.258  1.2405 -0.8065  1.6508
  122OSM   H16G13015   3.660   5.605   9.410  2.3277  1.1351 -1.5277
  122OSM   C17F13016   3.581   5.709   9.234 -0.3006  0.1339 -0.0994
  122OSM   H17F13017   3.503   5.688   9.158 -0.5068 -0.7299  0.3333
  122OSM   H17G13018   3.671   5.735   9.175 -1.1443 -0.2080 -1.5806
  122OSM   C18F13019   3.543   5.839   9.315 -0.4843  0.3200 -0.1104
  122OSM   H18F13020   3.582   5.935   9.276 -1.2907  1.4155  1.6472
  122OSM   H18G13021   3.594   5.838   9.414  0.8049 -1.0235 -0.7427
  122OSM   H18H13022   3.436   5.853   9.341 -0.7154 -1.2581 -0.0815
  123OSM      N13023   1.669   3.301   6.481 -0.0299  0.4134 -0.7186
  123OSM    C1513024   1.529   3.321   6.420 -0.4858  0.2173  0.2653
  123OSM   H15A13025   1.455   3.288   6.492  1.4987  0.3326  2.4805
  123OSM   H15B13026   1.517   3.265   6.328 -1.5934 -0.7367  0.9447
  123OSM   H15C13027   1.516   3.424   6.392 -1.4601  0.1008  0.2499
  123OSM    C1413028   1.765   3.364   6.395 -0.2074  0.4020 -0.4593
  123OSM   H14A13029   1.748   3.303   6.307 -0.4149 -0.0833 -0.0846
  123OSM   H14B13030   1.868   3.346   6.425 -0.8770  2.1853  3.6041
  123OSM   H14C13031   1.755   3.470   6.375 -0.3196  0.1845 -1.6194
  123OSM    C1313032   1.673   3.354   6.624  0.0124  0.6796 -0.7506
  123OSM   H13A13033   1.659   3.461   6.618 -1.1258  0.4474 -3.0370
  123OSM   H13B13034   1.770   3.333   6.667  0.3951 -1.1745 -2.3779
  123OSM   H13C13035   1.599   3.304   6.685  1.2421  2.3792  2.3852
  123OSM    C1213036   1.687   3.154   6.493 -0.1650 -0.2206  0.0664
  123OSM   H12A13037   1.602   3.111   6.545 -1.5270 -1.3753 -2.8930
  123OSM   H12B13038   1.776   3.138   6.552  0.4534  1.8657 -0.2339
  123OSM    C1113039   1.698   3.079   6.361 -0.5778  0.0865  0.2073
  123OSM   H11A13040   1.625   3.114   6.285 -0.9343 -1.7381 -0.3640
  123OSM   H11B13041   1.676   2.970   6.373 -1.2873  0.1555 -0.3560
  123OSM      P13042   1.955   3.008   6.319  0.0734 -0.1061 -0.2930
  123OSM    O1313043   1.913   2.885   6.253  0.4333  0.4939  0.2272
  123OSM    O1413044   2.073   3.076   6.258 -0.0925 -0.0725 -0.1729
  123OSM    O1113045   1.956   2.994   6.477 -0.1063 -0.1579  0.3637
  123OSM    O1213046   1.829   3.100   6.300  0.2908  0.0627 -0.0103
  123OSM    C1S13047   2.053   3.068   6.552  0.2469 -0.1213 -0.4512
  123OSM    H1S13048   2.044   3.177   6.536  0.3286  0.3131  2.0477
  123OSM    H1T13049   2.153   3.026   6.529 -0.5634 -2.3732 -0.1826
  123OSM     NF13050   2.114   3.153   6.781 -0.2992  0.0524 -0.2844
  123OSM    HNF13051   2.188   3.120   6.838  1.9979  2.7605 -1.4297
  123OSM    C2S13052   2.038   3.054   6.705  0.9484 -0.3838  0.5974
  123OSM    H2S13053   1.930   3.071   6.723  0.6821  0.7421 -1.8002
  123OSM    C3S13054   2.063   2.899   6.739  0.0507 -0.4148  0.4901
  123OSM    H3S13055   2.174   2.889   6.740  0.2722  1.5889  0.5235
  123OSM     O313056   2.024   2.794   6.648 -0.6330 -0.8257 -0.2296
  123OSM    HO313057   1.998   2.843   6.569 -1.7697  1.8826  1.6472
  123OSM    C4S13058   1.998   2.877   6.872 -0.1796  0.4279 -0.0569
  123OSM    H4S13059   1.892   2.906   6.870 -0.1055  0.6885 -0.6930
  123OSM    C5S13060   2.056   2.810   6.975  0.6804 -0.4156 -0.1926
  123OSM    H5S13061   2.163   2.787   6.967  0.9185  1.0046 -1.6115
  123OSM    C6S13062   2.000   2.794   7.109  0.6840  0.8684 -0.1409
  123OSM    H6S13063   2.009   2.688   7.141  0.0113  0.9620  0.3805
  123OSM    H6T13064   1.890   2.792   7.098  0.5632  0.2097  1.0565
  123OSM    C7S13065   2.046   2.897   7.208  0.0312  0.1118 -0.4744
  123OSM    H7S13066   1.969   2.977   7.212 -3.0159 -2.6497  2.2176
  123OSM    H7T13067   2.134   2.943   7.158  1.0076 -2.0489 -0.8650
  123OSM    C8S13068   2.061   2.838   7.345 -0.3861  0.0908 -0.1636
  123OSM    H8S13069   2.145   2.769   7.367 -1.7839 -1.7573 -0.3620
  123OSM    H8T13070   1.966   2.787   7.372  0.3130 -1.3797 -0.3775
  123OSM    C9S13071   2.064   2.949   7.460 -0.3106 -0.0007  0.7608
  123OSM    H9S13072   1.974   3.014   7.448  0.4700  0.8547 -0.7740
  123OSM    H9T13073   2.154   3.012   7.444 -0.7728  0.1382 -1.5698
  123OSM   C10S13074   2.062   2.899   7.606  0.1894 -0.4663  0.1123
  123OSM   H10S13075   2.133   2.815   7.621  0.5609 -0.4581 -1.4743
  123OSM   H10T13076   1.967   2.841   7.604  0.8932 -1.6403 -0.7106
  123OSM   C11S13077   2.076   3.004   7.712  0.3286  0.3948 -0.3210
  123OSM   H11S13078   2.066   2.954   7.811 -0.1053  0.8849 -0.1140
  123OSM   H11T13079   1.997   3.082   7.706 -0.8098 -0.5150  1.8496
  123OSM   C12S13080   2.211   3.078   7.698 -0.3154 -0.5785  0.4438
  123OSM   H12S13081   2.212   3.134   7.602 -1.3854 -2.2386 -0.5793
  123OSM   H12T13082   2.288   3.001   7.676 -0.3333  0.3983 -3.8346
  123OSM   C13S13083   2.249   3.170   7.816  0.0345 -0.0093 -0.5147
  123OSM   H13S13084   2.194   3.266   7.813  0.0277  0.0043  0.0089
  123OSM   H13T13085   2.353   3.201   7.792 -0.5081  3.6986  1.2946
  123OSM   C14S13086   2.243   3.094   7.950 -0.1847 -0.1444 -0.1808
  123OSM   H14S13087   2.296   2.997   7.942  2.0403  0.9565  0.5367
  123OSM   H14T13088   2.134   3.081   7.968 -0.4280 -1.1689 -2.1140
  123OSM   C15S13089   2.312   3.169   8.061 -0.0938  0.4843  0.2002
  123OSM   H15S13090   2.258   3.266   8.064  1.1928  1.2176  2.0335
  123OSM   H15T13091   2.419   3.187   8.037 -0.2967  0.2753 -0.9114
  123OSM   C16S13092   2.298   3.102   8.197  0.9962 -0.2048  0.0036
  123OSM   H16S13093   2.325   2.997   8.171 -0.5473 -1.0444  1.6068
  123OSM   H16T13094   2.193   3.106   8.233  0.9893  1.9907 -0.1423
  123OSM   C17S13095   2.395   3.163   8.297  0.2575 -0.3559 -0.2382
  123OSM   H17S13096   2.497   3.183   8.259  0.7262  2.2681  2.0804
  123OSM   H17T13097   2.415   3.080   8.369  0.0060 -2.1373 -2.1382
  123OSM   C18S13098   2.356   3.291   8.373  0.5417 -0.5508 -0.5156
  123OSM   H18S13099   2.251   3.294   8.408  1.4457 -0.9134  2.4563
  123OSM   H18T13100   2.357   3.377   8.302 -1.7259  2.7052  3.0093
  123OSM   H18U13101   2.429   3.317   8.453 -0.5394 -2.7620  1.2986
  123OSM    C1F13102   2.083   3.285   6.791  0.0236 -0.1180  0.4634
  123OSM     OF13103   1.974   3.326   6.756 -0.1108 -0.0660 -0.0812
  123OSM    C2F13104   2.189   3.376   6.857 -0.3516  1.0838 -0.1693
  123OSM    H2F13105   2.283   3.368   6.799  0.1693 -1.5231  0.9222
  123OSM    H2G13106   2.210   3.317   6.948 -1.2298  0.5041 -0.3286
  123OSM    C3F13107   2.137   3.517   6.890 -0.7188 -0.2153  0.3346
  123OSM    H3F13108   2.047   3.519   6.955  0.0612  0.1270  1.4418
  123OSM    H3G13109   2.111   3.572   6.797  1.0440  0.3005  0.1098
  123OSM    C4F13110   2.242   3.597   6.971  0.1854 -0.3437 -0.7235
  123OSM    H4F13111   2.200   3.696   6.999 -0.1886 -0.7431  0.1692
  123OSM    H4G13112   2.337   3.612   6.915  0.8640  0.9561  0.7122
  123OSM    C5F13113   2.270   3.531   7.107  0.0367  0.4279 -0.3135
  123OSM    H5F13114   2.324   3.434   7.096 -1.0991 -0.1244 -1.2312
  123OSM    H5G13115   2.167   3.522   7.149  1.0358  0.9047  2.4339
  123OSM    C6F13116   2.366   3.616   7.196  0.8259  0.2191  0.3181
  123OSM    H6F13117   2.323   3.718   7.210  0.6062  0.1880 -0.0965
  123OSM    H6G13118   2.463   3.634   7.145  0.5663 -0.7689 -0.5606
  123OSM    C7F13119   2.396   3.566   7.334 -0.4851 -0.0331  0.5985
  123OSM    H7F13120   2.442   3.657   7.377  1.0390 -0.4223 -0.1327
  123OSM    H7G13121   2.470   3.483   7.327 -0.7233 -0.2756  0.8885
  123OSM    C8F13122   2.281   3.507   7.412 -0.3803 -0.1592  0.5032
  123OSM    H8F13123   2.238   3.415   7.368 -2.7391  0.9468  0.3509
  123OSM    H8G13124   2.196   3.578   7.406 -0.8529 -0.6079  1.5442
  123OSM    C9F13125   2.330   3.473   7.550 -0.1144 -0.4030  0.5645
  123OSM    H9F13126   2.418   3.408   7.543  1.2907  1.5671 -3.5612
  123OSM   C10F13127   2.292   3.527   7.663 -0.5497  0.3050 -0.3871
  123OSM   H10F13128   2.335   3.503   7.761 -1.3093  1.0691  0.1480
  123OSM   C11F13129   2.182   3.625   7.675 -0.7626  0.2132 -0.4705
  123OSM   H11F13130   2.082   3.581   7.693 -1.2199  0.7709 -1.5565
  123OSM   H11G13131   2.171   3.675   7.577 -1.8083 -0.4996 -0.7295
  123OSM   C12F13132   2.189   3.730   7.793 -0.3249 -0.4337  0.1839
  123OSM   H12F13133   2.107   3.801   7.771  0.1297  0.6031  1.6113
  123OSM   H12G13134   2.280   3.791   7.774  0.2641 -0.9018  1.3675
  123OSM   C13F13135   2.186   3.672   7.928  0.0167  0.7987  0.1561
  123OSM   H13F13136   2.266   3.595   7.937 -1.7241 -1.0701  0.2370
  123OSM   H13G13137   2.091   3.616   7.940  0.0177  0.3495 -1.6589
  123OSM   C14F13138   2.200   3.772   8.046  0.5557 -0.0999  0.3708
  123OSM   H14F13139   2.123   3.852   8.043 -0.3739 -0.9471  0.8942
  123OSM   H14G13140   2.292   3.832   8.027  1.1783 -0.4173  2.2228
  123OSM   C15F13141   2.211   3.709   8.180 -0.2450 -0.5454  0.5083
  123OSM   H15F13142   2.317   3.680   8.199  0.0993  0.4765  0.2075
  123OSM   H15G13143   2.159   3.611   8.180 -0.6638 -0.3603 -1.0412
  123OSM   C16F13144   2.168   3.796   8.291  0.4401 -0.6876  0.9514
  123OSM   H16F13145   2.159   3.748   8.391  1.7761 -0.2133  1.3186
  123OSM   H16G13146   2.070   3.837   8.260  0.2269 -1.5105  0.5031
  123OSM   C17F13147   2.257   3.915   8.303 -0.5081 -0.3690 -0.2547
  123OSM   H17F13148   2.206   3.987   8.371 -0.2735  0.1040 -0.5710
  123OSM   H17G13149   2.279   3.963   8.206 -1.1517  1.5180  0.4780
  123OSM   C18F13150   2.385   3.894   8.377 -0.8275 -0.3060 -0.3850
  123OSM   H18F13151   2.458   3.822   8.335  2.0681  1.1150  1.8626
  123OSM   H18G13152   2.362   3.848   8.476 -0.4246 -1.5212 -0.8452
  123OSM   H18H13153   2.444   3.986   8.396 -0.0708 -0.9089  0.2553
  124OSM      N13154   4.869   1.801   6.101 -0.2316  0.1558  0.2749
  124OSM    C1513155   4.985   1.807   6.006  0.2599  0.4998 -0.1658
  124OSM   H15A13156   5.067   1.853   6.058  2.1377 -1.4539 -1.2606
  124OSM   H15B13157   4.961   1.876   5.926 -0.2840  0.1842 -0.2823
  124OSM   H15C13158   5.022   1.714   5.966  0.9296  0.2784  0.9211
  124OSM    C1413159   4.861   1.925   6.183  0.2075 -0.3302 -0.4195
  124OSM   H14A13160   4.770   1.922   6.243 -0.2306  1.8344 -0.8963
  124OSM   H14B13161   4.855   2.012   6.121 -0.6945  0.8257  1.1966
  124OSM   H14C13162   4.952   1.938   6.240  1.3086  0.1771 -2.2270
  124OSM    C1313163   4.750   1.781   6.015 -0.3468 -0.3487  0.6380
  124OSM   H13A13164   4.665   1.749   6.074 -0.6812  1.4477  1.2039
  124OSM   H13B13165   4.765   1.711   5.934 -0.6120  0.2212  0.0903
  124OSM   H13C13166   4.711   1.873   5.973 -1.1374 -0.2246  1.5913
  124OSM    C1213167   4.881   1.683   6.195  0.4574  0.1230  0.2251
  124OSM   H12A13168   4.787   1.669   6.246 -0.0597 -0.5663 -0.8738
  124OSM   H12B13169   4.968   1.706   6.254  0.2708 -0.4504  0.7374
  124OSM    C1113170   4.903   1.550   6.128  0.1266  1.1273 -0.6773
  124OSM   H11A13171   4.842   1.522   6.039 -0.7764 -3.2284  1.0517
  124OSM   H11B13172   4.851   1.479   6.196  0.2489  1.7836  0.1169
  124OSM      P13173   5.141   1.484   6.225 -0.1732  0.2355  0.6105
  124OSM    O1313174   5.086   1.350   6.264  0.7702  0.2578  0.4894
  124OSM    O1413175   5.279   1.479   6.167  0.4314  0.1096 -0.5172
  124OSM    O1113176   5.131   1.596   6.333  0.2331  0.1824 -0.0089
  124OSM    O1213177   5.043   1.528   6.104 -0.3467 -0.3276 -0.0710
  124OSM    C1S13178   5.078   1.565   6.461  0.5723  0.0650  0.2009
  124OSM    H1S13179   5.121   1.473   6.506  2.3361  1.2302  1.0274
  124OSM    H1T13180   4.971   1.541   6.445  0.6160  1.4662 -2.8784
  124OSM     NF13181   5.085   1.608   6.700 -0.2189 -0.2093 -0.4762
  124OSM    HNF13182   4.992   1.604   6.736 -0.0232 -2.2528 -0.0675
  124OSM    C2S13183   5.110   1.682   6.570 -0.0572  1.9649  0.9279
  124OSM    H2S13184   5.219   1.704   6.562 -0.1522  1.9439 -0.7172
  124OSM    C3S13185   5.025   1.799   6.530  0.1003  0.0512  0.5154
  124OSM    H3S13186   4.918   1.772   6.515 -0.6803  2.7972  0.4731
  124OSM     O313187   5.071   1.861   6.410 -0.2104  0.1616 -0.3452
  124OSM    HO313188   5.148   1.809   6.383 -0.4862  0.5942 -2.1153
  124OSM    C4S13189   5.034   1.899   6.645  0.8494 -0.1041 -0.0728
  124OSM    H4S13190   5.135   1.938   6.665  0.8148  0.6923 -1.3467
  124OSM    C5S13191   4.933   1.937   6.720 -0.5570  0.0836 -0.3299
  124OSM    H5S13192   4.841   1.877   6.714 -0.3020 -0.1908 -1.7533
  124OSM    C6S13193   4.932   2.030   6.842 -0.2831  0.1597 -0.2599
  124OSM    H6S13194   4.883   1.987   6.932  0.4213  0.4420  0.2707
  124OSM    H6T13195   4.879   2.125   6.819  1.0029  1.4191  1.6839
  124OSM    C7S13196   5.071   2.077   6.893  0.4341  0.3790  0.7364
  124OSM    H7S13197   5.103   2.145   6.811 -0.2831 -2.8797 -2.5486
  124OSM    H7T13198   5.152   2.001   6.899  1.3050  1.2078 -0.1136
  124OSM    C8S13199   5.043   2.155   7.023 -0.5928  0.3450 -0.1648
  124OSM    H8S13200   4.948   2.211   7.016 -0.6727  0.1514 -0.6581
  124OSM    H8T13201   5.124   2.228   7.043  0.4753 -0.3430 -1.7815
  124OSM    C9S13202   5.031   2.046   7.143  0.2623  0.2675 -0.2975
  124OSM    H9S13203   5.133   2.002   7.140 -0.1741 -0.7391 -1.3785
  124OSM    H9T13204   4.955   1.972   7.110 -2.3041  2.5582  0.1943
  124OSM   C10S13205   4.982   2.103   7.273 -0.2926  0.0079  0.3842
  124OSM   H10S13206   4.876   2.136   7.276  0.3356  2.1359  2.2196
  124OSM   H10T13207   5.035   2.200   7.286 -1.0329  0.4243  0.3512
  124OSM   C11S13208   5.011   2.024   7.400 -0.3314 -0.0362 -0.9988
  124OSM   H11S13209   5.122   2.018   7.401 -0.3668 -1.3654  1.1401
  124OSM   H11T13210   4.971   1.921   7.388 -0.4951 -0.0036 -0.7412
  124OSM   C12S13211   4.962   2.099   7.530 -0.4489 -0.1474 -0.0336
  124OSM   H12S13212   4.863   2.053   7.548 -0.9389  0.0984 -1.8943
  124OSM   H12T13213   4.954   2.208   7.508  1.4337 -0.3561 -2.2369
  124OSM   C13S13214   5.062   2.088   7.650 -0.4700 -0.3823  0.5206
  124OSM   H13S13215   5.155   2.144   7.628 -0.7577  0.2978  0.9995
  124OSM   H13T13216   5.095   1.982   7.642  0.0975 -0.1026 -1.4804
  124OSM   C14S13217   5.011   2.133   7.789 -0.2683  0.2831 -0.4431
  124OSM   H14S13218   4.908   2.093   7.801 -0.7612  2.0876  2.0119
  124OSM   H14T13219   5.003   2.243   7.806  1.3904 -0.0665  3.6918
  124OSM   C15S13220   5.101   2.081   7.903  0.1999  0.3563 -0.3851
  124OSM   H15S13221   5.208   2.088   7.874 -0.5232  1.4341 -3.1414
  124OSM   H15T13222   5.078   1.974   7.924 -1.2320  1.1399  2.6475
  124OSM   C16S13223   5.074   2.152   8.038  0.0914 -0.4735 -1.1353
  124OSM   H16S13224   4.966   2.163   8.060  0.0785  0.6854 -1.7128
  124OSM   H16T13225   5.125   2.249   8.021  0.0832 -0.3473 -0.4424
  124OSM   C17S13226   5.147   2.074   8.149  0.2513  0.0795 -0.1052
  124OSM   H17S13227   5.244   2.050   8.100 -1.1132 -1.2233 -2.2941
  124OSM   H17T13228   5.101   1.975   8.167  0.1266  0.5009  2.2605
  124OSM   C18S13229   5.161   2.157   8.278 -0.6428 -0.0459  0.4540
  124OSM   H18S13230   5.063   2.175   8.327 -0.7249 -1.5640  0.9136
  124OSM   H18T13231   5.217   2.252   8.267 -3.1377  1.4823  0.3028
  124OSM   H18U13232   5.210   2.101   8.361 -4.5487 -1.2066  2.2380
  124OSM    C1F13233   5.179   1.526   6.754  0.3232  0.4436  0.4133
  124OSM     OF13234   5.288   1.508   6.700 -0.5296 -0.1845 -0.3326
  124OSM    C2F13235   5.152   1.467   6.892 -0.0112  0.5715  0.7662
  124OSM    H2F13236   5.247   1.475   6.950  0.9216 -1.2322 -0.4199
  124OSM    H2G13237   5.138   1.357   6.882  0.9964  0.6245 -2.1157
  124OSM    C3F13238   5.033   1.527   6.972 -0.3300 -0.0596 -0.0415
  124OSM    H3F13239   4.937   1.504   6.920 -0.7526 -2.6303  1.7047
  124OSM    H3G13240   5.057   1.636   6.977 -0.1370 -0.1553  1.2501
  124OSM    C4F13241   5.029   1.463   7.113  0.5428 -0.3753  0.5407
  124OSM    H4F13242   5.126   1.460   7.165  1.5199  3.9387 -0.6010
  124OSM    H4G13243   4.979   1.364   7.107 -0.4093  0.1240 -0.1095
  124OSM    C5F13244   4.956   1.558   7.207  0.1388 -0.0593 -0.1074
  124OSM    H5F13245   4.851   1.578   7.178  1.0645  3.8101 -1.3527
  124OSM    H5G13246   5.007   1.657   7.205 -0.9175  0.5312  0.8859
  124OSM    C6F13247   4.958   1.506   7.345 -0.9820 -0.1309  0.4620
  124OSM    H6F13248   5.064   1.485   7.369 -1.1527 -2.7206 -0.6653
  124OSM    H6G13249   4.908   1.407   7.346 -2.7647  0.7146 -0.4592
  124OSM    C7F13250   4.891   1.595   7.444  0.5266 -0.3045  0.2022
  124OSM    H7F13251   4.788   1.617   7.408  0.3525 -1.5732 -0.1211
  124OSM    H7G13252   4.959   1.682   7.434 -0.4286  0.5971  1.2732
  124OSM    C8F13253   4.885   1.552   7.590  0.6972  0.8538  0.1500
  124OSM    H8F13254   4.981   1.504   7.619  0.9658  0.2123 -1.6726
  124OSM    H8G13255   4.804   1.477   7.607  0.8624  0.9599  1.5658
  124OSM    C9F13256   4.868   1.679   7.663 -0.1210 -0.4664  0.8201
  124OSM    H9F13257   4.797   1.751   7.619  1.2724 -0.6299 -1.9245
  124OSM   C10F13258   4.929   1.714   7.778  0.6487 -0.1807  0.7007
  124OSM   H10F13259   4.913   1.816   7.817  0.7089 -0.4008  1.3163
  124OSM   C11F13260   5.019   1.634   7.860  0.3140 -0.0144  0.5188
  124OSM   H11F13261   5.118   1.683   7.870 -0.8094  2.0478  2.6249
  124OSM   H11G13262   5.029   1.528   7.829  2.1167  0.4870 -0.7823
  124OSM   C12F13263   4.960   1.645   8.004  0.1120  0.4949  0.1431
  124OSM   H12F13264   4.849   1.645   8.013  0.0989 -0.3727  0.0617
  124OSM   H12G13265   4.976   1.751   8.034  0.2347  0.7817 -0.8832
  124OSM   C13F13266   5.022   1.554   8.103 -0.3527  0.0370 -0.1839
  124OSM   H13F13267   5.131   1.559   8.079  0.1998 -2.0940  1.5338
  124OSM   H13G13268   4.980   1.454   8.079 -1.6217 -0.4259  3.4288
  124OSM   C14F13269   4.991   1.586   8.251 -0.6519  0.0888  0.3028
  124OSM   H14F13270   4.880   1.589   8.258 -0.8815 -0.4421 -2.2315
  124OSM   H14G13271   5.044   1.680   8.278  1.3280 -0.2494 -2.0755
  124OSM   C15F13272   5.033   1.485   8.359 -0.6851 -1.1257  0.6495
  124OSM   H15F13273   5.141   1.478   8.385 -0.2706 -4.1202 -1.3849
  124OSM   H15G13274   5.009   1.387   8.314 -1.6970 -1.1128  1.1397
  124OSM   C16F13275   4.946   1.499   8.491 -0.0685  0.0038  0.7511
  124OSM   H16F13276   4.837   1.501   8.472  0.1926  0.5638 -0.8579
  124OSM   H16G13277   4.978   1.595   8.539  0.4748  0.7501 -1.0409
  124OSM   C17F13278   4.966   1.378   8.584 -0.3448  0.1577 -0.3009
  124OSM   H17F13279   4.936   1.291   8.522 -1.9376 -0.4687  1.2549
  124OSM   H17G13280   4.894   1.382   8.669 -1.0190  0.5038 -0.8776
  124OSM   C18F13281   5.109   1.353   8.639  1.0432 -0.2314  0.0219
  124OSM   H18F13282   5.106   1.247   8.673 -0.2102 -0.5762 -1.0799
  124OSM   H18G13283   5.125   1.414   8.730  1.7438 -0.9454  0.3939
  124OSM   H18H13284   5.193   1.372   8.568  1.5281 -0.5219  0.5129
  125OSM      N13285   4.195   2.755   6.135 -0.3377  0.2864 -0.1273
  125OSM    C1513286   4.313   2.839   6.203  0.4036 -0.0330  0.7165
  125OSM   H15A13287   4.266   2.901   6.278 -0.2196 -0.2136  0.4836
  125OSM   H15B13288   4.346   2.908   6.127  0.1801  0.0016  0.6494
  125OSM   H15C13289   4.390   2.769   6.233 -0.1289 -0.4578  1.1229
  125OSM    C1413290   4.108   2.841   6.059  0.4714 -0.3060  0.0278
  125OSM   H14A13291   4.174   2.897   5.994 -2.4178  1.6053 -1.4970
  125OSM   H14B13292   4.055   2.917   6.115  0.0261 -0.8351  0.3326
  125OSM   H14C13293   4.037   2.782   6.002  1.4567 -0.3465 -1.1878
  125OSM    C1313294   4.269   2.653   6.051  0.1660  0.3286 -0.4384
  125OSM   H13A13295   4.336   2.696   5.978  1.1892 -1.6438 -0.7627
  125OSM   H13B13296   4.205   2.589   5.992  2.5974 -0.6094 -2.2466
  125OSM   H13C13297   4.327   2.584   6.112  0.2892  0.1084 -0.7992
  125OSM    C1213298   4.120   2.683   6.237 -1.0264 -0.6174  0.5703
  125OSM   H12A13299   4.046   2.615   6.199 -1.5372 -0.0058  0.4600
  125OSM   H12B13300   4.059   2.752   6.294 -2.9154 -1.7224 -0.0264
  125OSM    C1113301   4.202   2.597   6.334 -0.0048  0.0997 -0.0419
  125OSM   H11A13302   4.142   2.582   6.426 -0.6629 -0.3508 -0.5344
  125OSM   H11B13303   4.294   2.651   6.365  0.7121 -0.0523 -1.7948
  125OSM      P13304   4.347   2.384   6.337 -0.2045  0.2293  0.2972
  125OSM    O1313305   4.307   2.235   6.334 -0.2893  0.0021  0.2375
  125OSM    O1413306   4.469   2.435   6.267 -0.3131 -0.5139  0.2149
  125OSM    O1113307   4.347   2.438   6.486  0.3001  0.7014 -0.1853
  125OSM    O1213308   4.220   2.468   6.281 -0.0697 -0.2891 -1.0413
  125OSM    C1S13309   4.256   2.397   6.589  0.4153 -0.0707  0.4686
  125OSM    H1S13310   4.186   2.326   6.542 -1.2981  1.5606  0.4295
  125OSM    H1T13311   4.200   2.485   6.627  0.4236  0.0368  0.2350
  125OSM     NF13312   4.220   2.302   6.813 -0.0445 -0.4630  0.2092
  125OSM    HNF13313   4.179   2.376   6.866  3.0091 -0.2655  2.5577
  125OSM    C2S13314   4.323   2.336   6.715  0.1234 -0.8845  0.5974
  125OSM    H2S13315   4.381   2.245   6.687 -0.6541 -0.8650 -1.2680
  125OSM    C3S13316   4.429   2.431   6.776  0.2440 -0.5753 -0.3650
  125OSM    H3S13317   4.372   2.526   6.769 -0.6336 -1.2161 -4.1004
  125OSM     O313318   4.553   2.438   6.705 -0.4593 -0.1253  0.2971
  125OSM    HO313319   4.543   2.402   6.616 -1.1896  2.5638 -0.8416
  125OSM    C4S13320   4.454   2.394   6.922  0.0230 -0.4411  0.3848
  125OSM    H4S13321   4.374   2.439   6.983  0.4094  0.9546 -0.1131
  125OSM    C5S13322   4.556   2.316   6.973  0.2045 -0.5546 -0.2502
  125OSM    H5S13323   4.630   2.286   6.897  0.5176 -0.6964  0.1103
  125OSM    C6S13324   4.573   2.288   7.119  0.0283  0.1671 -0.7186
  125OSM    H6S13325   4.681   2.301   7.139 -0.4600  3.3716  0.2966
  125OSM    H6T13326   4.540   2.182   7.132  0.9336 -0.1989 -1.2975
  125OSM    C7S13327   4.491   2.362   7.233  0.0625  0.6723 -0.6999
  125OSM    H7S13328   4.386   2.345   7.200  0.2036 -1.5278 -0.1868
  125OSM    H7T13329   4.516   2.470   7.231  2.3414  0.2107  0.1499
  125OSM    C8S13330   4.522   2.306   7.373  0.1840 -0.0952  0.5719
  125OSM    H8S13331   4.520   2.195   7.368  0.3992 -0.0828  0.1708
  125OSM    H8T13332   4.442   2.344   7.440  0.9227  0.1003  1.3776
  125OSM    C9S13333   4.664   2.341   7.428 -0.3405  0.3029  0.3582
  125OSM    H9S13334   4.672   2.451   7.428 -1.0321  0.3664 -0.1845
  125OSM    H9T13335   4.740   2.301   7.357  0.3814  0.8197  0.8315
  125OSM   C10S13336   4.691   2.293   7.573 -0.3251 -0.2378  0.5194
  125OSM   H10S13337   4.797   2.321   7.587 -0.0290 -1.1142  0.1112
  125OSM   H10T13338   4.687   2.182   7.574  0.0932 -0.2544  0.4011
  125OSM   C11S13339   4.595   2.358   7.679 -0.2463  0.7126  0.1036
  125OSM   H11S13340   4.496   2.308   7.680  0.5688 -0.9695  0.1566
  125OSM   H11T13341   4.586   2.467   7.660 -0.3952  0.5444 -0.8161
  125OSM   C12S13342   4.650   2.336   7.821 -0.0620  0.0957  0.5368
  125OSM   H12S13343   4.744   2.392   7.843 -0.6809  1.7797 -0.8356
  125OSM   H12T13344   4.670   2.227   7.830 -0.3733  0.0971  1.3374
  125OSM   C13S13345   4.545   2.369   7.924  0.4071  0.7489 -0.1698
  125OSM   H13S13346   4.467   2.292   7.903  0.4197  0.9521 -0.9811
  125OSM   H13T13347   4.498   2.469   7.935  2.6827  1.7725  0.8644
  125OSM   C14S13348   4.596   2.344   8.067 -0.1379 -0.0675  0.8073
  125OSM   H14S13349   4.518   2.328   8.144  1.6848 -0.4747  2.6549
  125OSM   H14T13350   4.638   2.444   8.091 -0.4674  0.4588 -0.7029
  125OSM   C15S13351   4.680   2.215   8.089  0.1263 -0.6159 -0.2024
  125OSM   H15S13352   4.773   2.226   8.029  0.7128  2.1850  1.0604
  125OSM   H15T13353   4.625   2.136   8.035  0.6751  0.4783 -2.5021
  125OSM   C16S13354   4.701   2.179   8.235  0.2719  0.2791 -0.5534
  125OSM   H16S13355   4.598   2.158   8.272  0.7047 -0.4288  0.2914
  125OSM   H16T13356   4.738   2.258   8.305  1.6213 -2.9092  2.6701
  125OSM   C17S13357   4.784   2.047   8.254 -0.1575 -1.2953 -0.9676
  125OSM   H17S13358   4.747   2.019   8.355 -1.8601  0.6814 -0.9650
  125OSM   H17T13359   4.891   2.075   8.259 -0.3950  0.8791 -4.5934
  125OSM   C18S13360   4.756   1.929   8.165  0.2663 -0.6323 -0.0952
  125OSM   H18S13361   4.792   1.837   8.216  0.7974  0.3694  1.4051
  125OSM   H18T13362   4.807   1.951   8.069  0.8628  2.5018  0.8405
  125OSM   H18U13363   4.648   1.925   8.140  0.6819  2.3774 -3.0958
  125OSM    C1F13364   4.164   2.186   6.803  0.4433  0.5077  0.1395
  125OSM     OF13365   4.202   2.103   6.720  0.5522 -0.7061  0.3666
  125OSM    C2F13366   4.042   2.164   6.885 -0.0834 -0.1512 -0.2539
  125OSM    H2F13367   3.971   2.098   6.831  1.4969 -0.4959 -2.0118
  125OSM    H2G13368   3.985   2.259   6.884 -1.1632 -0.7759 -2.4975
  125OSM    C3F13369   4.062   2.121   7.037  0.6519  0.3929  0.5816
  125OSM    H3F13370   4.140   2.042   7.033 -0.6537 -0.9326  0.6122
  125OSM    H3G13371   3.967   2.076   7.072 -0.4409  2.8021  0.9052
  125OSM    C4F13372   4.104   2.239   7.127 -0.1551 -0.0156  0.3525
  125OSM    H4F13373   4.019   2.307   7.108 -1.3380 -1.4078  0.4877
  125OSM    H4G13374   4.193   2.285   7.079 -1.0116  0.3653 -0.9205
  125OSM    C5F13375   4.133   2.212   7.266 -0.0329 -0.7228  0.1047
  125OSM    H5F13376   4.163   2.310   7.310 -3.1836 -0.9156  3.0884
  125OSM    H5G13377   4.213   2.135   7.280  0.1323 -0.9317 -1.7707
  125OSM    C6F13378   4.004   2.169   7.352 -0.1743 -0.0991 -0.5847
  125OSM    H6F13379   3.945   2.086   7.307 -1.2754  0.5383 -0.3812
  125OSM    H6G13380   3.940   2.258   7.376 -0.6468 -0.9239  1.4071
  125OSM    C7F13381   4.042   2.132   7.493 -0.0458 -0.0001 -0.5045
  125OSM    H7F13382   4.112   2.046   7.491 -0.3631 -0.2599 -0.5101
  125OSM    H7G13383   3.951   2.094   7.543  0.5935  2.4031  2.8438
  125OSM    C8F13384   4.084   2.250   7.579  0.2106 -0.5223 -0.2429
  125OSM    H8F13385   4.017   2.336   7.557 -0.4520 -0.5603  1.4695
  125OSM    H8G13386   4.181   2.291   7.545 -0.4637 -0.0457 -1.6284
  125OSM    C9F13387   4.089   2.223   7.731 -0.1102  0.3429  0.0998
  125OSM    H9F13388   4.184   2.180   7.766  0.4593  0.6315 -1.0327
  125OSM   C10F13389   3.987   2.244   7.818  0.0568  0.2787 -0.0702
  125OSM   H10F13390   4.013   2.226   7.923 -0.9714  1.5439  0.4249
  125OSM   C11F13391   3.839   2.280   7.776  0.0287 -0.4633 -0.7203
  125OSM   H11F13392   3.771   2.203   7.735 -1.4964  0.1670  0.5418
  125OSM   H11G13393   3.847   2.358   7.697  1.1740 -0.4898 -0.6527
  125OSM   C12F13394   3.764   2.334   7.899  0.3004  0.1085  0.7448
  125OSM   H12F13395   3.665   2.378   7.872 -0.1866  0.0120  2.2633
  125OSM   H12G13396   3.824   2.413   7.949  0.5602  0.5769 -0.2879
  125OSM   C13F13397   3.722   2.223   7.993 -0.1687 -0.0287  0.1059
  125OSM   H13F13398   3.798   2.142   7.989  0.3067  0.3541 -4.6165
  125OSM   H13G13399   3.627   2.181   7.954 -0.1188 -0.1088  0.0707
  125OSM   C14F13400   3.723   2.282   8.131 -0.4715  0.2692 -0.5872
  125OSM   H14F13401   3.727   2.393   8.128 -1.9033  0.3193 -1.5603
  125OSM   H14G13402   3.822   2.251   8.172 -0.4268 -1.1057 -1.6470
  125OSM   C15F13403   3.611   2.228   8.224 -0.6991 -0.3430  0.1314
  125OSM   H15F13404   3.618   2.120   8.247 -1.6656 -0.7095 -1.1671
  125OSM   H15G13405   3.521   2.252   8.163  1.0726  1.8797 -1.8187
  125OSM   C16F13406   3.601   2.316   8.346 -0.1094  0.3603  0.9458
  125OSM   H16F13407   3.586   2.421   8.313  1.4879  0.3403  0.0841
  125OSM   H16G13408   3.681   2.326   8.423 -0.8089 -1.8892  2.0592
  125OSM   C17F13409   3.477   2.273   8.426  0.6833  0.7339  0.0221
  125OSM   H17F13410   3.512   2.190   8.490 -3.0654 -1.0863 -0.0119
  125OSM   H17G13411   3.402   2.240   8.351  0.8191  0.7180 -0.1055
  125OSM   C18F13412   3.409   2.378   8.513  0.0109 -0.6457 -0.4842
  125OSM   H18F13413   3.382   2.465   8.450  0.1347  0.9429  1.5722
  125OSM   H18G13414   3.486   2.418   8.583  0.2258  1.7473 -1.9682
  125OSM   H18H13415   3.321   2.344   8.571  2.0589 -1.7766  2.1671
  126OSM      N13416   0.969   2.581   6.630  0.4286 -0.0660  0.1755
  126OSM    C1513417   0.882   2.557   6.510  0.0900  0.0332 -0.0489
  126OSM   H15A13418   0.924   2.500   6.429 -0.0565 -1.6810  1.0245
  126OSM   H15B13419   0.847   2.650   6.467 -0.0423 -1.1852 -2.7229
  126OSM   H15C13420   0.803   2.493   6.546 -1.0744  0.2897 -1.9954
  126OSM    C1413421   0.882   2.660   6.725  0.1729 -0.7863 -0.1839
  126OSM   H14A13422   0.838   2.742   6.672  1.2332 -0.1507 -0.1137
  126OSM   H14B13423   0.944   2.704   6.802 -0.1599 -0.8169  0.1023
  126OSM   H14C13424   0.809   2.596   6.772 -1.7833  1.0014 -0.6360
  126OSM    C1313425   0.992   2.449   6.686 -0.0937 -0.4583 -0.1421
  126OSM   H13A13426   1.030   2.383   6.609 -0.1667 -0.1600 -0.4333
  126OSM   H13B13427   0.902   2.403   6.724  0.3953 -1.2339  0.1141
  126OSM   H13C13428   1.064   2.457   6.767 -0.3210  0.2515 -0.0030
  126OSM    C1213429   1.090   2.658   6.581  0.1621  0.1541  0.0361
  126OSM   H12A13430   1.058   2.752   6.538 -0.8886  1.0951  2.6510
  126OSM   H12B13431   1.154   2.612   6.507  1.8661  2.0902  0.2194
  126OSM    C1113432   1.193   2.705   6.688  0.3122 -0.0990 -0.6102
  126OSM   H11A13433   1.293   2.728   6.647  0.0832  2.5710  0.1424
  126OSM   H11B13434   1.213   2.612   6.746 -1.1903 -1.1969 -1.7719
  126OSM      P13435   1.148   2.953   6.754  0.0363  0.7249 -0.1455
  126OSM    O1313436   1.269   2.978   6.666  0.3110 -0.0268 -0.3629
  126OSM    O1413437   1.018   3.010   6.694  0.5973  0.1689 -0.2461
  126OSM    O1113438   1.177   3.014   6.895 -0.1167  0.0593  0.1186
  126OSM    O1213439   1.143   2.799   6.784  0.2739 -0.2331  0.7135
  126OSM    C1S13440   1.230   2.941   7.006  0.6101 -0.5525  0.4648
  126OSM    H1S13441   1.308   2.866   6.979  1.9415  0.2039  2.0801
  126OSM    H1T13442   1.150   2.888   7.063  1.4829 -0.0234  2.2397
  126OSM     NF13443   1.417   2.962   7.185  0.4777  0.2961 -0.1724
  126OSM    HNF13444   1.398   2.938   7.280 -1.7079  0.8134 -0.4251
  126OSM    C2S13445   1.319   3.033   7.104  0.2777  0.2716 -0.2919
  126OSM    H2S13446   1.382   3.096   7.038  0.6076 -0.8780 -1.1217
  126OSM    C3S13447   1.221   3.123   7.181 -0.0104  0.0251  0.6180
  126OSM    H3S13448   1.165   3.055   7.250  0.1355 -0.0126  0.7000
  126OSM     O313449   1.126   3.188   7.095 -0.3575 -0.2478 -0.7896
  126OSM    HO313450   1.136   3.144   7.010 -1.3707 -0.0721 -1.0115
  126OSM    C4S13451   1.288   3.219   7.280  0.2026 -0.4342  0.1319
  126OSM    H4S13452   1.320   3.168   7.373  0.7639 -0.4683 -0.0747
  126OSM    C5S13453   1.298   3.358   7.269  0.1107  0.5758 -0.8426
  126OSM    H5S13454   1.252   3.405   7.181  2.0474  0.1692 -2.1654
  126OSM    C6S13455   1.360   3.443   7.376  0.1260  0.2652  0.2806
  126OSM    H6S13456   1.299   3.535   7.388 -0.5285  0.1572 -1.7272
  126OSM    H6T13457   1.456   3.484   7.339  0.7501 -0.2500  1.3164
  126OSM    C7S13458   1.355   3.376   7.520  0.4420  0.7950  0.7267
  126OSM    H7S13459   1.433   3.299   7.538 -1.1027 -1.2376 -0.8496
  126OSM    H7T13460   1.255   3.328   7.524  1.1870 -0.7788  0.8760
  126OSM    C8S13461   1.360   3.474   7.627 -0.4020  0.1101  0.1944
  126OSM    H8S13462   1.276   3.545   7.613 -1.9114 -1.4004  1.2271
  126OSM    H8T13463   1.454   3.534   7.626  0.3938 -1.0632  1.1370
  126OSM    C9S13464   1.340   3.408   7.760  0.2623  0.7107 -0.2127
  126OSM    H9S13465   1.417   3.329   7.770 -1.2425 -0.8742 -0.6840
  126OSM    H9T13466   1.247   3.348   7.755  0.3997  0.1308  2.6644
  126OSM   C10S13467   1.346   3.496   7.889  0.0918  0.2713 -0.0058
  126OSM   H10S13468   1.266   3.573   7.882  0.0330  0.1669 -0.5101
  126OSM   H10T13469   1.432   3.566   7.879 -1.2246  2.2046  1.5978
  126OSM   C11S13470   1.352   3.413   8.020 -0.3722 -0.7647  0.0861
  126OSM   H11S13471   1.449   3.358   8.025 -1.2371 -2.2342  1.9861
  126OSM   H11T13472   1.275   3.333   8.009 -0.2144 -0.7099 -1.8091
  126OSM   C12S13473   1.328   3.499   8.145 -0.2418  0.2906 -0.2124
  126OSM   H12S13474   1.235   3.559   8.146 -0.0069  0.6646 -0.4851
  126OSM   H12T13475   1.413   3.570   8.160 -0.2895  0.4460 -0.6492
  126OSM   C13S13476   1.330   3.394   8.271 -0.0851 -0.6467 -0.2474
  126OSM   H13S13477   1.419   3.335   8.241 -0.9241 -1.3222 -1.4972
  126OSM   H13T13478   1.243   3.324   8.274 -0.1247 -0.6136 -0.5328
  126OSM   C14S13479   1.357   3.469   8.407  0.4751  0.2087  0.1159
  126OSM   H14S13480   1.264   3.512   8.448  1.6467  2.3097  0.7008
  126OSM   H14T13481   1.432   3.549   8.388  2.7297 -1.6463  0.6270
  126OSM   C15S13482   1.409   3.378   8.525 -0.5855  0.0810  0.6030
  126OSM   H15S13483   1.444   3.436   8.613  0.6971  1.5388 -0.8166
  126OSM   H15T13484   1.502   3.335   8.481  0.2691  0.7701  1.6888
  126OSM   C16S13485   1.314   3.254   8.560  0.2997  0.7756  0.6157
  126OSM   H16S13486   1.373   3.198   8.636  2.2309 -0.0082 -1.3444
  126OSM   H16T13487   1.287   3.203   8.466  0.4444  1.6568  0.0794
  126OSM   C17S13488   1.182   3.304   8.623 -0.2446 -0.8647 -0.1950
  126OSM   H17S13489   1.127   3.211   8.646  2.7707 -2.3394  1.7226
  126OSM   H17T13490   1.119   3.360   8.551 -2.5789  0.0281  2.3656
  126OSM   C18S13491   1.191   3.384   8.758 -0.3955 -0.2472  0.0501
  126OSM   H18S13492   1.087   3.412   8.785 -1.0259 -2.2411 -0.1408
  126OSM   H18T13493   1.253   3.476   8.747  0.6785 -0.7767  1.4672
  126OSM   H18U13494   1.241   3.317   8.830  1.6271  0.2381 -0.8364
  126OSM    C1F13495   1.532   2.924   7.138  0.2802 -0.0219  0.4460
  126OSM     OF13496   1.569   2.957   7.028 -0.2038 -0.4709  0.3365
  126OSM    C2F13497   1.612   2.821   7.216 -0.6079 -0.5276 -0.7946
  126OSM    H2F13498   1.707   2.872   7.244 -2.1669  2.3408 -0.3047
  126OSM    H2G13499   1.628   2.731   7.154 -2.0853 -1.3131 -0.0715
  126OSM    C3F13500   1.544   2.769   7.343  0.0112  0.4783  0.7325
  126OSM    H3F13501   1.580   2.669   7.375 -0.9283  0.1364  0.7482
  126OSM    H3G13502   1.437   2.753   7.319  0.3720 -0.5397 -0.3082
  126OSM    C4F13503   1.573   2.856   7.461  0.0283 -0.0889  0.5777
  126OSM    H4F13504   1.510   2.947   7.448 -2.3685 -1.8291 -0.8330
  126OSM    H4G13505   1.682   2.875   7.452 -0.0868  0.5568  0.4899
  126OSM    C5F13506   1.539   2.785   7.591 -0.0695 -0.3112 -0.0979
  126OSM    H5F13507   1.556   2.676   7.580 -0.5984 -0.5164  0.9594
  126OSM    H5G13508   1.434   2.812   7.617 -0.0573 -1.0722  0.8018
  126OSM    C6F13509   1.634   2.842   7.702  0.2931 -0.0236  0.1441
  126OSM    H6F13510   1.638   2.946   7.664  0.5075 -0.7639 -1.9791
  126OSM    H6G13511   1.734   2.794   7.689 -0.5837 -1.3862 -1.9744
  126OSM    C7F13512   1.580   2.834   7.844  0.5219  0.8504 -0.3481
  126OSM    H7F13513   1.470   2.851   7.845 -0.4566 -4.1069 -0.6780
  126OSM    H7G13514   1.630   2.900   7.919 -0.5902  1.5367 -0.1835
  126OSM    C8F13515   1.590   2.698   7.917 -0.6275 -0.2060  0.4013
  126OSM    H8F13516   1.694   2.658   7.908 -0.4910  0.2601 -0.1400
  126OSM    H8G13517   1.534   2.616   7.868 -0.3181 -0.0867 -0.1644
  126OSM    C9F13518   1.552   2.704   8.063  0.1716  0.0767  0.1627
  126OSM    H9F13519   1.445   2.682   8.074  0.1925 -0.6818 -0.9675
  126OSM   C10F13520   1.613   2.765   8.162 -0.0934  0.0022  0.7962
  126OSM   H10F13521   1.567   2.750   8.261 -2.7387  2.7374  0.1248
  126OSM   C11F13522   1.750   2.829   8.154  0.0307 -0.5089  0.5936
  126OSM   H11F13523   1.739   2.939   8.163  1.6342 -0.0751 -1.7342
  126OSM   H11G13524   1.794   2.821   8.052  0.7592  1.0574  0.7563
  126OSM   C12F13525   1.855   2.789   8.265 -0.0032  0.2677 -0.0368
  126OSM   H12F13526   1.859   2.678   8.263 -1.0865  0.2345 -1.0988
  126OSM   H12G13527   1.824   2.816   8.368  0.7684 -0.1420  0.3152
  126OSM   C13F13528   1.993   2.835   8.239 -0.1369 -0.2906 -0.5001
  126OSM   H13F13529   1.984   2.945   8.237  0.8958 -0.2071 -1.5102
  126OSM   H13G13530   2.024   2.806   8.136  0.2254 -0.0787 -0.4529
  126OSM   C14F13531   2.092   2.791   8.353 -0.2212  0.2079  0.3220
  126OSM   H14F13532   2.191   2.840   8.344 -0.2063  0.6508  2.3831
  126OSM   H14G13533   2.130   2.687   8.368  0.4850 -0.3727 -4.2018
  126OSM   C15F13534   2.047   2.824   8.501 -0.3677  0.3587 -0.2919
  126OSM   H15F13535   1.969   2.750   8.530  0.5610  0.5275  3.1341
  126OSM   H15G13536   2.000   2.924   8.515  1.3030  0.9961  1.3072
  126OSM   C16F13537   2.162   2.826   8.604  0.0804 -0.2226  0.6106
  126OSM   H16F13538   2.230   2.743   8.577  1.8834  0.5986  2.3647
  126OSM   H16G13539   2.126   2.810   8.708  0.7152  1.5056  1.1288
  126OSM   C17F13540   2.244   2.954   8.605 -0.0919 -0.0931  0.0934
  126OSM   H17F13541   2.187   3.047   8.583 -0.1016  0.6463  2.8709
  126OSM   H17G13542   2.324   2.955   8.528  1.1955 -2.4582  1.2739
  126OSM   C18F13543   2.313   2.974   8.733  0.4457  0.0616 -0.1490
  126OSM   H18F13544   2.398   3.045   8.727 -1.2350  2.1959  0.5268
  126OSM   H18G13545   2.354   2.876   8.768 -2.8952 -1.5569 -0.3921
  126OSM   H18H13546   2.250   3.012   8.815 -1.3249  0.2418 -1.5354
  127OSM      N13547   2.085   1.216   6.120 -0.3825 -0.4036 -0.3516
  127OSM    C1513548   2.150   1.183   5.985 -0.9875  0.0969  0.2661
  127OSM   H15A13549   2.073   1.153   5.916 -1.4361  0.3877  0.6324
  127OSM   H15B13550   2.236   1.120   6.002 -0.7342  0.6508  1.1067
  127OSM   H15C13551   2.185   1.276   5.944  0.2627  0.7593  2.6434
  127OSM    C1413552   2.012   1.345   6.117  0.5860 -0.3485  0.1861
  127OSM   H14A13553   1.930   1.346   6.047  0.4495 -0.5429  0.3431
  127OSM   H14B13554   2.082   1.427   6.102  0.4276 -0.4264 -1.1400
  127OSM   H14C13555   1.961   1.362   6.211 -1.4656 -1.8692 -0.5789
  127OSM    C1313556   1.997   1.104   6.155  0.7138  0.6145  0.3555
  127OSM   H13A13557   1.906   1.101   6.098  0.2261  0.6367  1.1186
  127OSM   H13B13558   1.965   1.119   6.257  0.5685  1.1561  0.2327
  127OSM   H13C13559   2.046   1.009   6.140  0.9763  0.5976  1.2491
  127OSM    C1213560   2.199   1.232   6.213 -1.0513 -0.0287  0.2756
  127OSM   H12A13561   2.156   1.271   6.304  0.6170  0.0023  1.0811
  127OSM   H12B13562   2.265   1.309   6.176  3.1800 -1.9637  3.0723
  127OSM    C1113563   2.288   1.109   6.264 -0.2363 -1.0280  0.5665
  127OSM   H11A13564   2.200   1.058   6.309 -2.1325  1.8555  0.3504
  127OSM   H11B13565   2.358   1.151   6.339  2.3771 -1.6444 -1.3597
  127OSM      P13566   2.393   0.888   6.192  0.1330  0.4031  0.3525
  127OSM    O1313567   2.424   0.813   6.061 -0.6724  0.1659 -0.0790
  127OSM    O1413568   2.499   0.888   6.292 -0.0632  1.1125 -0.0331
  127OSM    O1113569   2.260   0.827   6.254 -0.3321  0.3084  0.5168
  127OSM    O1213570   2.349   1.034   6.160 -0.5626  0.0451 -0.0299
  127OSM    C1S13571   2.276   0.723   6.357  0.1575 -0.0384 -0.9929
  127OSM    H1S13572   2.342   0.757   6.440 -1.0394 -1.8055  0.7740
  127OSM    H1T13573   2.318   0.626   6.321 -0.1007 -0.3568 -0.4552
  127OSM     NF13574   2.141   0.603   6.543 -0.2022  0.2501  0.4816
  127OSM    HNF13575   2.124   0.506   6.529  1.3094  0.1608 -0.9535
  127OSM    C2S13576   2.133   0.693   6.425  0.2584  0.3023 -0.0863
  127OSM    H2S13577   2.094   0.794   6.451 -2.6742 -0.4000 -1.3828
  127OSM    C3S13578   2.034   0.642   6.309 -0.2087  0.2682 -0.1435
  127OSM    H3S13579   2.087   0.558   6.260 -0.2892 -0.3606  0.8172
  127OSM     O313580   2.006   0.747   6.218 -0.3333  0.1160  0.1584
  127OSM    HO313581   2.083   0.804   6.231 -1.0601  0.8660  1.3619
  127OSM    C4S13582   1.909   0.591   6.375  0.0608  0.3219 -0.9282
  127OSM    H4S13583   1.906   0.482   6.390  0.7677  0.4237  0.0825
  127OSM    C5S13584   1.811   0.670   6.424  0.4528  0.1099  0.3967
  127OSM    H5S13585   1.821   0.776   6.399  0.6022 -0.2420 -1.1308
  127OSM    C6S13586   1.681   0.624   6.497  0.2940 -0.6653  0.5151
  127OSM    H6S13587   1.597   0.669   6.440  1.9339  3.7196  1.1069
  127OSM    H6T13588   1.665   0.674   6.595  0.7064  1.3521 -0.3855
  127OSM    C7S13589   1.661   0.472   6.505  0.0741  0.6150 -0.0044
  127OSM    H7S13590   1.696   0.429   6.408  3.3875 -0.5673  1.5655
  127OSM    H7T13591   1.551   0.459   6.502  0.1416  0.1382 -1.2715
  127OSM    C8S13592   1.738   0.416   6.615 -0.7153  0.8567 -0.5542
  127OSM    H8S13593   1.837   0.465   6.624  0.2113 -0.9466 -0.4885
  127OSM    H8T13594   1.754   0.311   6.584  1.2433  1.0593 -0.3304
  127OSM    C9S13595   1.667   0.417   6.755 -0.3247 -0.3888  0.1404
  127OSM    H9S13596   1.559   0.393   6.745 -0.7058  0.3954  1.9307
  127OSM    H9T13597   1.673   0.524   6.787 -2.1774 -0.8822  2.4038
  127OSM   C10S13598   1.723   0.344   6.874  0.1204 -0.5602 -0.3629
  127OSM   H10S13599   1.661   0.337   6.966  1.0316 -0.2529  0.2904
  127OSM   H10T13600   1.822   0.388   6.900 -0.2460  0.8431 -1.1859
  127OSM   C11S13601   1.756   0.203   6.839 -0.2967 -0.4559  1.0214
  127OSM   H11S13602   1.832   0.186   6.760  0.1588 -1.8669  1.7151
  127OSM   H11T13603   1.661   0.156   6.806 -0.8218  0.6137  0.9753
  127OSM   C12S13604   1.805   0.123   6.960  0.3702  0.2231 -0.6841
  127OSM   H12S13605   1.735   0.138   7.045 -1.3734 -2.3434 -1.5592
  127OSM   H12T13606   1.905   0.167   6.980  0.7323 -0.7452 -0.2804
  127OSM   C13S13607   1.817  -0.031   6.939  0.4625 -0.3336 -0.1960
  127OSM   H13S13608   1.871  -0.045   6.844  0.9021 -1.0138  0.1461
  127OSM   H13T13609   1.716  -0.076   6.930  0.9399 -1.1882 -1.5724
  127OSM   C14S13610   1.876  -0.099   7.062  0.0303  0.6452 -0.6155
  127OSM   H14S13611   1.965  -0.043   7.097  2.6550 -3.3110 -0.2350
  127OSM   H14T13612   1.906  -0.204   7.038  0.0805  0.3402  0.7150
  127OSM   C15S13613   1.784  -0.100   7.182  0.3170  0.8122  0.4373
  127OSM   H15S13614   1.704  -0.155   7.129  1.1353 -0.8105  0.8055
  127OSM   H15T13615   1.733  -0.003   7.204 -2.3547 -0.0117 -1.6136
  127OSM   C16S13616   1.844  -0.154   7.312 -0.0416 -0.2232  0.5526
  127OSM   H16S13617   1.929  -0.094   7.350  0.4054 -1.3031  1.3356
  127OSM   H16T13618   1.895  -0.253   7.307  1.0307  0.3634 -2.6944
  127OSM   C17S13619   1.743  -0.159   7.430  0.6670 -0.1467  0.3274
  127OSM   H17S13620   1.672  -0.242   7.412  0.6896 -0.2903  0.8764
  127OSM   H17T13621   1.680  -0.068   7.432  0.8639 -0.0058  0.1212
  127OSM   C18S13622   1.806  -0.163   7.567  0.5206  0.5184 -0.1886
  127OSM   H18S13623   1.884  -0.085   7.575  0.3667  0.8794 -1.8119
  127OSM   H18T13624   1.854  -0.261   7.588 -1.4169 -0.8895 -1.8975
  127OSM   H18U13625   1.727  -0.141   7.642 -0.0300 -1.4601 -0.1353
  127OSM    C1F13626   2.178   0.641   6.667 -0.4780  0.4019  0.3191
  127OSM     OF13627   2.222   0.756   6.686  0.4472 -0.3414 -0.5309
  127OSM    C2F13628   2.154   0.547   6.784  0.2336  0.0449 -0.5169
  127OSM    H2F13629   2.220   0.458   6.772 -0.7651 -0.6172 -1.3635
  127OSM    H2G13630   2.047   0.515   6.778 -0.5826  2.3018  0.8673
  127OSM    C3F13631   2.176   0.609   6.930  0.4633  0.4291  0.2597
  127OSM    H3F13632   2.092   0.676   6.957 -1.3208 -1.7489  0.4579
  127OSM    H3G13633   2.271   0.666   6.931 -0.2410  1.6606  1.9234
  127OSM    C4F13634   2.175   0.513   7.042 -0.1362 -0.1160 -0.9102
  127OSM    H4F13635   2.211   0.571   7.130  0.9056 -1.0222 -0.7220
  127OSM    H4G13636   2.248   0.432   7.021 -1.7970 -1.4710 -1.6859
  127OSM    C5F13637   2.039   0.449   7.079 -0.0044 -0.3633 -0.0826
  127OSM    H5F13638   2.009   0.373   7.004 -0.4084 -0.7933  0.5035
  127OSM    H5G13639   1.961   0.527   7.066  0.3465 -0.2185 -1.4901
  127OSM    C6F13640   2.044   0.387   7.213 -0.3693  0.3595 -0.4998
  127OSM    H6F13641   2.085   0.460   7.287  1.3711 -0.2777 -0.7971
  127OSM    H6G13642   2.118   0.305   7.224  0.4857  1.3509  1.5611
  127OSM    C7F13643   1.900   0.342   7.256 -0.0952  0.0875 -0.1173
  127OSM    H7F13644   1.847   0.310   7.164 -0.1431 -0.2692  0.0345
  127OSM    H7G13645   1.845   0.432   7.292  0.2322  0.5335 -0.7054
  127OSM    C8F13646   1.912   0.235   7.364  0.8932  0.3822 -0.1316
  127OSM    H8F13647   1.984   0.153   7.340  0.9415  0.5651 -0.6261
  127OSM    H8G13648   1.811   0.189   7.371  0.8481  0.4842 -0.1163
  127OSM    C9F13649   1.953   0.309   7.493 -0.6462 -0.5081 -0.1302
  127OSM    H9F13650   1.881   0.379   7.538 -0.0149  0.1301 -0.0836
  127OSM   C10F13651   2.077   0.304   7.553  0.2455 -0.6272 -0.3108
  127OSM   H10F13652   2.089   0.355   7.650  0.4719 -1.2121 -0.0250
  127OSM   C11F13653   2.203   0.221   7.510 -0.0263  1.0566 -0.6888
  127OSM   H11F13654   2.295   0.267   7.553  0.4273  3.5252 -3.8830
  127OSM   H11G13655   2.224   0.233   7.401  2.0639 -1.3612 -0.6426
  127OSM   C12F13656   2.207   0.067   7.535  0.4324 -0.2470 -0.3687
  127OSM   H12F13657   2.311   0.032   7.522  1.0345  1.4631 -0.2926
  127OSM   H12G13658   2.149   0.026   7.449 -0.8546  0.3481  0.1948
  127OSM   C13F13659   2.144   0.021   7.665  0.6299 -0.2201 -0.9712
  127OSM   H13F13660   2.091  -0.076   7.656 -0.6621  0.3996 -0.3268
  127OSM   H13G13661   2.060   0.090   7.689 -1.4306 -2.9737  0.2716
  127OSM   C14F13662   2.238   0.027   7.784  0.1606  0.8131 -0.1691
  127OSM   H14F13663   2.200   0.098   7.861 -2.0304 -1.5246  1.0430
  127OSM   H14G13664   2.331   0.079   7.753 -0.1734  1.5134 -0.0299
  127OSM   C15F13665   2.262  -0.107   7.847  0.0577  0.4705  0.3784
  127OSM   H15F13666   2.333  -0.175   7.795  0.1712  0.2490  0.8197
  127OSM   H15G13667   2.171  -0.171   7.856  1.4848 -1.4719  2.0045
  127OSM   C16F13668   2.319  -0.094   7.991 -0.3309  0.4506 -0.3066
  127OSM   H16F13669   2.266  -0.008   8.037 -0.5042 -0.0938  0.5339
  127OSM   H16G13670   2.428  -0.096   7.970 -0.2856  2.3738 -0.3871
  127OSM   C17F13671   2.289  -0.223   8.076 -0.0520 -0.8721  0.4610
  127OSM   H17F13672   2.339  -0.295   8.007  0.7200  0.9047 -0.8930
  127OSM   H17G13673   2.180  -0.240   8.083  0.0611 -2.6463 -1.1116
  127OSM   C18F13674   2.333  -0.220   8.220  0.2072  0.0888 -0.5651
  127OSM   H18F13675   2.266  -0.166   8.290  0.9381 -1.1964  1.1832
  127OSM   H18G13676   2.441  -0.194   8.226  0.4373 -0.0978 -3.0131
  127OSM   H18H13677   2.334  -0.324   8.258  1.7850  1.0206  2.2223
  128OSM      N13678   5.212   3.041   6.186 -0.0483 -0.1992 -0.7120
  128OSM    C1513679   5.153   3.181   6.205 -0.1352 -0.2642  0.5303
  128OSM   H15A13680   5.051   3.177   6.240  0.2824  0.3294  1.9136
  128OSM   H15B13681   5.164   3.240   6.116  2.3178 -1.3306  0.0360
  128OSM   H15C13682   5.209   3.230   6.284 -0.3239 -1.2123  1.2820
  128OSM    C1413683   5.142   2.975   6.069  0.1615 -0.0729 -0.0886
  128OSM   H14A13684   5.132   3.048   5.990 -1.6089 -1.3538 -1.0939
  128OSM   H14B13685   5.049   2.930   6.099  1.6181 -1.4892  2.6526
  128OSM   H14C13686   5.198   2.888   6.038  0.3817  0.2250 -0.5491
  128OSM    C1313687   5.357   3.055   6.149  1.0336 -0.0042  0.5822
  128OSM   H13A13688   5.405   2.960   6.166 -0.6044 -1.5443 -2.4867
  128OSM   H13B13689   5.396   3.121   6.224  1.0519 -1.1096  1.5835
  128OSM   H13C13690   5.362   3.100   6.051  2.3925  1.5463  1.3239
  128OSM    C1213691   5.199   2.961   6.315  0.1519  0.4955 -0.6039
  128OSM   H12A13692   5.257   2.994   6.400  0.6351  2.7582 -1.7119
  128OSM   H12B13693   5.222   2.858   6.294 -1.4823  0.0410 -0.3019
  128OSM    C1113694   5.046   2.948   6.364  0.0913 -0.6332 -0.4237
  128OSM   H11A13695   5.003   3.048   6.385 -0.6915 -0.8069 -1.1576
  128OSM   H11B13696   5.048   2.893   6.460 -0.0928 -0.0330 -0.0680
  128OSM      P13697   4.964   2.731   6.261 -0.1658 -0.2334 -0.4480
  128OSM    O1313698   4.954   2.676   6.128  0.7437  0.0935 -0.3506
  128OSM    O1413699   5.083   2.696   6.342 -0.3926 -0.1273  0.2547
  128OSM    O1113700   4.829   2.694   6.327 -0.7921 -0.3380  0.2624
  128OSM    O1213701   4.958   2.890   6.262 -0.2933 -0.6096  0.1658
  128OSM    C1S13702   4.812   2.595   6.430  0.5508 -0.2740  0.3805
  128OSM    H1S13703   4.896   2.522   6.429  1.1594  0.3476 -2.3700
  128OSM    H1T13704   4.716   2.544   6.412  1.6246 -1.7097 -1.7043
  128OSM     NF13705   4.809   2.582   6.682  0.1497  0.0957  0.4432
  128OSM    HNF13706   4.725   2.545   6.721 -0.4017 -0.8001 -1.4513
  128OSM    C2S13707   4.804   2.667   6.568  0.0277 -0.2342 -0.8278
  128OSM    H2S13708   4.899   2.724   6.576  0.1462 -0.6751  1.9996
  128OSM    C3S13709   4.672   2.758   6.575  0.0482  0.3025 -0.3034
  128OSM    H3S13710   4.585   2.689   6.573  0.0622  0.1143  2.1434
  128OSM     O313711   4.651   2.841   6.461  0.1120 -0.2254 -1.1495
  128OSM    HO313712   4.718   2.822   6.395 -1.3092 -2.1912 -2.1519
  128OSM    C4S13713   4.669   2.853   6.694  0.7939  0.4786  0.0629
  128OSM    H4S13714   4.742   2.935   6.695 -1.4611  2.5829  0.3190
  128OSM    C5S13715   4.575   2.848   6.799  0.2409 -0.4974 -0.3252
  128OSM    H5S13716   4.509   2.760   6.800  0.8659 -0.9932  2.0047
  128OSM    C6S13717   4.564   2.937   6.923 -1.0773  0.0034  0.6019
  128OSM    H6S13718   4.458   2.969   6.930 -0.6162  1.1845  3.0460
  128OSM    H6T13719   4.618   3.034   6.924 -4.0531  1.8884 -1.8966
  128OSM    C7S13720   4.596   2.849   7.046 -0.4969 -0.0521 -0.0923
  128OSM    H7S13721   4.700   2.811   7.038 -0.8143 -1.1399  0.7172
  128OSM    H7T13722   4.530   2.760   7.035  0.7706 -0.7544 -2.7005
  128OSM    C8S13723   4.581   2.919   7.181  0.3539 -0.5805  0.4343
  128OSM    H8S13724   4.476   2.957   7.186  1.0764  1.3668  3.0652
  128OSM    H8T13725   4.654   3.002   7.189  1.3642 -1.3095 -0.8581
  128OSM    C9S13726   4.605   2.840   7.311  0.6963 -0.5094 -0.5482
  128OSM    H9S13727   4.711   2.806   7.312  0.6584 -0.7752  2.1883
  128OSM    H9T13728   4.538   2.754   7.331 -2.0003  1.6390  0.2315
  128OSM   C10S13729   4.602   2.929   7.435  0.0561 -0.4104 -0.3401
  128OSM   H10S13730   4.495   2.956   7.451 -0.4464 -2.1298 -0.5987
  128OSM   H10T13731   4.666   3.019   7.424 -1.5255  0.6294 -1.5228
  128OSM   C11S13732   4.649   2.852   7.563  0.9327  0.3135  0.0786
  128OSM   H11S13733   4.752   2.813   7.544  0.1540 -1.4823 -0.7003
  128OSM   H11T13734   4.572   2.774   7.581 -0.7513  2.3631  2.3886
  128OSM   C12S13735   4.658   2.939   7.687 -0.3889  0.6383  0.6441
  128OSM   H12S13736   4.569   3.002   7.708 -2.1496 -1.9222  1.3351
  128OSM   H12T13737   4.747   3.004   7.670  0.6344 -0.3794  1.9579
  128OSM   C13S13738   4.680   2.865   7.819  0.2276 -0.2668  0.5474
  128OSM   H13S13739   4.763   2.794   7.798  0.5797  0.5804 -1.1153
  128OSM   H13T13740   4.592   2.801   7.841  0.0143 -0.1062  0.1761
  128OSM   C14S13741   4.708   2.955   7.935  0.0031  0.1136 -0.0010
  128OSM   H14S13742   4.628   3.025   7.966 -0.3415 -0.7970  1.2783
  128OSM   H14T13743   4.792   3.019   7.903 -0.4019 -0.5490 -2.5759
  128OSM   C15S13744   4.730   2.885   8.074  0.6572 -0.2792 -0.2945
  128OSM   H15S13745   4.760   2.969   8.141  0.9497 -0.8034  0.2382
  128OSM   H15T13746   4.797   2.797   8.068  0.1189 -0.6273 -1.8958
  128OSM   C16S13747   4.602   2.822   8.122 -0.3021  0.1990  0.2129
  128OSM   H16S13748   4.567   2.759   8.037  0.4668  1.7292 -1.3035
  128OSM   H16T13749   4.524   2.900   8.136 -0.1560  0.8472 -2.1497
  128OSM   C17S13750   4.626   2.750   8.256  0.1163  0.5493  0.9489
  128OSM   H17S13751   4.697   2.668   8.234  0.0997  1.1127 -1.4765
  128OSM   H17T13752   4.531   2.701   8.286 -1.4484  3.1931  0.6816
  128OSM   C18S13753   4.661   2.847   8.369  0.1112  0.1447 -0.1353
  128OSM   H18S13754   4.682   2.787   8.460  0.7527  0.1604 -0.2633
  128OSM   H18T13755   4.574   2.909   8.399  0.3372 -0.1691  1.2436
  128OSM   H18U13756   4.749   2.910   8.343  0.7541  0.0924  1.7410
  128OSM    C1F13757   4.918   2.519   6.727  0.0305  0.2017  0.4094
  128OSM     OF13758   5.005   2.485   6.642  0.1194 -0.1288 -0.1995
  128OSM    C2F13759   4.930   2.471   6.872 -0.1905  0.0835 -0.3598
  128OSM    H2F13760   5.036   2.462   6.903 -0.3771 -2.2856 -0.1972
  128OSM    H2G13761   4.886   2.369   6.873 -0.9788  0.4269  0.0617
  128OSM    C3F13762   4.854   2.558   6.969 -0.0357  0.4120  0.8071
  128OSM    H3F13763   4.751   2.583   6.936 -0.9849 -0.1750  3.1014
  128OSM    H3G13764   4.905   2.656   6.970  1.2896 -0.1651 -1.8783
  128OSM    C4F13765   4.856   2.503   7.112  0.1786  0.2009  0.0671
  128OSM    H4F13766   4.888   2.397   7.102  1.2267  0.5902 -1.0610
  128OSM    H4G13767   4.751   2.512   7.146  0.0840  1.3477 -0.4899
  128OSM    C5F13768   4.948   2.581   7.197  0.2742 -0.0097 -0.1824
  128OSM    H5F13769   4.910   2.686   7.193  1.1353  0.3365  0.3554
  128OSM    H5G13770   5.050   2.573   7.154  0.5312 -1.0658  0.5951
  128OSM    C6F13771   4.948   2.541   7.347 -1.0537  0.8875 -0.1345
  128OSM    H6F13772   4.968   2.433   7.363 -0.8207  1.1174  1.3254
  128OSM    H6G13773   4.839   2.555   7.365 -0.6383  2.5371  1.4174
  128OSM    C7F13774   5.036   2.623   7.442  0.2228  0.5194  0.0656
  128OSM    H7F13775   5.030   2.729   7.409 -0.9320  0.1198 -1.0908
  128OSM    H7G13776   5.143   2.599   7.423  0.0433  1.3184 -2.3002
  128OSM    C8F13777   4.981   2.608   7.582  0.4146 -1.2618 -0.0119
  128OSM    H8F13778   4.963   2.502   7.611  1.3984 -1.4805 -0.1445
  128OSM    H8G13779   4.881   2.655   7.570  0.8761 -0.1460  0.4185
  128OSM    C9F13780   5.077   2.673   7.682  0.1675  0.2259 -0.1500
  128OSM    H9F13781   5.136   2.756   7.640  0.6933  0.5018  1.1157
  128OSM   C10F13782   5.079   2.638   7.817 -0.2650 -1.0506  0.4932
  128OSM   H10F13783   5.153   2.693   7.877 -0.5007  0.2112 -0.3526
  128OSM   C11F13784   4.992   2.540   7.889  0.1160  0.6603  0.4920
  128OSM   H11F13785   5.019   2.433   7.877  1.3030  0.8817  1.0774
  128OSM   H11G13786   4.894   2.546   7.838  1.2704 -1.1858 -2.1851
  128OSM   C12F13787   4.973   2.573   8.043  0.1174 -0.4271  0.6093
  128OSM   H12F13788   4.898   2.501   8.080  0.4406 -1.4769 -0.6706
  128OSM   H12G13789   4.934   2.677   8.046  1.1571 -0.0316  1.0316
  128OSM   C13F13790   5.101   2.559   8.129  0.5252 -0.3401 -0.2308
  128OSM   H13F13791   5.184   2.615   8.082  0.4349 -1.5784 -1.9924
  128OSM   H13G13792   5.123   2.450   8.129  0.1335 -0.4437 -1.4303
  128OSM   C14F13793   5.089   2.605   8.278 -0.4409  0.1491  0.0349
  128OSM   H14F13794   5.186   2.571   8.319 -1.0662 -3.3307 -1.0333
  128OSM   H14G13795   5.024   2.537   8.337  1.2940 -1.1101  0.5950
  128OSM   C15F13796   5.060   2.753   8.317 -0.1454 -0.5687 -0.8578
  128OSM   H15F13797   5.072   2.750   8.427  0.7712 -0.1990 -0.9390
  128OSM   H15G13798   4.952   2.777   8.305  0.0834  1.7228  0.9558
  128OSM   C16F13799   5.143   2.863   8.244  0.1357  0.0796 -0.7443
  128OSM   H16F13800   5.116   2.965   8.278 -0.6825  0.1332 -1.5279
  128OSM   H16G13801   5.136   2.859   8.133 -1.9216 -1.8393 -0.6267
  128OSM   C17F13802   5.294   2.850   8.283  0.4091  0.4641 -0.4192
  128OSM   H17F13803   5.326   2.754   8.238 -0.2303  1.1399 -2.4559
  128OSM   H17G13804   5.302   2.844   8.393 -1.6855  0.3808 -0.2240
  128OSM   C18F13805   5.383   2.963   8.233  0.5246 -0.2925 -0.8016
  128OSM   H18F13806   5.346   3.057   8.279  1.0048 -0.8758  0.8527
  128OSM   H18G13807   5.379   2.965   8.122  0.6989  1.1233 -0.8011
  128OSM   H18H13808   5.490   2.947   8.259  0.2654 -0.4428  0.2106
  129OSM      N13809   0.631   1.290   6.435 -0.2619 -0.2109 -0.5160
  129OSM    C1513810   0.491   1.349   6.434 -0.7616 -0.4199 -0.3715
  129OSM   H15A13811   0.422   1.278   6.393 -0.7463 -0.2482 -0.6955
  129OSM   H15B13812   0.480   1.437   6.372 -2.5842 -1.4500 -1.5809
  129OSM   H15C13813   0.474   1.387   6.534  0.5510  1.9079 -0.9459
  129OSM    C1413814   0.666   1.261   6.295 -0.4639  0.0351 -0.1933
  129OSM   H14A13815   0.615   1.178   6.248 -0.2142  0.3119 -0.9679
  129OSM   H14B13816   0.772   1.243   6.283 -0.2903  1.0819 -0.2677
  129OSM   H14C13817   0.659   1.351   6.237 -1.1485 -0.1099 -0.3457
  129OSM    C1313818   0.722   1.399   6.480 -0.3250 -0.3895  0.0501
  129OSM   H13A13819   0.703   1.490   6.425 -0.0568  0.0619  0.6831
  129OSM   H13B13820   0.827   1.376   6.478  0.1002  1.2351  1.2914
  129OSM   H13C13821   0.696   1.426   6.581 -2.1240 -1.2682 -0.1419
  129OSM    C1213822   0.643   1.166   6.518  0.3776 -0.4800 -0.0917
  129OSM   H12A13823   0.599   1.188   6.615 -2.5214  0.3843 -1.4823
  129OSM   H12B13824   0.746   1.138   6.531  0.1878 -0.8598  0.6644
  129OSM    C1113825   0.561   1.044   6.457 -0.9882 -0.6371  0.3843
  129OSM   H11A13826   0.471   1.076   6.401 -1.5429 -0.2723  1.4511
  129OSM   H11B13827   0.527   0.978   6.540 -0.1359 -0.9366  0.5080
  129OSM      P13828   0.787   0.937   6.382 -0.1752  0.0511  0.1279
  129OSM    O1313829   0.815   0.811   6.310 -0.3136  0.3193 -0.2885
  129OSM    O1413830   0.868   1.051   6.328  0.8009  0.1034 -0.4209
  129OSM    O1113831   0.802   0.921   6.538  0.7228  0.1884 -0.1233
  129OSM    O1213832   0.638   0.962   6.366  0.5900 -0.0398 -0.1074
  129OSM    C1S13833   0.932   0.956   6.593  0.4223  0.3532  0.4628
  129OSM    H1S13834   0.964   1.060   6.575  0.2205  0.5773  1.3442
  129OSM    H1T13835   1.009   0.894   6.542 -1.4490 -1.7875  0.0547
  129OSM     NF13836   1.073   0.957   6.786  0.4328  0.8792 -0.3523
  129OSM    HNF13837   1.148   0.894   6.773  0.1021  0.6055 -0.9563
  129OSM    C2S13838   0.943   0.920   6.744  0.5446  0.7774  1.6602
  129OSM    H2S13839   0.867   0.975   6.802  0.2622  0.8062  1.2626
  129OSM    C3S13840   0.905   0.764   6.764 -0.4067  0.8274 -0.6356
  129OSM    H3S13841   0.974   0.698   6.707  1.2493 -0.9150  3.0402
  129OSM     O313842   0.766   0.730   6.729 -0.3852  0.3276  0.1226
  129OSM    HO313843   0.734   0.797   6.668  0.8476 -0.3527 -1.3566
  129OSM    C4S13844   0.927   0.729   6.905 -0.1278  0.0641 -0.0050
  129OSM    H4S13845   0.869   0.788   6.977 -0.9633  1.2153 -1.5649
  129OSM    C5S13846   1.005   0.636   6.954  0.0633  0.0701 -0.8221
  129OSM    H5S13847   1.073   0.587   6.882  1.1606 -0.9616  0.8509
  129OSM    C6S13848   1.039   0.622   7.098  0.1389  0.5103 -0.3033
  129OSM    H6S13849   0.971   0.693   7.152 -0.0600 -1.2346  1.9027
  129OSM    H6T13850   1.141   0.645   7.136 -0.0125 -2.6508  2.5025
  129OSM    C7S13851   1.006   0.481   7.149  0.2391 -0.8614 -0.5781
  129OSM    H7S13852   1.080   0.425   7.089  1.0756  1.7575 -2.1574
  129OSM    H7T13853   0.901   0.456   7.120  0.4149 -1.3424 -0.8195
  129OSM    C8S13854   1.022   0.470   7.304  0.2459 -0.9856  0.4965
  129OSM    H8S13855   1.129   0.457   7.332  0.2296  1.5138  2.0346
  129OSM    H8T13856   0.969   0.382   7.345 -0.8606  0.0632  1.3730
  129OSM    C9S13857   0.978   0.590   7.404 -0.0640 -0.1170  0.8832
  129OSM    H9S13858   0.871   0.608   7.382 -0.1306 -1.0201  0.3728
  129OSM    H9T13859   1.029   0.688   7.392 -1.3020  0.1995 -3.5787
  129OSM   C10S13860   0.987   0.549   7.552 -0.0219  0.2516 -0.3001
  129OSM   H10S13861   1.085   0.506   7.583 -0.0252  1.0382  0.8633
  129OSM   H10T13862   0.905   0.475   7.557 -1.0056  1.3453  0.1075
  129OSM   C11S13863   0.943   0.665   7.648  0.4429  0.6854 -1.0319
  129OSM   H11S13864   0.860   0.717   7.596 -0.7840  0.6740  0.7895
  129OSM   H11T13865   1.027   0.736   7.661 -0.3042  1.2657  0.9799
  129OSM   C12S13866   0.881   0.617   7.782 -0.4433  0.1267  0.0892
  129OSM   H12S13867   0.806   0.535   7.775 -0.0429 -0.3233  0.8922
  129OSM   H12T13868   0.833   0.701   7.838  0.1539  0.4230  0.1553
  129OSM   C13S13869   0.975   0.549   7.886 -0.4541 -0.6221  0.3567
  129OSM   H13S13870   1.028   0.468   7.830 -1.3544 -1.6122  0.8857
  129OSM   H13T13871   0.910   0.493   7.957 -2.9105 -0.5378 -1.7028
  129OSM   C14S13872   1.073   0.651   7.954  0.2917 -0.1880  0.2617
  129OSM   H14S13873   1.013   0.726   8.009 -0.6814 -0.4525 -0.4158
  129OSM   H14T13874   1.133   0.708   7.880  0.3341 -0.5407  0.0171
  129OSM   C15S13875   1.174   0.580   8.049  0.7407  0.1163 -0.2070
  129OSM   H15S13876   1.186   0.475   8.015  0.5829  0.3359 -0.9542
  129OSM   H15T13877   1.132   0.591   8.151  2.9467  2.9315  0.5450
  129OSM   C16S13878   1.311   0.638   8.050 -0.0898 -0.2780  0.0363
  129OSM   H16S13879   1.295   0.748   8.051 -0.3268 -0.2961 -0.8841
  129OSM   H16T13880   1.347   0.626   7.945  2.2949  2.4195  0.4312
  129OSM   C17S13881   1.413   0.592   8.153 -0.4391 -0.0597  0.2025
  129OSM   H17S13882   1.505   0.651   8.134 -0.7595  0.1944 -0.6450
  129OSM   H17T13883   1.429   0.485   8.128  1.9330  0.5111 -1.0273
  129OSM   C18S13884   1.376   0.615   8.295 -0.2237 -0.1924 -0.1851
  129OSM   H18S13885   1.400   0.719   8.328 -1.2310 -0.4052  1.3539
  129OSM   H18T13886   1.417   0.543   8.369 -0.3521  1.6406  1.7926
  129OSM   H18U13887   1.267   0.597   8.307 -0.5997  1.0827 -1.5001
  129OSM    C1F13888   1.103   1.086   6.808  0.2813  0.0698 -0.5131
  129OSM     OF13889   1.018   1.172   6.793 -0.3115 -0.0138  0.1476
  129OSM    C2F13890   1.242   1.124   6.847 -0.2115  0.5405  0.5219
  129OSM    H2F13891   1.246   1.231   6.818 -1.7342  0.3581 -0.4693
  129OSM    H2G13892   1.299   1.063   6.774 -1.8521 -0.2745 -0.1346
  129OSM    C3F13893   1.268   1.103   6.997  0.1260 -0.3529 -0.1919
  129OSM    H3F13894   1.232   1.004   7.032  0.8428 -1.3144 -2.0189
  129OSM    H3G13895   1.194   1.158   7.058 -0.8240 -0.7973 -0.9242
  129OSM    C4F13896   1.420   1.121   7.034  0.3382 -0.0994  0.1395
  129OSM    H4F13897   1.449   1.224   7.006  0.6928  0.2047  1.5228
  129OSM    H4G13898   1.477   1.045   6.977 -0.7957 -1.0611  0.2393
  129OSM    C5F13899   1.451   1.109   7.179 -0.1077  0.2103  1.0078
  129OSM    H5F13900   1.558   1.136   7.189 -0.3281  1.1760  0.8228
  129OSM    H5G13901   1.434   1.010   7.227 -1.9557 -0.1469 -0.2421
  129OSM    C6F13902   1.375   1.209   7.266  0.1127 -0.8969  0.2532
  129OSM    H6F13903   1.280   1.161   7.300  0.4281 -0.1742  2.3137
  129OSM    H6G13904   1.348   1.300   7.207 -2.2649 -1.7520 -0.1090
  129OSM    C7F13905   1.472   1.264   7.376 -0.3327 -0.4437  0.3841
  129OSM    H7F13906   1.565   1.300   7.326 -0.7977  1.2836  0.6981
  129OSM    H7G13907   1.496   1.180   7.444  1.4193 -2.1352 -2.1546
  129OSM    C8F13908   1.403   1.370   7.457  0.4741 -0.4714 -0.3712
  129OSM    H8F13909   1.293   1.356   7.456  0.3373  0.4880 -2.2020
  129OSM    H8G13910   1.422   1.468   7.407  1.0985 -1.2692 -1.7426
  129OSM    C9F13911   1.454   1.365   7.600 -0.0390 -0.4249 -0.6546
  129OSM    H9F13912   1.561   1.340   7.612  0.1766  1.3183  1.9772
  129OSM   C10F13913   1.377   1.345   7.713  0.3135  0.3854  0.3099
  129OSM   H10F13914   1.433   1.346   7.808  1.7528  1.1939 -0.5154
  129OSM   C11F13915   1.222   1.334   7.711 -0.1168 -0.0600  0.5083
  129OSM   H11F13916   1.174   1.358   7.614 -0.9301 -0.5313  0.7849
  129OSM   H11G13917   1.184   1.414   7.779  0.6631  0.4852  0.3215
  129OSM   C12F13918   1.182   1.199   7.764 -0.0255  0.5395 -0.5400
  129OSM   H12F13919   1.073   1.192   7.783  0.2136 -1.1959  0.3587
  129OSM   H12G13920   1.231   1.189   7.863 -0.2890  1.2667 -0.3296
  129OSM   C13F13921   1.230   1.074   7.678  0.0643 -0.0980 -0.8672
  129OSM   H13F13922   1.226   0.973   7.724 -0.9843  0.6580  0.7866
  129OSM   H13G13923   1.336   1.097   7.651 -0.6272  2.6268 -1.5004
  129OSM   C14F13924   1.145   1.068   7.552 -0.9605 -0.0441 -0.1796
  129OSM   H14F13925   1.145   1.166   7.500 -0.2986  1.1309  1.9407
  129OSM   H14G13926   1.043   1.047   7.591  0.5400  1.4208  5.3112
  129OSM   C15F13927   1.185   0.946   7.463 -0.6297  0.8102  0.5304
  129OSM   H15F13928   1.145   0.851   7.503  0.2600  0.8765  1.6267
  129OSM   H15G13929   1.295   0.933   7.467 -0.8835 -2.3736 -0.4243
  129OSM   C16F13930   1.122   0.960   7.320 -0.3273  0.0176 -0.2787
  129OSM   H16F13931   1.162   0.877   7.257 -0.5358  0.8956 -1.5981
  129OSM   H16G13932   1.147   1.043   7.251 -1.2520 -0.9601 -1.8686
  129OSM   C17F13933   0.970   0.948   7.322  0.2751  0.2632  0.0310
  129OSM   H17F13934   0.933   1.026   7.392 -0.4746  0.2029 -0.2939
  129OSM   H17G13935   0.932   0.854   7.366 -0.8280  0.6678 -0.0235
  129OSM   C18F13936   0.915   0.979   7.184  0.1599 -0.1933  0.3788
  129OSM   H18F13937   0.931   1.085   7.156  1.1382 -0.5794 -0.6313
  129OSM   H18G13938   0.807   0.961   7.168  0.5788 -1.1751 -1.5831
  129OSM   H18H13939   0.967   0.922   7.104  0.1388 -0.3939  0.5077
  130OSM      N13940   5.310   2.555   5.971  0.2549  0.1631 -0.1935
  130OSM    C1513941   5.216   2.562   6.086  1.3730  0.0643 -0.1290
  130OSM   H15A13942   5.114   2.556   6.052  1.7115 -4.0278 -1.0199
  130OSM   H15B13943   5.244   2.643   6.152 -0.4037  1.7796 -1.3914
  130OSM   H15C13944   5.210   2.475   6.151 -0.9939 -0.9259 -1.5609
  130OSM    C1413945   5.316   2.412   5.919 -0.7609 -0.6639 -0.1517
  130OSM   H14A13946   5.345   2.340   5.994  0.0851 -1.7416 -1.4576
  130OSM   H14B13947   5.379   2.402   5.832  0.8427  2.0081  0.6018
  130OSM   H14C13948   5.215   2.385   5.892 -1.0858  0.3503 -0.0039
  130OSM    C1313949   5.270   2.647   5.867  0.2257  0.3771  0.1656
  130OSM   H13A13950   5.333   2.636   5.780  0.0963 -0.9036  0.2056
  130OSM   H13B13951   5.270   2.748   5.904 -0.1476  0.6136 -0.4690
  130OSM   H13C13952   5.165   2.638   5.841 -0.2062  2.4291  0.9947
  130OSM    C1213953   5.449   2.583   6.033 -0.0381 -0.7513  0.5377
  130OSM   H12A13954   5.528   2.565   5.962 -0.0035 -1.1928  0.6846
  130OSM   H12B13955   5.468   2.508   6.108 -2.0450  0.8821  2.8604
  130OSM    C1113956   5.486   2.717   6.098  0.2972 -0.3808  0.2243
  130OSM   H11A13957   5.463   2.810   6.041 -0.2293 -0.9387 -0.5043
  130OSM   H11B13958   5.596   2.715   6.111  0.6189 -1.7797 -2.1532
  130OSM      P13959   5.466   2.648   6.347  0.3156  0.6157  0.2800
  130OSM    O1313960   5.367   2.640   6.454  0.3352 -0.0111  0.3928
  130OSM    O1413961   5.518   2.516   6.309  0.5904  0.4705  0.0498
  130OSM    O1113962   5.591   2.730   6.393  0.3401  0.5580 -0.4290
  130OSM    O1213963   5.415   2.729   6.222  0.2766  0.7846 -0.3909
  130OSM    C1S13964   5.593   2.863   6.436 -0.2476  0.3958  0.0480
  130OSM    H1S13965   5.504   2.914   6.392 -0.6666 -0.2971  0.0727
  130OSM    H1T13966   5.681   2.913   6.391 -1.3146 -0.1167 -2.8778
  130OSM     NF13967   5.551   3.018   6.633 -0.3790 -0.5913 -0.0285
  130OSM    HNF13968   5.629   3.077   6.652  0.0429 -0.8567 -0.8392
  130OSM    C2S13969   5.582   2.881   6.592  0.4116  0.9257 -0.3382
  130OSM    H2S13970   5.504   2.810   6.629 -0.7592  1.8167 -1.0679
  130OSM    C3S13971   5.719   2.841   6.656 -0.5291  0.2395  0.0376
  130OSM    H3S13972   5.792   2.914   6.615  0.5676 -0.6906  0.3152
  130OSM     O313973   5.763   2.711   6.627 -0.6492 -0.4689 -0.0581
  130OSM    HO313974   5.697   2.691   6.560 -1.7015  2.0663  0.1251
  130OSM    C4S13975   5.715   2.861   6.805  0.1648 -0.6617  0.6955
  130OSM    H4S13976   5.767   2.953   6.836 -1.6295  0.0381  1.8246
  130OSM    C5S13977   5.664   2.785   6.908  0.1006 -0.4769  0.7334
  130OSM    H5S13978   5.600   2.696   6.893 -2.7813  1.3245  1.5805
  130OSM    C6S13979   5.675   2.813   7.055  0.2776  0.1476 -0.2362
  130OSM    H6S13980   5.723   2.717   7.085  2.7153  1.6737  1.1406
  130OSM    H6T13981   5.574   2.825   7.099 -0.8013 -0.3185 -2.4900
  130OSM    C7S13982   5.767   2.924   7.100  0.5883 -0.5844 -0.0451
  130OSM    H7S13983   5.706   3.016   7.082  2.1814  0.3175 -1.0845
  130OSM    H7T13984   5.851   2.933   7.028  0.2542  0.6019 -0.3089
  130OSM    C8S13985   5.824   2.911   7.244 -0.0232 -0.1227 -0.1077
  130OSM    H8S13986   5.907   2.984   7.255 -0.2006  0.0023  0.4179
  130OSM    H8T13987   5.864   2.808   7.252 -2.2356 -0.9271  1.3425
  130OSM    C9S13988   5.719   2.916   7.358  0.0439  0.1295 -0.1486
  130OSM    H9S13989   5.633   2.848   7.341 -0.6705  0.6682  1.1052
  130OSM    H9T13990   5.670   3.015   7.369 -0.1407  0.1489 -1.0858
  130OSM   C10S13991   5.783   2.858   7.491 -0.5590  0.0094 -0.2049
  130OSM   H10S13992   5.869   2.924   7.516 -0.1887  0.1587 -1.7712
  130OSM   H10T13993   5.814   2.755   7.463  0.4928 -0.1122  1.2658
  130OSM   C11S13994   5.688   2.867   7.614  0.2034  0.1779 -0.4998
  130OSM   H11S13995   5.595   2.815   7.580  1.2757 -1.0923 -1.5950
  130OSM   H11T13996   5.661   2.972   7.639  0.0689  0.4506 -1.6992
  130OSM   C12S13997   5.750   2.794   7.739 -0.0428  0.0599 -0.4556
  130OSM   H12S13998   5.817   2.869   7.786  1.7382 -1.2747 -0.7537
  130OSM   H12T13999   5.802   2.698   7.723  3.5160  1.7444 -0.0157
  130OSM   C13S14000   5.656   2.785   7.861  0.4219  0.4188  0.1027
  130OSM   H13S14001   5.573   2.712   7.845 -0.5980  1.7118 -0.6459
  130OSM   H13T14002   5.605   2.880   7.884 -2.9164 -1.4100  0.9017
  130OSM   C14S14003   5.730   2.732   7.985 -0.2900 -0.4656 -0.9693
  130OSM   H14S14004   5.837   2.763   7.985 -0.1619 -0.6356 -4.0747
  130OSM   H14T14005   5.732   2.621   7.994 -0.7301 -0.3361  1.4037
  130OSM   C15S14006   5.670   2.782   8.118  0.2509 -0.7570  0.6159
  130OSM   H15S14007   5.565   2.749   8.128  0.2609 -0.7565  0.7160
  130OSM   H15T14008   5.686   2.892   8.121  0.5370 -0.7816  0.1207
  130OSM   C16S14009   5.745   2.733   8.245 -0.3840  0.3668 -1.0657
  130OSM   H16S14010   5.832   2.794   8.278 -1.9816  1.5997  1.1316
  130OSM   H16T14011   5.793   2.634   8.232  0.5149  0.9561 -2.4863
  130OSM   C17S14012   5.654   2.717   8.369  0.1564  0.3194 -0.1194
  130OSM   H17S14013   5.571   2.651   8.334 -0.0595  1.1179 -1.1699
  130OSM   H17T14014   5.622   2.822   8.386  2.6045  0.9695  0.8599
  130OSM   C18S14015   5.732   2.657   8.486 -0.2760 -0.2250  0.2936
  130OSM   H18S14016   5.806   2.732   8.523 -0.9198  1.5359 -1.7285
  130OSM   H18T14017   5.797   2.568   8.471  0.7218  0.2892  1.3719
  130OSM   H18U14018   5.660   2.641   8.568 -0.0739 -1.7691  0.2013
  130OSM    C1F14019   5.427   3.059   6.612 -0.6608 -0.3872  0.0685
  130OSM     OF14020   5.345   2.995   6.556  0.7076 -0.1815  0.1264
  130OSM    C2F14021   5.412   3.210   6.626  0.2885  0.1216  1.3075
  130OSM    H2F14022   5.474   3.264   6.551 -0.0838  0.0766  0.9704
  130OSM    H2G14023   5.441   3.235   6.731 -0.3319 -2.5470  2.1838
  130OSM    C3F14024   5.270   3.250   6.601  0.5121 -0.3732 -0.2043
  130OSM    H3F14025   5.204   3.198   6.674 -0.1269  0.2398 -0.3342
  130OSM    H3G14026   5.240   3.217   6.499 -0.5283 -0.4019  0.1062
  130OSM    C4F14027   5.250   3.398   6.603 -1.0490  0.8136 -0.2590
  130OSM    H4F14028   5.162   3.438   6.547 -2.8193  1.5722  2.8438
  130OSM    H4G14029   5.331   3.442   6.541 -0.1718 -2.2471 -1.4894
  130OSM    C5F14030   5.249   3.456   6.740 -0.0210 -0.7296  0.4752
  130OSM    H5F14031   5.243   3.566   6.726  0.3956 -0.9121 -1.3939
  130OSM    H5G14032   5.342   3.429   6.795 -0.2637  1.1012  1.8981
  130OSM    C6F14033   5.130   3.418   6.822 -0.3302  0.5419 -0.1353
  130OSM    H6F14034   5.134   3.311   6.853 -2.5241 -0.0193 -1.5698
  130OSM    H6G14035   5.046   3.427   6.749  1.5206  1.4550 -2.2642
  130OSM    C7F14036   5.100   3.507   6.938 -0.2996 -0.6740 -0.2147
  130OSM    H7F14037   5.090   3.615   6.912  1.5322 -0.3988  0.0755
  130OSM    H7G14038   5.186   3.506   7.008 -1.4246  2.5018  1.4178
  130OSM    C8F14039   4.995   3.450   7.033  0.1891  0.0533  0.0096
  130OSM    H8F14040   5.030   3.494   7.129 -0.5529  2.3277 -0.7069
  130OSM    H8G14041   5.000   3.339   7.038  1.7598  0.1049  0.1137
  130OSM    C9F14042   4.851   3.490   7.006  0.6995 -0.7406 -0.4582
  130OSM    H9F14043   4.809   3.431   6.923 -0.9446 -1.0716  0.5554
  130OSM   C10F14044   4.789   3.604   7.045  0.3587 -0.2798 -0.6053
  130OSM   H10F14045   4.682   3.615   7.022  0.4800 -0.4628 -1.2817
  130OSM   C11F14046   4.859   3.703   7.141  0.4225  0.8779 -0.0686
  130OSM   H11F14047   4.835   3.806   7.109  0.9833  0.5824 -1.5138
  130OSM   H11G14048   4.969   3.704   7.123  0.4209  0.7739 -0.0884
  130OSM   C12F14049   4.819   3.676   7.290 -0.2266 -0.4790  1.0369
  130OSM   H12F14050   4.860   3.575   7.310  2.5892  0.1042 -1.1681
  130OSM   H12G14051   4.708   3.673   7.297 -0.6355  0.0886 -3.0913
  130OSM   C13F14052   4.890   3.781   7.375  0.4175 -0.0666  0.0699
  130OSM   H13F14053   4.860   3.879   7.332 -0.5362  0.6248  2.1629
  130OSM   H13G14054   4.999   3.765   7.359  0.7170  1.9348 -0.1357
  130OSM   C14F14055   4.844   3.782   7.514  0.0812 -0.0127 -0.4537
  130OSM   H14F14056   4.733   3.772   7.510 -0.0125  1.1956 -1.4178
  130OSM   H14G14057   4.875   3.876   7.564  1.3277 -0.2973 -0.6573
  130OSM   C15F14058   4.929   3.685   7.603  0.7154 -0.4468  0.1093
  130OSM   H15F14059   5.032   3.725   7.602  1.2743 -1.8101 -1.2845
  130OSM   H15G14060   4.931   3.579   7.569 -0.6133 -0.2373 -0.6920
  130OSM   C16F14061   4.891   3.694   7.749  0.3815  0.5145  0.4700
  130OSM   H16F14062   4.782   3.683   7.762 -0.0110  3.9456  0.8542
  130OSM   H16G14063   4.926   3.792   7.788  1.3356  0.0425  0.8522
  130OSM   C17F14064   4.963   3.597   7.842  0.0883 -0.7549  0.1292
  130OSM   H17F14065   5.072   3.614   7.857 -0.2091  2.2061 -0.5682
  130OSM   H17G14066   4.954   3.496   7.797 -0.1264 -0.6306 -0.1109
  130OSM   C18F14067   4.892   3.610   7.976  0.1439  0.1654 -0.1264
  130OSM   H18F14068   4.900   3.712   8.018 -0.9915  0.0565  0.3867
  130OSM   H18G14069   4.948   3.559   8.057  1.4774  1.7519  0.0086
  130OSM   H18H14070   4.786   3.578   7.982  0.5026 -0.8526  1.1471
  131OSM      N14071   2.469   0.322   5.934  0.3640 -0.5313 -0.2604
  131OSM    C1514072   2.566   0.433   5.967 -0.0216  0.2368  0.2271
  131OSM   H15A14073   2.641   0.436   5.890  3.8306 -2.9767  3.3479
  131OSM   H15B14074   2.630   0.418   6.053  0.5184  1.6748  0.0994
  131OSM   H15C14075   2.509   0.524   5.975 -3.3095 -1.5307 -0.9841
  131OSM    C1414076   2.377   0.359   5.817  0.3613  0.9617  0.5804
  131OSM   H14A14077   2.324   0.269   5.789  1.5193 -0.6728  3.3265
  131OSM   H14B14078   2.449   0.367   5.737  2.9410 -1.4212  2.5069
  131OSM   H14C14079   2.313   0.447   5.821 -1.1834  0.0063 -1.2970
  131OSM    C1314080   2.547   0.202   5.888  0.1430 -0.1023  0.5119
  131OSM   H13A14081   2.619   0.171   5.963  1.0788  0.5615 -0.0901
  131OSM   H13B14082   2.609   0.226   5.803 -0.0887  1.1069  0.6668
  131OSM   H13C14083   2.483   0.120   5.860  3.2210 -2.0055 -1.6138
  131OSM    C1214084   2.380   0.289   6.052 -0.5259  0.9280 -0.1945
  131OSM   H12A14085   2.439   0.236   6.125 -0.9479  1.1092  0.2830
  131OSM   H12B14086   2.312   0.212   6.017 -1.5950  1.3397  0.9183
  131OSM    C1114087   2.296   0.397   6.124  0.1965  0.7261  0.8896
  131OSM   H11A14088   2.351   0.492   6.141 -1.4116  1.8026  0.2536
  131OSM   H11B14089   2.272   0.366   6.228 -0.8854  2.4035  1.1734
  131OSM      P14090   2.054   0.348   6.012 -0.2415 -0.2124  0.2960
  131OSM    O1314091   1.966   0.438   5.938  0.0299  0.5147 -0.0546
  131OSM    O1414092   2.095   0.224   5.945  0.0928  0.4143 -0.0820
  131OSM    O1114093   1.989   0.313   6.151 -0.1319 -0.3563 -0.1654
  131OSM    O1214094   2.186   0.429   6.041  0.2486  0.0210 -0.1724
  131OSM    C1S14095   2.041   0.231   6.258  0.0500 -0.6042  0.7536
  131OSM    H1S14096   2.119   0.290   6.310  0.2967  0.1987 -0.4667
  131OSM    H1T14097   2.093   0.138   6.227  1.3413  0.3179  0.0452
  131OSM     NF14098   1.979   0.113   6.474  0.2482  0.2366 -0.8571
  131OSM    HNF14099   2.001   0.016   6.473  0.4098  0.0489  3.3866
  131OSM    C2S14100   1.926   0.185   6.361 -0.1825 -0.3805  0.3208
  131OSM    H2S14101   1.873   0.276   6.398  0.7628  0.2930  0.0617
  131OSM    C3S14102   1.818   0.093   6.296 -0.1194 -0.4368  0.1126
  131OSM    H3S14103   1.863  -0.007   6.277 -0.2210 -0.1655 -1.7844
  131OSM     O314104   1.778   0.130   6.167  0.3344 -0.4079  0.0312
  131OSM    HO314105   1.840   0.200   6.146  1.1964 -1.5094 -1.2579
  131OSM    C4S14106   1.700   0.063   6.387 -0.1638  0.6442 -0.4839
  131OSM    H4S14107   1.715  -0.030   6.445  1.9488  1.9998  1.2888
  131OSM    C5S14108   1.584   0.130   6.403 -0.4866 -0.1575  0.1312
  131OSM    H5S14109   1.565   0.228   6.357 -0.1036  0.1693  0.6538
  131OSM    C6S14110   1.469   0.088   6.489  0.2604 -0.0655 -0.2043
  131OSM    H6S14111   1.482  -0.010   6.539  1.6466  0.0087 -0.3700
  131OSM    H6T14112   1.391   0.057   6.416  0.0792  0.6582 -0.3281
  131OSM    C7S14113   1.406   0.182   6.589  0.1214  0.3980  0.2293
  131OSM    H7S14114   1.391   0.277   6.532  1.4219  0.4991  0.0179
  131OSM    H7T14115   1.490   0.196   6.660 -1.1563  0.4743  1.7619
  131OSM    C8S14116   1.285   0.128   6.660  1.1972  0.5976 -0.3535
  131OSM    H8S14117   1.304   0.024   6.696  0.4741  0.8212  0.7108
  131OSM    H8T14118   1.200   0.124   6.588  0.9006  0.7376 -0.0156
  131OSM    C9S14119   1.240   0.204   6.786 -0.4448 -0.0960 -0.4671
  131OSM    H9S14120   1.137   0.176   6.817  0.3034 -0.8055  1.5295
  131OSM    H9T14121   1.232   0.314   6.767 -0.2729  0.0571  0.3098
  131OSM   C10S14122   1.328   0.175   6.903  0.8710 -0.7231 -0.6580
  131OSM   H10S14123   1.428   0.211   6.872 -0.7465  2.9654 -2.1144
  131OSM   H10T14124   1.324   0.066   6.925  1.1024 -0.6246 -0.1082
  131OSM   C11S14125   1.276   0.258   7.023 -0.2043 -0.3178 -0.0553
  131OSM   H11S14126   1.177   0.210   7.037  1.0549 -2.9812  0.2009
  131OSM   H11T14127   1.273   0.366   6.995 -0.4790 -0.0627  0.9363
  131OSM   C12S14128   1.353   0.242   7.148  0.1797  0.9489 -0.2116
  131OSM   H12S14129   1.304   0.318   7.214  0.0652  1.3401 -0.7378
  131OSM   H12T14130   1.456   0.274   7.122  0.4700 -0.3257 -0.6535
  131OSM   C13S14131   1.353   0.096   7.210 -0.0915  0.1787  0.0017
  131OSM   H13S14132   1.407   0.036   7.134 -1.3783 -1.1283  0.0639
  131OSM   H13T14133   1.251   0.054   7.226 -1.9550  3.8119 -0.9732
  131OSM   C14S14134   1.428   0.101   7.342 -0.0288  1.1294  0.2389
  131OSM   H14S14135   1.516   0.168   7.340  0.6553  0.2820  0.9920
  131OSM   H14T14136   1.470  -0.001   7.355 -0.2697  0.9474 -0.3408
  131OSM   C15S14137   1.345   0.126   7.472 -0.0538 -0.1300 -1.2565
  131OSM   H15S14138   1.268   0.046   7.472 -0.5301  0.3214 -2.0981
  131OSM   H15T14139   1.294   0.224   7.460 -0.0449  0.0969  0.3037
  131OSM   C16S14140   1.437   0.121   7.603 -0.0395 -0.6094 -0.0876
  131OSM   H16S14141   1.515   0.042   7.599  0.4609 -0.1291  0.0600
  131OSM   H16T14142   1.376   0.101   7.694 -0.8716 -1.3672 -0.8001
  131OSM   C17S14143   1.511   0.254   7.632  0.3184 -0.6852  0.3996
  131OSM   H17S14144   1.449   0.339   7.597 -0.4200 -1.3505  0.0467
  131OSM   H17T14145   1.605   0.270   7.575  0.9078  0.3492  1.6320
  131OSM   C18S14146   1.554   0.276   7.781 -0.2781  0.5760  0.0164
  131OSM   H18S14147   1.630   0.199   7.807 -0.0397  0.7134 -0.2607
  131OSM   H18T14148   1.469   0.265   7.852  0.0183 -0.6891  0.1915
  131OSM   H18U14149   1.608   0.372   7.793  1.4859 -0.5398  1.5088
  131OSM    C1F14150   2.047   0.176   6.561 -1.1200 -0.9747 -0.0318
  131OSM     OF14151   2.081   0.296   6.556 -0.4575 -0.2764 -0.0657
  131OSM    C2F14152   2.117   0.089   6.657  0.2538 -0.2130 -0.6274
  131OSM    H2F14153   2.210   0.049   6.610  1.6394 -0.8370  2.3582
  131OSM    H2G14154   2.063  -0.001   6.695  0.5851  0.1825  0.8700
  131OSM    C3F14155   2.172   0.167   6.778  0.3795 -0.4049  0.1139
  131OSM    H3F14156   2.078   0.210   6.818  0.4343  0.7596 -0.9732
  131OSM    H3G14157   2.241   0.249   6.750 -1.8210  2.1788  1.8448
  131OSM    C4F14158   2.238   0.074   6.876  0.4918  0.6630 -0.2973
  131OSM    H4F14159   2.331   0.026   6.837  0.6784  0.7787  0.0017
  131OSM    H4G14160   2.178  -0.013   6.909 -0.3398  1.3759  0.1032
  131OSM    C5F14161   2.281   0.149   7.002  0.3490  0.0733  0.3331
  131OSM    H5F14162   2.199   0.220   7.028  0.5023  1.3944 -2.4705
  131OSM    H5G14163   2.363   0.207   6.956  1.2200 -2.3227 -1.3286
  131OSM    C6F14164   2.323   0.063   7.126  0.7996  0.5939  1.0806
  131OSM    H6F14165   2.235   0.001   7.151 -0.9170  1.4498 -2.2835
  131OSM    H6G14166   2.332   0.136   7.209  1.2317  2.4307 -0.5255
  131OSM    C7F14167   2.463  -0.001   7.098  0.1338 -0.8448 -0.1714
  131OSM    H7F14168   2.513   0.058   7.018 -1.4141 -1.0131 -1.3101
  131OSM    H7G14169   2.456  -0.099   7.045  3.0503 -2.0816  1.4703
  131OSM    C8F14170   2.548  -0.007   7.222 -0.8261 -0.1626  0.1150
  131OSM    H8F14171   2.497  -0.066   7.301  1.4212 -0.9098  1.1014
  131OSM    H8G14172   2.549   0.090   7.276 -2.3473 -0.6120  1.0319
  131OSM    C9F14173   2.688  -0.053   7.191  0.5432  0.0981 -0.0129
  131OSM    H9F14174   2.721  -0.006   7.097 -2.4202  0.3084 -1.0431
  131OSM   C10F14175   2.765  -0.147   7.250 -0.3616  0.1391  0.6556
  131OSM   H10F14176   2.868  -0.154   7.212 -0.5850  0.8814 -0.1164
  131OSM   C11F14177   2.734  -0.238   7.375 -0.5275 -0.6615 -0.4890
  131OSM   H11F14178   2.762  -0.346   7.372 -2.3474 -1.2134  0.6579
  131OSM   H11G14179   2.626  -0.238   7.403  0.3200 -1.4696  3.3244
  131OSM   C12F14180   2.804  -0.192   7.501  0.0437 -0.3497  0.5627
  131OSM   H12F14181   2.912  -0.189   7.476 -0.2555 -0.9866 -0.8564
  131OSM   H12G14182   2.789  -0.270   7.578 -1.3441 -1.9746 -1.2608
  131OSM   C13F14183   2.762  -0.062   7.563 -0.2792 -0.5823 -0.1255
  131OSM   H13F14184   2.655  -0.046   7.538 -0.5780 -1.8121  0.2911
  131OSM   H13G14185   2.808   0.025   7.513  0.8523 -0.1483  1.5849
  131OSM   C14F14186   2.773  -0.035   7.720  0.0563 -0.0128  0.5033
  131OSM   H14F14187   2.737   0.068   7.742  3.1233  1.5059 -0.9407
  131OSM   H14G14188   2.879  -0.035   7.754 -0.0759  2.7900  1.2002
  131OSM   C15F14189   2.685  -0.126   7.816 -0.1376  0.4172 -0.3592
  131OSM   H15F14190   2.596  -0.158   7.759 -0.8193  0.4289  0.6742
  131OSM   H15G14191   2.646  -0.064   7.899  0.3028 -1.2683  1.1811
  131OSM   C16F14192   2.752  -0.249   7.876 -0.7144 -0.7245  0.4856
  131OSM   H16F14193   2.858  -0.227   7.903 -1.0384  1.4457  0.1956
  131OSM   H16G14194   2.749  -0.334   7.805  1.3595  0.5676 -1.3179
  131OSM   C17F14195   2.679  -0.293   8.008 -0.2910  0.1620  0.1191
  131OSM   H17F14196   2.580  -0.338   7.990 -0.5547 -0.0070  1.8358
  131OSM   H17G14197   2.658  -0.203   8.071 -1.6623 -0.1643  0.1625
  131OSM   C18F14198   2.757  -0.387   8.092 -0.3689 -0.3434 -0.1486
  131OSM   H18F14199   2.715  -0.391   8.195 -3.0419  0.4023 -1.0996
  131OSM   H18G14200   2.864  -0.361   8.094 -0.3301 -0.5141  0.1066
  131OSM   H18H14201   2.757  -0.493   8.058  0.6365 -0.4035  0.0281
  132OSM      N14202   4.436   6.134   6.291 -0.7324 -0.1742  0.1491
  132OSM    C1514203   4.367   6.235   6.380  1.1092 -0.8380 -0.6210
  132OSM   H15A14204   4.337   6.328   6.335  1.6889 -0.6107 -0.5528
  132OSM   H15B14205   4.436   6.265   6.458  0.2680  2.6812 -1.0487
  132OSM   H15C14206   4.279   6.193   6.427 -0.3464  1.8189 -0.7574
  132OSM    C1414207   4.443   6.000   6.359 -0.0892 -0.3534  0.6261
  132OSM   H14A14208   4.492   6.001   6.456  2.4577 -0.4636 -0.5894
  132OSM   H14B14209   4.491   5.926   6.297 -0.2940  0.5478 -0.6482
  132OSM   H14C14210   4.341   5.968   6.373 -1.3095  2.2303 -1.4257
  132OSM    C1314211   4.365   6.110   6.164 -0.0392  0.1910  0.5119
  132OSM   H13A14212   4.393   6.014   6.123  0.8601  1.3277 -1.6828
  132OSM   H13B14213   4.387   6.180   6.085  3.2988 -1.0840  0.1624
  132OSM   H13C14214   4.260   6.110   6.188 -0.1928 -0.7295 -0.1216
  132OSM    C1214215   4.580   6.181   6.264 -0.1992  0.2274 -0.2965
  132OSM   H12A14216   4.593   6.277   6.216  0.9922 -0.5766 -1.6611
  132OSM   H12B14217   4.631   6.112   6.198 -0.8622 -0.0352 -0.5364
  132OSM    C1114218   4.677   6.190   6.387 -0.3626  0.1451  0.0424
  132OSM   H11A14219   4.685   6.095   6.444 -1.2202  0.6640  1.0471
  132OSM   H11B14220   4.628   6.257   6.460 -0.7839  0.8182 -0.8334
  132OSM      P14221   4.900   6.170   6.258 -0.1577 -0.1530 -0.2114
  132OSM    O1314222   4.827   6.104   6.150  0.1649  0.1542 -0.1420
  132OSM    O1414223   5.011   6.262   6.218  0.5397  0.0124  0.6510
  132OSM    O1114224   4.953   6.063   6.351 -0.2307  0.8586  0.2918
  132OSM    O1214225   4.805   6.249   6.354 -0.2679  0.1545  0.1755
  132OSM    C1S14226   5.002   6.096   6.481  0.0641  0.2157  0.0146
  132OSM    H1S14227   4.957   6.188   6.523 -0.5229 -0.4463  0.8557
  132OSM    H1T14228   5.111   6.115   6.488  0.2262 -1.2121  1.6085
  132OSM     NF14229   4.975   6.010   6.701 -0.0586  0.3445  0.0438
  132OSM    HNF14230   5.066   6.019   6.742 -0.3557  1.7655  0.4548
  132OSM    C2S14231   4.968   5.969   6.560  0.2036  0.1322  0.4280
  132OSM    H2S14232   4.863   5.943   6.534 -0.2294  1.9769  0.1839
  132OSM    C3S14233   5.053   5.850   6.519 -0.4607  0.2669  0.6172
  132OSM    H3S14234   5.158   5.879   6.542 -0.3557 -1.1278  2.0377
  132OSM     O314235   5.061   5.817   6.379  0.5796  0.3388  0.3032
  132OSM    HO314236   5.044   5.898   6.331  1.6089  1.1848  1.2960
  132OSM    C4S14237   5.001   5.728   6.593 -0.3032  0.2207 -0.1698
  132OSM    H4S14238   4.903   5.686   6.564 -0.0215  0.0381 -0.8819
  132OSM    C5S14239   5.064   5.662   6.698  0.1405  0.5176  0.2458
  132OSM    H5S14240   5.160   5.695   6.741  0.4757 -1.1573  0.8573
  132OSM    C6S14241   4.995   5.542   6.762  0.4091 -0.1021  0.3458
  132OSM    H6S14242   5.063   5.453   6.756  0.8037  0.0110  2.5325
  132OSM    H6T14243   4.902   5.526   6.704 -1.8014  2.8699  2.8173
  132OSM    C7S14244   4.952   5.562   6.908 -0.3824  0.3057 -0.8816
  132OSM    H7S14245   4.899   5.657   6.929 -2.7027 -1.2561  0.8132
  132OSM    H7T14246   5.045   5.572   6.968  0.0184 -0.6911 -1.3169
  132OSM    C8S14247   4.870   5.441   6.965 -1.7617 -1.4472  0.1068
  132OSM    H8S14248   4.944   5.359   6.973  1.0765  0.9528 -0.1915
  132OSM    H8T14249   4.793   5.428   6.885 -0.3948 -1.7206 -1.2039
  132OSM    C9S14250   4.799   5.475   7.098  0.4714 -0.3526 -0.1517
  132OSM    H9S14251   4.723   5.398   7.122  0.5471 -0.2367  0.4954
  132OSM    H9T14252   4.734   5.564   7.089  0.6205 -0.1320  0.7669
  132OSM   C10S14253   4.895   5.498   7.214 -0.3054 -0.0418 -0.1834
  132OSM   H10S14254   4.959   5.585   7.190 -2.8299  1.4505 -2.0285
  132OSM   H10T14255   4.965   5.411   7.220 -0.4373 -0.0790  1.1356
  132OSM   C11S14256   4.822   5.503   7.355 -0.8437 -0.3398 -0.0284
  132OSM   H11S14257   4.762   5.412   7.372 -0.7879 -0.3301  0.2375
  132OSM   H11T14258   4.766   5.598   7.365 -0.2596  0.0402 -0.2811
  132OSM   C12S14259   4.923   5.503   7.475 -0.7004 -0.4339  0.0934
  132OSM   H12S14260   4.980   5.598   7.473 -0.2861 -0.6896 -0.4799
  132OSM   H12T14261   4.994   5.420   7.456  0.8097  0.8005  0.1419
  132OSM   C13S14262   4.852   5.486   7.611  0.2786 -0.4177  0.2891
  132OSM   H13S14263   4.796   5.390   7.612 -1.5409  0.5525 -1.0848
  132OSM   H13T14264   4.773   5.563   7.623  1.8125  1.8403 -2.6911
  132OSM   C14S14265   4.954   5.496   7.722  0.1584 -0.1778 -0.6224
  132OSM   H14S14266   4.963   5.603   7.750 -0.4382 -0.3801  0.4056
  132OSM   H14T14267   5.046   5.441   7.695 -0.9696 -1.6535 -1.6414
  132OSM   C15S14268   4.906   5.427   7.850 -0.4838 -0.4048  0.3265
  132OSM   H15S14269   4.913   5.319   7.824  1.6746 -0.4917  1.0650
  132OSM   H15T14270   4.802   5.454   7.878 -0.1536  0.6031  0.6278
  132OSM   C16S14271   4.984   5.452   7.979  0.3216  0.2558  0.4261
  132OSM   H16S14272   4.983   5.560   8.001  1.3560 -0.3059  3.7271
  132OSM   H16T14273   5.089   5.427   7.955  0.4103  1.9364 -1.2030
  132OSM   C17S14274   4.936   5.356   8.089 -0.2337 -0.7296  0.7237
  132OSM   H17S14275   4.929   5.254   8.045  2.9579  0.4955 -3.3187
  132OSM   H17T14276   4.835   5.388   8.120 -1.4650 -2.0696 -1.6088
  132OSM   C18S14277   5.029   5.361   8.208  0.6654 -0.0887 -0.1527
  132OSM   H18S14278   4.998   5.292   8.289 -1.9591  1.4066  0.2213
  132OSM   H18T14279   5.036   5.464   8.249  0.3908 -0.0567 -0.1810
  132OSM   H18U14280   5.132   5.330   8.180 -0.2436 -2.7131 -0.9039
  132OSM    C1F14281   4.871   6.065   6.766 -0.3368 -0.4592  0.3393
  132OSM     OF14282   4.766   6.091   6.716  0.1398 -0.2936 -0.6286
  132OSM    C2F14283   4.879   6.106   6.917  0.4077  0.0922  0.3566
  132OSM    H2F14284   4.892   6.216   6.914  1.1050 -0.0058 -0.5780
  132OSM    H2G14285   4.970   6.060   6.961  1.8412  0.4057 -2.1323
  132OSM    C3F14286   4.757   6.065   7.007 -0.3066 -0.2598 -0.0190
  132OSM    H3F14287   4.782   5.972   7.062  3.6756  1.0681  0.7412
  132OSM    H3G14288   4.666   6.053   6.944 -0.7240  1.1754  0.2715
  132OSM    C4F14289   4.727   6.173   7.108  0.2240  0.6058 -0.0867
  132OSM    H4F14290   4.685   6.260   7.055  2.7195  2.2867  0.4914
  132OSM    H4G14291   4.814   6.215   7.163  0.5241 -0.6182  0.4114
  132OSM    C5F14292   4.629   6.113   7.214  0.2094  0.4528 -0.2791
  132OSM    H5F14293   4.670   6.021   7.262 -0.0694  0.0222 -0.8605
  132OSM    H5G14294   4.532   6.087   7.169 -0.0312 -1.3727  1.1711
  132OSM    C6F14295   4.613   6.208   7.333  0.3347  0.4816 -0.0325
  132OSM    H6F14296   4.571   6.308   7.311  3.0474  1.7931  0.3881
  132OSM    H6G14297   4.717   6.227   7.367  0.2548  1.1546 -0.1523
  132OSM    C7F14298   4.537   6.141   7.448 -0.5669 -0.2470 -0.7114
  132OSM    H7F14299   4.558   6.033   7.458 -0.3168 -0.0537  1.1698
  132OSM    H7G14300   4.427   6.150   7.431 -1.0889 -0.6222  1.9691
  132OSM    C8F14301   4.565   6.217   7.583  0.1351 -0.1908 -0.1414
  132OSM    H8F14302   4.556   6.325   7.556 -1.1370 -0.6963 -1.8899
  132OSM    H8G14303   4.670   6.198   7.617  0.1748  1.7806  1.0427
  132OSM    C9F14304   4.461   6.185   7.690  0.6947  0.2556 -0.4583
  132OSM    H9F14305   4.355   6.183   7.659 -0.0158  3.5687  1.3006
  132OSM   C10F14306   4.476   6.181   7.823 -0.3628  0.2298 -0.0540
  132OSM   H10F14307   4.382   6.159   7.876 -1.8041  2.8399 -1.3011
  132OSM   C11F14308   4.608   6.213   7.892  0.3814  0.3691 -0.2193
  132OSM   H11F14309   4.692   6.206   7.819 -0.8097 -0.2650 -1.5708
  132OSM   H11G14310   4.629   6.131   7.964  0.7288 -0.1269 -0.8685
  132OSM   C12F14311   4.622   6.354   7.958  0.0804 -0.7748 -0.3061
  132OSM   H12F14312   4.569   6.432   7.898  0.0665 -0.0828  0.5919
  132OSM   H12G14313   4.729   6.379   7.970 -0.3500  1.0462 -0.0374
  132OSM   C13F14314   4.550   6.364   8.096 -0.0730  0.1264 -0.5729
  132OSM   H13F14315   4.597   6.281   8.154 -0.2359  0.8797  0.6654
  132OSM   H13G14316   4.442   6.341   8.082 -0.1036 -1.7509  1.9838
  132OSM   C14F14317   4.561   6.488   8.183 -0.3666 -0.3640  0.5758
  132OSM   H14F14318   4.505   6.567   8.128  1.2773  0.2348 -0.2845
  132OSM   H14G14319   4.669   6.513   8.192 -0.6724  1.9231 -1.0963
  132OSM   C15F14320   4.502   6.470   8.325  0.3139 -0.0725 -0.3263
  132OSM   H15F14321   4.516   6.570   8.373  1.6333  0.2608 -1.3530
  132OSM   H15G14322   4.544   6.383   8.380  3.6605  0.0384 -2.4460
  132OSM   C16F14323   4.348   6.444   8.323 -0.8070 -0.4223 -0.1375
  132OSM   H16F14324   4.324   6.364   8.251 -2.0663 -0.8346  0.7253
  132OSM   H16G14325   4.303   6.538   8.284  1.0549  0.8780  0.6391
  132OSM   C17F14326   4.290   6.414   8.459  0.2146  0.3175 -0.2197
  132OSM   H17F14327   4.314   6.498   8.528 -0.6296  1.1418 -0.8988
  132OSM   H17G14328   4.339   6.321   8.496  1.6679  0.7644 -0.9153
  132OSM   C18F14329   4.139   6.398   8.467 -0.8566  0.0927  0.4321
  132OSM   H18F14330   4.121   6.364   8.571  0.2967 -0.1225  0.5675
  132OSM   H18G14331   4.108   6.310   8.407  3.0868 -2.1767  1.3941
  132OSM   H18H14332   4.077   6.490   8.459  0.0201  0.6988  0.4997
  133OSM      N14333   3.635   5.966   5.835  0.1122  0.6657  0.5794
  133OSM    C1514334   3.654   5.821   5.799 -0.5871 -0.0737  0.2727
  133OSM   H15A14335   3.577   5.770   5.854  0.7524 -1.3236  1.0608
  133OSM   H15B14336   3.748   5.776   5.825 -1.9525 -2.5435  1.2685
  133OSM   H15C14337   3.625   5.813   5.695  0.9468  0.5394 -0.2402
  133OSM    C1414338   3.729   6.048   5.756 -0.0446  0.3447  0.4121
  133OSM   H14A14339   3.831   6.019   5.777 -0.1479  0.6318  1.3480
  133OSM   H14B14340   3.726   6.150   5.791 -0.9787 -0.3719  2.5756
  133OSM   H14C14341   3.706   6.048   5.650 -0.1882  0.8022  0.4425
  133OSM    C1314342   3.495   6.008   5.794  0.5935  0.3861  0.4741
  133OSM   H13A14343   3.479   5.991   5.689  2.3601  3.0643 -0.3556
  133OSM   H13B14344   3.481   6.115   5.799 -1.5757  0.2869 -1.7127
  133OSM   H13C14345   3.427   5.957   5.860  0.3379 -3.4932 -2.4259
  133OSM    C1214346   3.648   5.976   5.987 -0.1084  0.1805  0.3194
  133OSM   H12A14347   3.749   5.947   6.013  0.5516  4.1187  3.0190
  133OSM   H12B14348   3.571   5.914   6.029  0.6226 -2.4809 -1.9882
  133OSM    C1114349   3.630   6.117   6.059  0.8294  0.5666 -0.3119
  133OSM   H11A14350   3.632   6.091   6.167  0.8522  1.1327 -0.1746
  133OSM   H11B14351   3.535   6.169   6.037  1.6268  2.6821  0.9183
  133OSM      P14352   3.855   6.239   6.113  0.3566  0.0932 -0.5820
  133OSM    O1314353   3.961   6.301   6.034 -0.0678  0.3486 -0.1754
  133OSM    O1414354   3.805   6.320   6.227 -0.6586 -0.1393  0.5050
  133OSM    O1114355   3.919   6.100   6.156 -0.4856  0.1368  0.1397
  133OSM    O1214356   3.733   6.208   6.022 -0.0726 -0.5886 -0.0112
  133OSM    C1S14357   4.022   6.094   6.264  0.1016  0.0329  0.6744
  133OSM    H1S14358   4.060   6.195   6.292  2.0537 -0.8128  1.1982
  133OSM    H1T14359   4.112   6.035   6.237  3.1390  3.8583  1.5875
  133OSM     NF14360   4.052   6.050   6.513 -0.4465 -0.3618  0.4595
  133OSM    HNF14361   4.099   5.963   6.528  0.4886  0.1099  0.3642
  133OSM    C2S14362   3.962   6.040   6.402  0.4192  0.1196  0.1676
  133OSM    H2S14363   3.866   6.092   6.421  0.8331  1.1478 -0.4518
  133OSM    C3S14364   3.921   5.886   6.381  0.1049  0.2226 -0.1863
  133OSM    H3S14365   4.018   5.832   6.375 -0.6682 -1.3804  0.8782
  133OSM     O314366   3.856   5.858   6.258 -0.4932  0.6447 -0.4148
  133OSM    HO314367   3.880   5.934   6.205  1.8337 -0.2030 -0.6821
  133OSM    C4S14368   3.844   5.837   6.499  0.0136 -0.3542  0.2275
  133OSM    H4S14369   3.897   5.759   6.555 -0.6418  0.7529  2.4990
  133OSM    C5S14370   3.718   5.889   6.530 -0.3983 -0.0271  0.4266
  133OSM    H5S14371   3.669   5.969   6.472 -1.4137 -0.3574  0.7964
  133OSM    C6S14372   3.634   5.847   6.649 -0.2856  0.2906  0.3942
  133OSM    H6S14373   3.541   5.803   6.608  0.6251  0.4129 -2.0265
  133OSM    H6T14374   3.596   5.938   6.699 -0.2753  0.5566 -0.0710
  133OSM    C7S14375   3.702   5.754   6.751  0.1602  0.2887 -0.7753
  133OSM    H7S14376   3.803   5.791   6.781 -0.9868  1.3181  2.2903
  133OSM    H7T14377   3.713   5.650   6.714  0.7382 -0.4247  1.2603
  133OSM    C8S14378   3.621   5.734   6.881 -0.3595  0.3602  0.4491
  133OSM    H8S14379   3.593   5.831   6.929  0.5310  0.5788  0.5307
  133OSM    H8T14380   3.685   5.692   6.961 -1.2604  1.3592  1.7490
  133OSM    C9S14381   3.489   5.651   6.872  0.0286  0.0571 -0.7337
  133OSM    H9S14382   3.520   5.570   6.802 -0.8876  1.7063 -3.1734
  133OSM    H9T14383   3.411   5.712   6.822  0.3653  1.3440  0.2418
  133OSM   C10S14384   3.448   5.581   7.007  1.0502  0.7122  0.5074
  133OSM   H10S14385   3.528   5.511   7.039  1.7524  0.5226 -1.4948
  133OSM   H10T14386   3.352   5.527   6.998  1.7059 -0.7386  1.6614
  133OSM   C11S14387   3.417   5.679   7.108  0.8511 -0.0901  0.2205
  133OSM   H11S14388   3.312   5.710   7.090  0.2462 -1.5065  1.0705
  133OSM   H11T14389   3.477   5.770   7.122  0.7095  0.1240 -0.5177
  133OSM   C12S14390   3.394   5.619   7.249 -0.4498  0.2072  0.3402
  133OSM   H12S14391   3.387   5.707   7.317 -2.8477  1.9430 -1.9571
  133OSM   H12T14392   3.483   5.559   7.280 -1.8439 -0.6311  3.0898
  133OSM   C13S14393   3.275   5.526   7.262  0.4487  0.0854  0.3779
  133OSM   H13S14394   3.280   5.431   7.205  0.5554  0.7067 -0.6602
  133OSM   H13T14395   3.176   5.568   7.233 -0.2181 -1.9916 -0.4871
  133OSM   C14S14396   3.254   5.483   7.408 -0.1859  0.5969  0.0840
  133OSM   H14S14397   3.353   5.466   7.457  0.7162 -3.4947 -2.7309
  133OSM   H14T14398   3.212   5.381   7.407  1.4667 -0.1095 -0.5277
  133OSM   C15S14399   3.164   5.583   7.487  0.1818 -0.5106  0.1893
  133OSM   H15S14400   3.062   5.596   7.444  0.7394 -2.7860 -2.0402
  133OSM   H15T14401   3.203   5.686   7.476  2.4869 -1.0803  2.1851
  133OSM   C16S14402   3.144   5.544   7.636 -0.0814 -1.1185  0.2303
  133OSM   H16S14403   3.109   5.439   7.647 -1.9518 -0.3941  1.7816
  133OSM   H16T14404   3.067   5.611   7.681  1.0354 -0.6367  1.4984
  133OSM   C17S14405   3.264   5.562   7.730  0.2149  0.3839 -0.0371
  133OSM   H17S14406   3.275   5.665   7.769 -2.5541  0.3325  1.1281
  133OSM   H17T14407   3.348   5.522   7.669  0.3053 -2.0830  1.5658
  133OSM   C18S14408   3.256   5.466   7.855  0.6184  0.4314  0.6711
  133OSM   H18S14409   3.211   5.368   7.830  2.3443 -0.5808  1.3530
  133OSM   H18T14410   3.203   5.508   7.943 -0.3082  3.5780 -1.2449
  133OSM   H18U14411   3.358   5.445   7.894  0.6479 -0.8815 -0.0610
  133OSM    C1F14412   4.093   6.168   6.560 -0.6661 -0.3288  0.2833
  133OSM     OF14413   4.055   6.275   6.502 -0.5267  0.5645 -0.3260
  133OSM    C2F14414   4.173   6.167   6.687 -0.3044  0.2728  0.1000
  133OSM    H2F14415   4.244   6.252   6.680 -0.2029  0.1359 -0.6095
  133OSM    H2G14416   4.232   6.073   6.689 -1.8628 -0.8616 -2.1194
  133OSM    C3F14417   4.079   6.187   6.802  0.4290  0.2149 -0.5470
  133OSM    H3F14418   4.017   6.277   6.786 -0.5051  0.3416  2.9251
  133OSM    H3G14419   4.127   6.198   6.902 -1.1127 -2.7242  0.6421
  133OSM    C4F14420   3.982   6.070   6.820  0.9204  0.1191 -0.3465
  133OSM    H4F14421   4.001   5.995   6.740  0.6804  0.8674 -1.1270
  133OSM    H4G14422   3.879   6.098   6.791  0.3702 -0.2671  1.1408
  133OSM    C5F14423   3.996   6.010   6.962  0.4572 -0.2242 -0.1326
  133OSM    H5F14424   4.104   5.994   6.980  0.3707 -1.7077 -0.7479
  133OSM    H5G14425   3.955   5.906   6.958  0.0508 -0.0544 -0.4239
  133OSM    C6F14426   3.915   6.074   7.080 -0.1355 -0.0405 -0.5554
  133OSM    H6F14427   3.812   6.106   7.053  0.9944  2.8579 -1.8214
  133OSM    H6G14428   3.962   6.171   7.109 -2.4936  1.1909 -0.5580
  133OSM    C7F14429   3.902   5.982   7.203 -0.2732  0.2516  1.2425
  133OSM    H7F14430   3.843   5.898   7.158  1.2206  0.2279 -0.7935
  133OSM    H7G14431   3.840   6.035   7.278 -2.5029 -1.3189  0.6349
  133OSM    C8F14432   4.034   5.932   7.254  0.2211 -0.1879  0.0292
  133OSM    H8F14433   4.103   5.886   7.180 -1.2054 -1.3396 -0.6544
  133OSM    H8G14434   4.009   5.845   7.319  3.2737 -1.6871 -0.6334
  133OSM    C9F14435   4.111   6.033   7.333  0.0449 -0.1791  0.1407
  133OSM    H9F14436   4.200   6.061   7.275 -1.7550 -0.3801 -2.9125
  133OSM   C10F14437   4.088   6.076   7.457  0.2340 -0.3860  0.1555
  133OSM   H10F14438   4.162   6.149   7.493  0.0778 -0.1175 -0.0631
  133OSM   C11F14439   3.981   6.026   7.551  0.4301  0.0812 -0.4935
  133OSM   H11F14440   3.972   5.915   7.543 -0.9721  0.2062 -0.8920
  133OSM   H11G14441   3.885   6.062   7.508 -0.2754  0.4382  1.3100
  133OSM   C12F14442   3.975   6.092   7.696  0.3935 -0.2623  0.0826
  133OSM   H12F14443   3.880   6.066   7.746  0.0294  1.8715  0.5936
  133OSM   H12G14444   3.992   6.201   7.689 -0.7908 -0.0831 -0.1317
  133OSM   C13F14445   4.076   6.035   7.792 -1.2357 -0.3797 -0.4969
  133OSM   H13F14446   4.177   6.047   7.749 -0.9718 -1.1203 -0.1054
  133OSM   H13G14447   4.053   5.926   7.799  1.0847 -0.9355 -0.7242
  133OSM   C14F14448   4.064   6.092   7.939 -0.2361 -0.3921  0.3527
  133OSM   H14F14449   3.955   6.109   7.953  0.1313  2.7268  0.1530
  133OSM   H14G14450   4.102   6.196   7.935 -0.7339 -0.2359 -2.6600
  133OSM   C15F14451   4.120   5.992   8.039 -0.5732  0.0886 -0.8116
  133OSM   H15F14452   4.223   5.958   8.017 -0.2149  1.3314 -1.1687
  133OSM   H15G14453   4.051   5.906   8.049 -1.8390  1.1989  0.4762
  133OSM   C16F14454   4.123   6.058   8.179  0.5650 -0.2176 -0.1972
  133OSM   H16F14455   4.024   6.084   8.223  0.6875  0.6549 -0.4184
  133OSM   H16G14456   4.182   6.152   8.175  0.9018 -0.4619 -1.3955
  133OSM   C17F14457   4.197   5.957   8.273  0.3075 -0.4501  0.3287
  133OSM   H17F14458   4.301   5.952   8.234  1.3424  0.7524  2.7024
  133OSM   H17G14459   4.157   5.854   8.267  0.0978 -0.2931 -1.5475
  133OSM   C18F14460   4.201   6.014   8.412  0.1071 -0.0820 -0.5226
  133OSM   H18F14461   4.262   6.107   8.420  0.5551 -0.2697 -1.5375
  133OSM   H18G14462   4.238   5.942   8.488  0.1318  2.3559  1.9217
  133OSM   H18H14463   4.102   6.044   8.453  0.6170  0.1292  0.6000
  134OSM      N14464   6.733   3.259   6.475  0.3757  0.3143  0.5659
  134OSM    C1514465   6.644   3.183   6.573 -0.4169 -0.0703 -0.0696
  134OSM   H15A14466   6.702   3.097   6.603  0.2796  0.4774  0.1943
  134OSM   H15B14467   6.549   3.157   6.529  0.6956 -0.9098 -2.1134
  134OSM   H15C14468   6.624   3.245   6.659  2.1563  0.6679  0.0694
  134OSM    C1414469   6.877   3.265   6.526  0.0920  0.4395 -0.4504
  134OSM   H14A14470   6.881   3.324   6.617  0.3933  0.3462 -0.4006
  134OSM   H14B14471   6.950   3.309   6.460 -0.5772  0.9480 -0.8619
  134OSM   H14C14472   6.913   3.166   6.549  1.0168  0.4853 -1.6189
  134OSM    C1314473   6.752   3.179   6.343 -0.1842 -0.4294  0.4713
  134OSM   H13A14474   6.659   3.146   6.300  0.7512 -1.6425 -0.7019
  134OSM   H13B14475   6.813   3.091   6.355  0.8118  0.0743 -0.6523
  134OSM   H13C14476   6.811   3.235   6.272  2.0335 -3.1038  0.0012
  134OSM    C1214477   6.681   3.401   6.440 -0.2581 -0.2467  0.4609
  134OSM   H12A14478   6.586   3.387   6.392 -2.0589  2.8135  2.7425
  134OSM   H12B14479   6.747   3.438   6.363 -1.4593  0.2772 -0.3310
  134OSM    C1114480   6.655   3.501   6.551  0.4303 -0.1599  0.1474
  134OSM   H11A14481   6.609   3.585   6.495  0.5641 -0.2869 -0.1579
  134OSM   H11B14482   6.749   3.541   6.595 -0.8501  1.8649  1.2052
  134OSM      P14483   6.407   3.458   6.601 -0.0586 -0.1139  0.3761
  134OSM    O1314484   6.352   3.585   6.652  0.1560  0.5236 -0.0279
  134OSM    O1414485   6.385   3.428   6.463 -0.0858  0.3843  0.2156
  134OSM    O1114486   6.340   3.342   6.682 -0.0123  0.0089  0.1104
  134OSM    O1214487   6.561   3.454   6.645  0.4579 -0.8778 -0.0602
  134OSM    C1S14488   6.382   3.301   6.815 -0.0059 -0.0190  0.6832
  134OSM    H1S14489   6.363   3.385   6.885  0.3733  0.8672 -0.2519
  134OSM    H1T14490   6.490   3.277   6.812 -0.4725 -2.3343 -0.1687
  134OSM     NF14491   6.313   3.162   7.003  0.5975 -0.1421  0.0797
  134OSM    HNF14492   6.385   3.103   7.040 -0.3476 -1.1785  0.3105
  134OSM    C2S14493   6.303   3.178   6.857  0.1440  0.0789  0.8762
  134OSM    H2S14494   6.198   3.199   6.828  0.1891 -3.3560 -2.5388
  134OSM    C3S14495   6.374   3.066   6.773  0.3444  0.2539  0.0906
  134OSM    H3S14496   6.484   3.069   6.786  1.0469  1.5425 -4.5069
  134OSM     O314497   6.366   3.079   6.627  0.2893  0.0140 -0.3010
  134OSM    HO314498   6.338   3.171   6.622 -1.1202 -0.4218 -0.9217
  134OSM    C4S14499   6.320   2.933   6.816  0.2015 -0.0124  0.3624
  134OSM    H4S14500   6.373   2.905   6.908 -0.3779 -1.3817  0.3031
  134OSM    C5S14501   6.223   2.858   6.773  0.0887  0.3310  0.2696
  134OSM    H5S14502   6.156   2.881   6.689  0.6771 -1.9977 -0.9119
  134OSM    C6S14503   6.172   2.729   6.836 -0.1786 -0.0834 -0.2673
  134OSM    H6S14504   6.202   2.651   6.763  2.5417  2.7266 -2.4233
  134OSM    H6T14505   6.061   2.724   6.831 -0.1983  0.4618 -0.5690
  134OSM    C7S14506   6.229   2.674   6.967 -0.3125  0.7873 -0.1971
  134OSM    H7S14507   6.340   2.667   6.973 -0.3123  1.7441  1.4992
  134OSM    H7T14508   6.200   2.567   6.982  1.0892  0.2901 -0.7911
  134OSM    C8S14509   6.170   2.748   7.084 -0.3366 -0.1388 -0.2646
  134OSM    H8S14510   6.062   2.722   7.093  0.0201 -0.8730  3.6363
  134OSM    H8T14511   6.182   2.857   7.069  1.2859 -0.1937  0.4361
  134OSM    C9S14512   6.243   2.701   7.210  0.1065 -0.3368  0.0910
  134OSM    H9S14513   6.327   2.772   7.224 -0.0046 -0.1482 -0.2008
  134OSM    H9T14514   6.285   2.599   7.205  2.1908  0.4809  0.0224
  134OSM   C10S14515   6.145   2.711   7.332  0.4339 -0.3989  0.8446
  134OSM   H10S14516   6.051   2.652   7.323  1.1864 -1.7226  1.2264
  134OSM   H10T14517   6.115   2.817   7.330 -0.0665 -0.5489 -0.6166
  134OSM   C11S14518   6.200   2.664   7.462  0.1717  0.6021 -0.3780
  134OSM   H11S14519   6.297   2.718   7.465  3.0929 -4.1052 -0.0678
  134OSM   H11T14520   6.216   2.555   7.447 -1.3215  0.2081  0.6879
  134OSM   C12S14521   6.105   2.685   7.582  0.3579 -0.2788 -0.5748
  134OSM   H12S14522   6.003   2.658   7.544  0.1263 -0.1186 -0.0747
  134OSM   H12T14523   6.113   2.790   7.615  2.2701 -1.1613  2.0754
  134OSM   C13S14524   6.144   2.588   7.694  0.0448  0.4063  0.4332
  134OSM   H13S14525   6.241   2.619   7.739 -0.2650  1.1913  0.5711
  134OSM   H13T14526   6.162   2.486   7.652 -0.4418  0.5810 -0.2049
  134OSM   C14S14527   6.045   2.566   7.812  0.2820  0.0003  0.0631
  134OSM   H14S14528   5.954   2.520   7.767  0.1040  2.3934 -2.2756
  134OSM   H14T14529   6.027   2.668   7.853  1.1646 -0.6049  2.1030
  134OSM   C15S14530   6.100   2.480   7.928 -0.8096 -0.2775  0.1636
  134OSM   H15S14531   6.112   2.373   7.901  2.3309  0.4305 -1.7153
  134OSM   H15T14532   6.032   2.488   8.016  1.9978 -0.4148  2.4814
  134OSM   C16S14533   6.245   2.507   7.982 -0.7234  0.1836  0.6168
  134OSM   H16S14534   6.238   2.606   8.033  1.2799  1.3076 -1.1156
  134OSM   H16T14535   6.316   2.528   7.899 -2.6217 -0.3551 -1.2277
  134OSM   C17S14536   6.307   2.404   8.072  0.0411 -0.0383 -0.1636
  134OSM   H17S14537   6.259   2.413   8.172  0.7724 -0.3420  0.2273
  134OSM   H17T14538   6.408   2.440   8.102 -0.5861 -0.3319  2.6127
  134OSM   C18S14539   6.294   2.256   8.041  0.0161 -0.3017 -0.0056
  134OSM   H18S14540   6.351   2.201   8.119 -1.4768  1.1158  2.1853
  134OSM   H18T14541   6.346   2.234   7.945  0.6277  0.0043  0.2489
  134OSM   H18U14542   6.188   2.225   8.034 -0.1750  0.4272 -0.4485
  134OSM    C1F14543   6.234   3.224   7.091 -0.3523  0.5390  0.2292
  134OSM     OF14544   6.125   3.267   7.059 -0.0637  0.3925 -0.0338
  134OSM    C2F14545   6.281   3.216   7.231 -0.1649  0.2051 -0.0008
  134OSM    H2F14546   6.349   3.302   7.247 -0.4685  0.5857 -0.7067
  134OSM    H2G14547   6.344   3.125   7.233  0.5067  0.4255 -3.5569
  134OSM    C3F14548   6.170   3.190   7.341  0.5969  0.4059 -0.3354
  134OSM    H3F14549   6.149   3.083   7.319 -2.1001  0.4885  1.3703
  134OSM    H3G14550   6.077   3.249   7.329  1.3720  2.7204  3.2656
  134OSM    C4F14551   6.224   3.188   7.487  0.5598 -0.4310  0.1573
  134OSM    H4F14552   6.227   3.294   7.521  1.2910  0.0438 -1.3279
  134OSM    H4G14553   6.331   3.162   7.505  1.0139  3.3567  5.3285
  134OSM    C5F14554   6.139   3.109   7.589  0.1780 -0.1933 -0.1232
  134OSM    H5F14555   6.116   3.010   7.544  1.0259 -0.4261 -0.0715
  134OSM    H5G14556   6.040   3.159   7.598  0.6913  0.6385  1.1340
  134OSM    C6F14557   6.200   3.106   7.727  0.4182  0.5750 -0.6397
  134OSM    H6F14558   6.230   3.207   7.764  0.6145 -0.0884  1.0883
  134OSM    H6G14559   6.293   3.046   7.727 -0.5309 -1.0936 -3.4367
  134OSM    C7F14560   6.113   3.041   7.838  0.2270 -1.0221  0.2994
  134OSM    H7F14561   6.100   2.936   7.802 -2.4740 -0.1200 -1.7021
  134OSM    H7G14562   6.012   3.087   7.840 -0.4978 -2.4303 -1.0601
  134OSM    C8F14563   6.162   3.060   7.985 -0.2961 -0.0142  1.2312
  134OSM    H8F14564   6.180   3.168   8.004  0.9612  0.0981 -0.3879
  134OSM    H8G14565   6.260   3.011   8.000  1.0256  0.6128 -3.5879
  134OSM    C9F14566   6.060   2.991   8.076  0.1324 -0.1677  0.3882
  134OSM    H9F14567   6.023   2.899   8.028  0.7551  0.7479 -2.0431
  134OSM   C10F14568   6.022   3.029   8.194 -0.3446 -0.4100 -0.6458
  134OSM   H10F14569   5.964   2.963   8.260  2.1755 -0.4498  1.6999
  134OSM   C11F14570   6.057   3.153   8.276  0.4179 -0.6207  0.5608
  134OSM   H11F14571   5.965   3.215   8.285  1.4811  0.9216  1.3201
  134OSM   H11G14572   6.129   3.217   8.221 -1.9061  2.3008  0.6728
  134OSM   C12F14573   6.107   3.127   8.417  0.2702  0.5330 -0.9702
  134OSM   H12F14574   6.164   3.032   8.417 -2.9142 -1.6667 -3.9115
  134OSM   H12G14575   6.018   3.122   8.484  0.4535 -3.6693 -0.8105
  134OSM   C13F14576   6.206   3.232   8.472  0.2569  0.5646 -0.9297
  134OSM   H13F14577   6.266   3.275   8.390  1.9211 -0.4568 -0.2909
  134OSM   H13G14578   6.291   3.184   8.525 -1.3930 -1.4974  0.0056
  134OSM   C14F14579   6.147   3.330   8.564 -0.1770  0.2250  0.4440
  134OSM   H14F14580   6.077   3.286   8.638 -3.6543  0.8749 -2.1847
  134OSM   H14G14581   6.082   3.392   8.498  0.4558  0.6799  0.2351
  134OSM   C15F14582   6.256   3.418   8.637  0.5168 -0.2624 -0.8740
  134OSM   H15F14583   6.307   3.475   8.556 -0.4435  0.0577 -1.2681
  134OSM   H15G14584   6.321   3.354   8.701  0.2325  0.1317 -0.1785
  134OSM   C16F14585   6.199   3.517   8.738  0.3151 -0.5657 -0.4832
  134OSM   H16F14586   6.127   3.463   8.803 -0.8321  0.6432 -0.7155
  134OSM   H16G14587   6.138   3.596   8.691  1.0119 -0.1667 -0.7349
  134OSM   C17F14588   6.299   3.582   8.831  0.0451 -0.0149  0.4054
  134OSM   H17F14589   6.392   3.619   8.783 -1.0846  1.7840 -0.4932
  134OSM   H17G14590   6.334   3.514   8.912  2.3135  2.0380  1.2941
  134OSM   C18F14591   6.231   3.710   8.897 -0.2984  0.0629  0.2395
  134OSM   H18F14592   6.181   3.765   8.816  0.7027  0.3136 -0.2235
  134OSM   H18G14593   6.305   3.778   8.946 -0.5090  0.6411 -0.2409
  134OSM   H18H14594   6.155   3.674   8.970  1.0815  0.8973  2.2071
  135OSM      N14595   5.810   3.868   6.250  1.0881 -0.2279  0.5856
  135OSM    C1514596   5.700   3.874   6.353 -0.5826  0.6110  0.1229
  135OSM   H15A14597   5.635   3.788   6.351  0.5496 -0.3932  2.6613
  135OSM   H15B14598   5.641   3.964   6.341 -0.8064  0.3355 -0.9193
  135OSM   H15C14599   5.745   3.886   6.451  0.3167  0.6587 -0.2872
  135OSM    C1414600   5.745   3.873   6.117 -0.0326  0.5061 -0.5521
  135OSM   H14A14601   5.685   3.962   6.106 -0.9981  0.2307  1.8000
  135OSM   H14B14602   5.686   3.782   6.109  0.7785 -0.3607  2.2079
  135OSM   H14C14603   5.819   3.872   6.039  1.2761 -0.0608  0.6342
  135OSM    C1314604   5.897   3.979   6.251  0.0413 -0.2028 -0.4813
  135OSM   H13A14605   5.974   3.968   6.177  0.5865 -0.9746  0.1759
  135OSM   H13B14606   5.945   3.978   6.348 -1.1275 -0.4134  0.1077
  135OSM   H13C14607   5.864   4.081   6.255  0.0671 -0.1970 -0.3996
  135OSM    C1214608   5.887   3.735   6.253 -0.2790 -0.6587 -0.4414
  135OSM   H12A14609   5.977   3.753   6.196  0.2506  0.8732  0.8119
  135OSM   H12B14610   5.830   3.648   6.222  1.1813 -1.6924 -0.3165
  135OSM    C1114611   5.942   3.699   6.398  0.3022 -0.2825 -0.0010
  135OSM   H11A14612   5.984   3.793   6.441 -0.7734  0.2110  0.0012
  135OSM   H11B14613   6.021   3.623   6.382 -0.0052 -0.4524 -0.7626
  135OSM      P14614   5.789   3.488   6.446 -0.4181 -0.3950 -0.4503
  135OSM    O1314615   5.655   3.467   6.511 -0.4744 -0.8752 -0.8982
  135OSM    O1414616   5.798   3.462   6.303  0.1806  0.3251  0.0227
  135OSM    O1114617   5.886   3.397   6.521 -0.5974 -0.1506  0.2875
  135OSM    O1214618   5.843   3.637   6.481 -0.6459  0.3392  0.5978
  135OSM    C1S14619   5.968   3.426   6.637 -0.0455 -0.0374 -0.7060
  135OSM    H1S14620   6.016   3.526   6.627  1.3174 -0.7825 -1.8600
  135OSM    H1T14621   6.057   3.360   6.635 -0.1742 -0.2516  0.1862
  135OSM     NF14622   6.005   3.446   6.870 -0.6720  0.0744 -0.3787
  135OSM    HNF14623   6.049   3.387   6.937  2.3715  0.4118 -1.9178
  135OSM    C2S14624   5.907   3.405   6.774 -0.7235  0.6829 -0.2375
  135OSM    H2S14625   5.824   3.475   6.795 -1.2321  0.2710 -0.8412
  135OSM    C3S14626   5.855   3.260   6.791 -0.8934 -0.2030 -0.5054
  135OSM    H3S14627   5.934   3.182   6.779 -1.4934 -1.1280  1.1618
  135OSM     O314628   5.764   3.223   6.687  0.3216 -0.6072 -0.2955
  135OSM    HO314629   5.759   3.304   6.636  0.2306 -1.2514 -1.3382
  135OSM    C4S14630   5.795   3.243   6.932  0.1753  0.3620 -0.1554
  135OSM    H4S14631   5.875   3.235   7.007 -1.7376  0.5672  2.0201
  135OSM    C5S14632   5.664   3.242   6.959 -0.1560 -0.4688  0.0977
  135OSM    H5S14633   5.596   3.259   6.874  1.3086  0.2716 -0.9555
  135OSM    C6S14634   5.598   3.239   7.096  0.0160  0.0516 -0.1521
  135OSM    H6S14635   5.540   3.148   7.123  0.5923  0.8670  4.6626
  135OSM    H6T14636   5.517   3.313   7.110 -1.4094 -0.8988 -2.7222
  135OSM    C7S14637   5.701   3.267   7.201  0.6134 -0.6034 -0.3872
  135OSM    H7S14638   5.764   3.354   7.174 -0.7950  0.9264  1.0266
  135OSM    H7T14639   5.762   3.174   7.195 -0.8625 -1.5149 -3.0317
  135OSM    C8S14640   5.647   3.295   7.342 -0.0563 -0.1543 -0.3300
  135OSM    H8S14641   5.565   3.225   7.367 -0.2730  0.4854  0.8544
  135OSM    H8T14642   5.614   3.401   7.339 -0.6627 -0.3208  0.3215
  135OSM    C9S14643   5.751   3.279   7.447  0.1392 -0.0326 -0.2036
  135OSM    H9S14644   5.822   3.364   7.440  0.0962 -0.0183 -0.4806
  135OSM    H9T14645   5.808   3.185   7.434  2.4106  1.4495 -1.9220
  135OSM   C10S14646   5.700   3.289   7.585 -0.4146 -0.1005 -0.3663
  135OSM   H10S14647   5.608   3.227   7.593 -0.5077  0.0290 -0.4342
  135OSM   H10T14648   5.661   3.391   7.607 -0.9062  0.3210 -2.9270
  135OSM   C11S14649   5.802   3.237   7.703 -0.2079  0.0543  0.3138
  135OSM   H11S14650   5.892   3.303   7.697  0.9069 -1.4981 -1.2670
  135OSM   H11T14651   5.843   3.134   7.694 -0.0562  0.0386  1.1000
  135OSM   C12S14652   5.757   3.269   7.845  0.5548 -0.2903 -0.4728
  135OSM   H12S14653   5.727   3.376   7.840 -0.7177 -0.6308 -0.5221
  135OSM   H12T14654   5.841   3.268   7.917  0.9193 -2.1436 -0.8778
  135OSM   C13S14655   5.647   3.192   7.908 -1.0966  0.3482 -0.5356
  135OSM   H13S14656   5.676   3.089   7.939 -0.4598 -0.0809 -2.4279
  135OSM   H13T14657   5.552   3.190   7.852 -0.4510 -0.5290 -1.6517
  135OSM   C14S14658   5.597   3.254   8.043  0.6569 -0.0621  1.0020
  135OSM   H14S14659   5.516   3.190   8.084  0.8808 -0.7272  0.4356
  135OSM   H14T14660   5.568   3.360   8.034  0.1747 -0.2988 -0.6062
  135OSM   C15S14661   5.700   3.250   8.156  0.5862 -0.0420 -0.2778
  135OSM   H15S14662   5.772   3.334   8.148  0.7072 -0.2057 -1.0029
  135OSM   H15T14663   5.749   3.150   8.157 -2.2997 -1.5942 -1.6584
  135OSM   C16S14664   5.624   3.263   8.296 -0.4232  0.0044  0.6973
  135OSM   H16S14665   5.536   3.196   8.303  0.1206 -0.7401  0.5382
  135OSM   H16T14666   5.587   3.367   8.306  0.9286  0.6392 -0.5873
  135OSM   C17S14667   5.699   3.230   8.422  0.3890  0.2252 -0.6442
  135OSM   H17S14668   5.757   3.312   8.469 -1.8588  1.3667  0.2738
  135OSM   H17T14669   5.757   3.136   8.409 -1.0555 -1.2470  2.4625
  135OSM   C18S14670   5.602   3.203   8.543  0.0255 -0.9661  0.7377
  135OSM   H18S14671   5.542   3.292   8.573  0.2909  0.3251 -2.2296
  135OSM   H18T14672   5.637   3.153   8.636 -1.0428 -1.0910  1.0894
  135OSM   H18U14673   5.520   3.132   8.520 -1.5696  0.9308  0.2476
  135OSM    C1F14674   6.038   3.576   6.881 -0.3277 -1.1079  0.5970
  135OSM     OF14675   5.985   3.665   6.814 -0.4090  0.1102 -0.8327
  135OSM    C2F14676   6.152   3.609   6.966  0.2375 -1.2828  0.5083
  135OSM    H2F14677   6.214   3.691   6.925  1.5674 -0.2926  4.1240
  135OSM    H2G14678   6.224   3.529   6.994 -0.4388 -3.2425 -2.7978
  135OSM    C3F14679   6.111   3.686   7.088  0.0602 -0.1491 -0.2196
  135OSM    H3F14680   6.059   3.782   7.067  1.2934  0.7210  0.5666
  135OSM    H3G14681   6.203   3.719   7.141 -0.2040 -0.6503  0.5831
  135OSM    C4F14682   6.038   3.608   7.193  0.4521 -0.3584 -0.0296
  135OSM    H4F14683   6.064   3.500   7.203  0.0007 -0.5818 -1.0606
  135OSM    H4G14684   5.932   3.605   7.160  0.6226  0.2797 -0.6725
  135OSM    C5F14685   6.040   3.687   7.326 -1.2497 -0.0185  0.0455
  135OSM    H5F14686   5.995   3.787   7.306  0.4770  1.1948  1.8352
  135OSM    H5G14687   6.145   3.716   7.348 -1.2441 -0.4925  0.6842
  135OSM    C6F14688   5.990   3.612   7.454 -0.2719 -0.8385 -0.0480
  135OSM    H6F14689   6.059   3.525   7.458  0.5610 -0.1355  1.4108
  135OSM    H6G14690   5.890   3.568   7.432 -0.4071 -1.1833  1.1939
  135OSM    C7F14691   5.996   3.693   7.592  0.1740 -0.1153  0.8835
  135OSM    H7F14692   5.931   3.783   7.591 -0.6890 -0.7260 -0.4407
  135OSM    H7G14693   6.100   3.731   7.600  1.2235 -2.4371 -0.5161
  135OSM    C8F14694   5.953   3.622   7.725 -1.1215  0.6128 -0.0344
  135OSM    H8F14695   5.882   3.546   7.686  0.8328 -0.4809 -1.6958
  135OSM    H8G14696   5.920   3.705   7.791  0.5681  0.7336  0.7017
  135OSM    C9F14697   6.075   3.555   7.790  0.6750  0.3132 -0.8150
  135OSM    H9F14698   6.118   3.475   7.729 -1.3989 -1.1242 -0.5011
  135OSM   C10F14699   6.122   3.570   7.917 -0.1407  0.2737 -0.3993
  135OSM   H10F14700   6.207   3.510   7.952 -1.3909  0.3584  3.2758
  135OSM   C11F14701   6.059   3.658   8.026 -0.2325  0.3195 -0.1110
  135OSM   H11F14702   5.989   3.733   7.982 -3.0342 -2.1029 -0.1243
  135OSM   H11G14703   6.139   3.717   8.074 -0.2708 -1.0959  1.7679
  135OSM   C12F14704   5.982   3.571   8.131  0.3378 -0.4162 -0.0559
  135OSM   H12F14705   6.029   3.475   8.159 -0.7186 -1.0327 -0.3204
  135OSM   H12G14706   5.884   3.543   8.086  0.1113  0.5155 -0.1596
  135OSM   C13F14707   5.963   3.656   8.256 -0.4320  0.9721  0.4724
  135OSM   H13F14708   5.912   3.753   8.236  1.0725  1.4047 -1.6577
  135OSM   H13G14709   6.058   3.681   8.308 -1.0823  1.2372  1.5597
  135OSM   C14F14710   5.884   3.584   8.367  0.2096 -0.3826  0.4966
  135OSM   H14F14711   5.930   3.484   8.377 -0.9659 -0.9768  0.1499
  135OSM   H14G14712   5.780   3.567   8.331  0.0850 -1.2587  1.2379
  135OSM   C15F14713   5.895   3.654   8.505 -0.1809 -0.0376  0.0722
  135OSM   H15F14714   5.860   3.759   8.509 -1.3874 -0.4641  1.3836
  135OSM   H15G14715   6.002   3.663   8.530  0.1786 -0.1170 -1.3447
  135OSM   C16F14716   5.824   3.574   8.619 -0.2761  0.1521  0.8214
  135OSM   H16F14717   5.863   3.470   8.628  0.7083  0.5106  0.8282
  135OSM   H16G14718   5.716   3.568   8.595  0.1108  1.7416 -1.6595
  135OSM   C17F14719   5.838   3.642   8.760  0.2965  0.6455  0.4791
  135OSM   H17F14720   5.797   3.743   8.740  2.0850  1.1505 -1.0276
  135OSM   H17G14721   5.946   3.651   8.785  0.5078  2.3341 -0.8192
  135OSM   C18F14722   5.756   3.562   8.862  0.2492  0.1544 -0.2666
  135OSM   H18F14723   5.780   3.606   8.961 -0.8696  1.6531 -0.6233
  135OSM   H18G14724   5.789   3.456   8.857 -2.6403 -0.7618 -2.4681
  135OSM   H18H14725   5.647   3.569   8.846  0.1976 -0.8361 -0.3947
  136OSM      N14726   3.718   4.366   6.240  0.7921  0.3744  0.3193
  136OSM    C1514727   3.731   4.271   6.128  0.7023 -0.3790  0.4329
  136OSM   H15A14728   3.640   4.245   6.077  0.5916 -0.7948  0.8279
  136OSM   H15B14729   3.771   4.174   6.157  0.6509 -0.3628  0.5577
  136OSM   H15C14730   3.797   4.322   6.060  0.0233  0.9043  0.7070
  136OSM    C1414731   3.655   4.488   6.192  0.3036  0.4124 -0.1106
  136OSM   H14A14732   3.732   4.535   6.133  0.5872  1.2693  0.8991
  136OSM   H14B14733   3.616   4.563   6.260 -0.1525  2.1910 -2.2011
  136OSM   H14C14734   3.566   4.466   6.135 -1.7121  1.7825  2.3016
  136OSM    C1314735   3.632   4.309   6.348 -0.3132 -0.5610  0.1948
  136OSM   H13A14736   3.613   4.383   6.424  1.4690  3.1685 -2.6853
  136OSM   H13B14737   3.676   4.225   6.399 -0.6925 -1.1234 -0.3786
  136OSM   H13C14738   3.533   4.283   6.314 -0.9818 -1.1797  2.4674
  136OSM    C1214739   3.851   4.409   6.293  0.1806 -0.3184 -0.2484
  136OSM   H12A14740   3.888   4.327   6.352  1.8475 -0.1654 -1.0238
  136OSM   H12B14741   3.842   4.497   6.356 -0.9375 -1.5325  1.3864
  136OSM    C1114742   3.966   4.434   6.190 -1.1816 -0.2563 -0.4606
  136OSM   H11A14743   4.010   4.339   6.152  1.3097  0.5738  0.1250
  136OSM   H11B14744   4.056   4.463   6.249 -1.0483  1.2931 -1.3660
  136OSM      P14745   3.974   4.689   6.115  0.0247  0.0574  0.1621
  136OSM    O1314746   4.124   4.691   6.122  0.1244 -0.1254 -0.3035
  136OSM    O1414747   3.904   4.765   6.014  0.1569  0.1999  0.7037
  136OSM    O1114748   3.917   4.734   6.255  0.6838  0.4053 -0.3413
  136OSM    O1214749   3.924   4.538   6.097 -0.3106  0.4094 -0.0014
  136OSM    C1S14750   3.799   4.807   6.267 -0.4858  0.2173  0.1296
  136OSM    H1S14751   3.712   4.752   6.225 -1.9840  0.0447  3.1517
  136OSM    H1T14752   3.807   4.906   6.217 -1.1805  1.0734  1.6467
  136OSM     NF14753   3.640   4.915   6.426  0.3885 -0.0050  0.4922
  136OSM    HNF14754   3.642   5.015   6.431 -1.1493  0.0370  0.8652
  136OSM    C2S14755   3.765   4.838   6.416 -0.8927  0.8442  0.1588
  136OSM    H2S14756   3.745   4.744   6.471 -0.0588  1.9317  2.4572
  136OSM    C3S14757   3.885   4.914   6.473  0.4123 -0.0573 -0.3010
  136OSM    H3S14758   3.894   5.007   6.411 -1.2015 -1.6970 -3.2402
  136OSM     O314759   4.010   4.857   6.459 -0.4351  0.4818 -0.3775
  136OSM    HO314760   3.990   4.782   6.403 -2.2231 -0.2247  1.1077
  136OSM    C4S14761   3.857   4.947   6.617 -0.2483  0.3942  0.0135
  136OSM    H4S14762   3.780   5.023   6.638 -1.0145 -0.3717  0.0479
  136OSM    C5S14763   3.912   4.892   6.730  0.5004 -0.1698 -0.0515
  136OSM    H5S14764   4.011   4.844   6.721  0.6772  0.0000  0.8897
  136OSM    C6S14765   3.880   4.933   6.870 -0.5611  0.3486 -0.0962
  136OSM    H6S14766   3.799   4.877   6.921  0.7436  0.8240  2.7232
  136OSM    H6T14767   3.852   5.040   6.885 -0.6281  0.9172 -3.5556
  136OSM    C7S14768   4.018   4.925   6.937  0.3708  0.6300 -0.1440
  136OSM    H7S14769   4.084   5.007   6.900  0.4037  0.3047 -0.8298
  136OSM    H7T14770   4.062   4.825   6.920  0.0302  0.5848 -0.7845
  136OSM    C8S14771   4.005   4.921   7.085  0.3410 -0.3307  0.3533
  136OSM    H8S14772   3.971   4.823   7.124 -3.3262  0.8715  0.5023
  136OSM    H8T14773   3.924   4.995   7.102  0.4256 -0.1307 -0.1049
  136OSM    C9S14774   4.124   4.972   7.163 -0.3405 -0.1719  0.2870
  136OSM    H9S14775   4.157   5.074   7.132 -1.1812 -0.2858 -1.0043
  136OSM    H9T14776   4.206   4.908   7.125 -2.2143 -1.8651 -1.1000
  136OSM   C10S14777   4.114   4.972   7.316  0.5244  0.5268 -0.0846
  136OSM   H10S14778   4.216   4.985   7.358  0.9663 -1.7662 -0.2819
  136OSM   H10T14779   4.102   4.869   7.357  2.9561 -0.6195 -2.0009
  136OSM   C11S14780   4.021   5.072   7.385  0.0650  0.3903 -0.2533
  136OSM   H11S14781   3.921   5.053   7.340  0.7097 -1.8904 -0.8585
  136OSM   H11T14782   4.054   5.175   7.361  1.1749  0.3201  0.8622
  136OSM   C12S14783   4.003   5.059   7.537  0.4143  0.9767 -0.2523
  136OSM   H12S14784   4.106   5.084   7.571  1.1899  1.6269 -2.8350
  136OSM   H12T14785   3.975   4.954   7.563  1.1170  0.7901 -0.2379
  136OSM   C13S14786   3.906   5.160   7.602 -0.9578  0.0318 -0.4656
  136OSM   H13S14787   3.805   5.133   7.565 -0.2483  0.3675 -2.8060
  136OSM   H13T14788   3.921   5.262   7.562 -0.5632 -1.7650 -5.5614
  136OSM   C14S14789   3.894   5.150   7.759 -0.6483  0.0785 -0.2943
  136OSM   H14S14790   3.842   5.241   7.797 -1.5281 -0.6020  0.1891
  136OSM   H14T14791   3.993   5.154   7.808 -1.0968  0.8356  0.5953
  136OSM   C15S14792   3.830   5.022   7.800 -0.0864  0.2820  0.1808
  136OSM   H15S14793   3.882   4.938   7.749  1.2927  0.5373  1.0858
  136OSM   H15T14794   3.726   5.024   7.762 -0.9134 -0.2810  2.2447
  136OSM   C16S14795   3.831   5.000   7.954  0.0032  0.2597  0.0711
  136OSM   H16S14796   3.935   5.008   7.991 -0.1811 -0.6023  0.8112
  136OSM   H16T14797   3.798   4.896   7.977 -1.2475  1.0264  2.0250
  136OSM   C17S14798   3.735   5.092   8.024  0.1415  0.4899 -0.2268
  136OSM   H17S14799   3.636   5.095   7.973  0.4009 -0.1269 -0.7777
  136OSM   H17T14800   3.781   5.188   7.995  1.3161  0.2023  0.6191
  136OSM   C18S14801   3.741   5.059   8.172 -0.3519  0.1422  0.5364
  136OSM   H18S14802   3.695   4.959   8.186 -1.9803  0.4471 -1.8609
  136OSM   H18T14803   3.670   5.125   8.225  0.1477 -0.8691  2.5352
  136OSM   H18U14804   3.839   5.068   8.223  1.1844 -1.7345 -1.8424
  136OSM    C1F14805   3.523   4.857   6.411  0.1315 -0.0003 -0.6178
  136OSM     OF14806   3.510   4.734   6.393 -0.0646  0.7293  0.4606
  136OSM    C2F14807   3.405   4.950   6.405  0.0332  0.5426 -0.3749
  136OSM    H2F14808   3.325   4.895   6.351 -0.2749  1.5418 -0.9675
  136OSM    H2G14809   3.424   5.041   6.344 -0.2594 -0.1573 -1.5545
  136OSM    C3F14810   3.346   4.976   6.547 -0.0575  0.1279 -0.4407
  136OSM    H3F14811   3.329   4.879   6.599  1.1765  0.5511  0.8132
  136OSM    H3G14812   3.244   5.019   6.533 -0.0376  1.0682  1.9229
  136OSM    C4F14813   3.434   5.059   6.642  0.3600  0.2281  0.6311
  136OSM    H4F14814   3.514   5.122   6.598  0.5711 -0.7377 -0.4037
  136OSM    H4G14815   3.484   4.991   6.715  1.1673 -2.6034 -2.3227
  136OSM    C5F14816   3.341   5.161   6.719 -0.0366  0.3594 -0.0939
  136OSM    H5F14817   3.265   5.107   6.781 -1.0399  1.8385  0.0157
  136OSM    H5G14818   3.299   5.229   6.643  0.3701 -0.9037 -1.5030
  136OSM    C6F14819   3.425   5.248   6.809 -0.0203 -0.4209 -0.8057
  136OSM    H6F14820   3.368   5.330   6.859 -0.4082 -0.5282 -1.0709
  136OSM    H6G14821   3.502   5.298   6.747 -1.3206 -0.9572 -2.9524
  136OSM    C7F14822   3.484   5.181   6.927  0.4066  0.1170  0.2573
  136OSM    H7F14823   3.544   5.258   6.980 -1.6390  1.6887  0.3870
  136OSM    H7G14824   3.550   5.094   6.904  0.7000  1.0024 -2.7000
  136OSM    C8F14825   3.389   5.117   7.031  0.0764 -0.9444  0.3981
  136OSM    H8F14826   3.313   5.052   6.981  1.7967 -1.6677 -1.3993
  136OSM    H8G14827   3.338   5.203   7.080 -1.2102 -1.2176 -0.4008
  136OSM    C9F14828   3.461   5.030   7.132  0.5794  0.0963  0.1685
  136OSM    H9F14829   3.471   4.925   7.098  0.1926  0.7662 -2.2479
  136OSM   C10F14830   3.497   5.058   7.253 -0.1936  0.5071 -0.0776
  136OSM   H10F14831   3.569   4.987   7.297 -0.4060  0.8146  0.7885
  136OSM   C11F14832   3.474   5.191   7.319  0.3876  0.4851  0.9453
  136OSM   H11F14833   3.371   5.229   7.301  0.3313  0.0125  0.2425
  136OSM   H11G14834   3.538   5.263   7.264  2.5298 -1.3747  0.8673
  136OSM   C12F14835   3.517   5.197   7.474 -0.6980 -0.2016  0.4598
  136OSM   H12F14836   3.495   5.300   7.510  0.3290 -0.1688  1.0474
  136OSM   H12G14837   3.627   5.184   7.480 -0.6390  0.4542  0.9264
  136OSM   C13F14838   3.458   5.096   7.579 -0.4322 -0.3096  0.4186
  136OSM   H13F14839   3.516   5.092   7.674  2.5334 -1.6417 -1.2989
  136OSM   H13G14840   3.467   4.999   7.526 -0.5101 -0.0097 -0.1551
  136OSM   C14F14841   3.322   5.141   7.631  0.5168  0.3794 -0.3488
  136OSM   H14F14842   3.252   5.139   7.544 -0.3053  2.9790  0.1800
  136OSM   H14G14843   3.321   5.243   7.675 -0.1294 -1.0047  3.2255
  136OSM   C15F14844   3.263   5.032   7.727 -0.4724  0.0835 -0.7935
  136OSM   H15F14845   3.281   4.931   7.685 -3.7614 -0.6720 -0.6544
  136OSM   H15G14846   3.154   5.051   7.723 -0.7001 -1.2421 -1.5386
  136OSM   C16F14847   3.299   5.054   7.870 -0.0058 -0.2026 -1.3926
  136OSM   H16F14848   3.289   5.159   7.904 -1.3613 -0.6310 -0.3452
  136OSM   H16G14849   3.407   5.030   7.874  0.1347  0.3372 -1.8202
  136OSM   C17F14850   3.223   4.967   7.974  0.7618  0.3030 -0.6928
  136OSM   H17F14851   3.228   4.862   7.940 -0.1128  0.5767 -1.7176
  136OSM   H17G14852   3.116   4.999   7.967  0.3935 -1.1447 -2.4080
  136OSM   C18F14853   3.251   4.976   8.126 -0.4960 -1.0615 -0.1921
  136OSM   H18F14854   3.191   4.909   8.191  1.7495 -0.1866  3.0226
  136OSM   H18G14855   3.241   5.081   8.161  0.2195 -0.9318 -0.3795
  136OSM   H18H14856   3.358   4.953   8.144 -0.4864  0.9854  3.4115
  137OSM      N14857   6.651   2.556   6.308  0.9656 -0.2805  0.6333
  137OSM    C1514858   6.676   2.412   6.269 -0.0143  0.1484 -0.3227
  137OSM   H15A14859   6.740   2.411   6.182 -0.2731 -0.1016 -0.5129
  137OSM   H15B14860   6.582   2.374   6.231 -0.9118  2.2541 -0.3301
  137OSM   H15C14861   6.716   2.337   6.336 -0.9722 -0.8428 -0.8300
  137OSM    C1414862   6.776   2.641   6.298 -0.1959  0.1032 -0.2751
  137OSM   H14A14863   6.810   2.643   6.195  1.5411  0.6996  0.2844
  137OSM   H14B14864   6.846   2.589   6.361  0.0315  0.2254 -0.4257
  137OSM   H14C14865   6.755   2.739   6.338  0.6100  0.3341 -0.4046
  137OSM    C1314866   6.561   2.608   6.196  0.2566 -0.5275  0.6337
  137OSM   H13A14867   6.605   2.584   6.100  0.1690 -1.6036  0.8452
  137OSM   H13B14868   6.543   2.714   6.189 -0.1753 -0.6754 -1.1168
  137OSM   H13C14869   6.463   2.563   6.200 -0.0729 -0.0510 -1.0174
  137OSM    C1214870   6.588   2.568   6.445  0.3889  0.1510 -0.0316
  137OSM   H12A14871   6.658   2.532   6.519  1.1460  1.1251 -0.2557
  137OSM   H12B14872   6.499   2.508   6.459 -0.1988  1.3048  1.3523
  137OSM    C1114873   6.553   2.708   6.484  0.0058 -0.7578 -0.1471
  137OSM   H11A14874   6.496   2.701   6.579  0.8206 -1.8282  0.2887
  137OSM   H11B14875   6.496   2.742   6.395 -2.6183 -4.0263  0.0603
  137OSM      P14876   6.769   2.789   6.627 -0.3766 -0.2322  0.1433
  137OSM    O1314877   6.858   2.670   6.625  0.7589 -0.7091 -0.2888
  137OSM    O1414878   6.843   2.922   6.629  0.4031  0.3291  0.2167
  137OSM    O1114879   6.671   2.774   6.746 -0.0322 -0.1439  0.3075
  137OSM    O1214880   6.672   2.781   6.501  0.1973 -0.5905 -0.9983
  137OSM    C1S14881   6.694   2.848   6.867 -0.4821 -0.0106  0.0960
  137OSM    H1S14882   6.637   2.942   6.849  0.7337  0.4827 -1.2788
  137OSM    H1T14883   6.794   2.892   6.886 -1.3983  2.5497 -0.5286
  137OSM     NF14884   6.661   2.831   7.111 -0.2439 -0.1389 -0.1803
  137OSM    HNF14885   6.711   2.780   7.181 -1.1823  1.5870  1.8644
  137OSM    C2S14886   6.632   2.768   6.985 -0.1847  0.2989 -0.5970
  137OSM    H2S14887   6.523   2.754   6.975 -0.3049 -2.0159  2.4798
  137OSM    C3S14888   6.688   2.623   6.987  0.3785 -1.1130 -0.3960
  137OSM    H3S14889   6.798   2.620   6.979  0.5641 -4.3785  1.5852
  137OSM     O314890   6.663   2.552   6.871 -0.2586 -0.1071  0.3383
  137OSM    HO314891   6.689   2.619   6.808  2.1743  1.2770  2.6123
  137OSM    C4S14892   6.647   2.550   7.114 -0.6211  0.1407 -0.4278
  137OSM    H4S14893   6.724   2.548   7.192 -1.8611 -1.4175  0.8226
  137OSM    C5S14894   6.533   2.488   7.136  0.8982  0.2498  0.2258
  137OSM    H5S14895   6.472   2.466   7.046 -0.5113 -0.5614  1.3388
  137OSM    C6S14896   6.490   2.410   7.264  0.0118  0.5771  0.8423
  137OSM    H6S14897   6.457   2.305   7.248  0.7353  0.5321 -0.4535
  137OSM    H6T14898   6.392   2.443   7.306 -0.5708 -1.2694  1.0524
  137OSM    C7S14899   6.584   2.425   7.387  0.1229 -0.8157 -0.3665
  137OSM    H7S14900   6.575   2.533   7.413 -1.5506 -0.4575 -2.1837
  137OSM    H7T14901   6.689   2.398   7.365  0.5018  0.6589 -0.4421
  137OSM    C8S14902   6.529   2.351   7.511  0.0045  0.2306  0.3835
  137OSM    H8S14903   6.531   2.241   7.500 -0.2275  0.3495 -1.1119
  137OSM    H8T14904   6.421   2.373   7.529  0.3126  2.0089  0.2460
  137OSM    C9S14905   6.605   2.393   7.641 -0.1373  0.3233 -0.6598
  137OSM    H9S14906   6.585   2.499   7.670 -0.9093 -0.1843  0.7827
  137OSM    H9T14907   6.713   2.385   7.619  0.0094 -0.3740  0.2521
  137OSM   C10S14908   6.567   2.311   7.772 -0.4173 -0.6289  0.7360
  137OSM   H10S14909   6.574   2.205   7.738  1.0365  0.8735 -4.5458
  137OSM   H10T14910   6.464   2.338   7.802 -0.6627 -1.8647  1.0609
  137OSM   C11S14911   6.662   2.350   7.882  0.4049 -0.0667  0.3413
  137OSM   H11S14912   6.623   2.445   7.924  1.2406  0.1405  0.6581
  137OSM   H11T14913   6.770   2.358   7.857  1.0631 -0.9828  2.6261
  137OSM   C12S14914   6.667   2.244   7.995 -0.1741  0.4322 -0.6457
  137OSM   H12S14915   6.703   2.145   7.958  1.3069  0.9250 -0.5833
  137OSM   H12T14916   6.576   2.221   8.054  0.3853 -0.8613 -0.2389
  137OSM   C13S14917   6.761   2.287   8.111  0.2253  0.5592 -0.8482
  137OSM   H13S14918   6.720   2.375   8.164 -0.2629  0.1463 -0.5234
  137OSM   H13T14919   6.855   2.320   8.063  0.4147 -1.6092 -2.1032
  137OSM   C14S14920   6.780   2.172   8.216  0.1445 -0.5011 -0.4622
  137OSM   H14S14921   6.816   2.082   8.160  0.8218  1.0951 -2.7432
  137OSM   H14T14922   6.687   2.142   8.268  1.8031 -0.2280  2.8968
  137OSM   C15S14923   6.881   2.201   8.322 -0.0939 -0.7799 -0.4578
  137OSM   H15S14924   6.847   2.292   8.376 -2.9098 -2.1588  0.2952
  137OSM   H15T14925   6.986   2.203   8.285 -0.4637 -2.0791 -1.6569
  137OSM   C16S14926   6.873   2.098   8.434 -0.4385  1.2194  0.1038
  137OSM   H16S14927   6.768   2.077   8.465  0.5130 -1.5931  1.8649
  137OSM   H16T14928   6.927   2.140   8.521 -1.6931  1.0376  0.9999
  137OSM   C17S14929   6.937   1.968   8.387  0.1018  0.2829 -0.6046
  137OSM   H17S14930   7.044   1.982   8.364  0.3428  1.7949  1.1710
  137OSM   H17T14931   6.895   1.938   8.289 -1.4814 -0.0551  0.1354
  137OSM   C18S14932   6.933   1.846   8.485  0.8349 -0.6676  0.2339
  137OSM   H18S14933   6.962   1.872   8.589  0.6165 -0.7446  0.3156
  137OSM   H18T14934   6.981   1.754   8.445 -0.9641 -1.6024  0.1396
  137OSM   H18U14935   6.825   1.820   8.491  1.0562 -1.5537  0.4637
  137OSM    C1F14936   6.617   2.950   7.149 -0.2869  0.3015  0.5910
  137OSM     OF14937   6.564   3.029   7.078 -0.0665 -0.0486  0.7161
  137OSM    C2F14938   6.635   2.983   7.285 -0.2375  1.0506 -0.1470
  137OSM    H2F14939   6.596   3.085   7.307  0.7615  1.2364  0.8578
  137OSM    H2G14940   6.740   2.980   7.320 -0.0733  0.1405 -0.6879
  137OSM    C3F14941   6.553   2.890   7.388 -0.3135 -0.1253 -0.3881
  137OSM    H3F14942   6.592   2.786   7.392 -0.1701 -0.1909 -2.5263
  137OSM    H3G14943   6.448   2.886   7.352  0.2219 -0.6923 -1.9547
  137OSM    C4F14944   6.570   2.935   7.535 -0.0728  0.2904  0.0527
  137OSM    H4F14945   6.559   3.045   7.542  0.6743  0.4225 -0.7446
  137OSM    H4G14946   6.674   2.914   7.569  0.4590 -0.2339 -1.8097
  137OSM    C5F14947   6.479   2.860   7.627  0.7454  0.1631 -0.2655
  137OSM    H5F14948   6.491   2.752   7.603  2.7319  0.5699 -1.3346
  137OSM    H5G14949   6.377   2.888   7.593 -0.1655 -0.2429  1.9848
  137OSM    C6F14950   6.492   2.875   7.776 -0.8388  0.9074  0.1477
  137OSM    H6F14951   6.394   2.836   7.812  0.4999 -1.8939  1.0031
  137OSM    H6G14952   6.510   2.982   7.803  3.1983  1.1565 -2.6780
  137OSM    C7F14953   6.597   2.789   7.846 -0.7468 -0.1988  0.8456
  137OSM    H7F14954   6.689   2.843   7.815 -0.3793 -0.8226  0.8361
  137OSM    H7G14955   6.598   2.688   7.799 -1.4471  1.1528 -2.3101
  137OSM    C8F14956   6.570   2.773   7.998 -0.1048  0.1160 -0.3453
  137OSM    H8F14957   6.649   2.707   8.039  0.3060  0.0206 -1.2722
  137OSM    H8G14958   6.480   2.710   8.010  0.2992 -0.2821  0.7527
  137OSM    C9F14959   6.578   2.905   8.077 -0.0380 -0.1671 -0.6046
  137OSM    H9F14960   6.669   2.963   8.056  0.6733 -1.0874 -0.1471
  137OSM   C10F14961   6.504   2.935   8.182  0.4570  0.1759 -0.7198
  137OSM   H10F14962   6.513   3.034   8.229 -0.4808 -0.1276  0.1414
  137OSM   C11F14963   6.394   2.854   8.252  0.0457 -0.4593  0.1551
  137OSM   H11F14964   6.343   2.780   8.186  1.8740 -1.9540  0.3328
  137OSM   H11G14965   6.318   2.931   8.279 -1.0285 -0.6219 -2.1463
  137OSM   C12F14966   6.436   2.791   8.386 -0.2232  1.0214 -1.2733
  137OSM   H12F14967   6.339   2.778   8.440  0.8009  1.0885  0.6615
  137OSM   H12G14968   6.497   2.862   8.446 -0.4422 -0.4461  0.8147
  137OSM   C13F14969   6.502   2.653   8.374  0.0375 -1.1043 -0.6647
  137OSM   H13F14970   6.566   2.654   8.283 -0.3889  0.7349 -0.9766
  137OSM   H13G14971   6.421   2.579   8.355 -0.5610 -0.9138  0.9290
  137OSM   C14F14972   6.590   2.610   8.493  0.2490  0.5953 -0.2572
  137OSM   H14F14973   6.590   2.499   8.500  2.3238  0.1717 -4.0673
  137OSM   H14G14974   6.555   2.650   8.590  1.1123 -0.6126  0.5805
  137OSM   C15F14975   6.738   2.636   8.485  0.2833  0.4430 -0.2291
  137OSM   H15F14976   6.749   2.744   8.509 -1.0173  1.2248 -2.7534
  137OSM   H15G14977   6.757   2.617   8.377  0.1309 -3.7657  0.3199
  137OSM   C16F14978   6.820   2.540   8.578  0.8266 -0.5771  0.6103
  137OSM   H16F14979   6.808   2.436   8.540 -1.0266 -0.9490  2.0795
  137OSM   H16G14980   6.778   2.550   8.680 -1.4129  0.0642 -0.3106
  137OSM   C17F14981   6.969   2.575   8.579 -0.3269  0.5988 -0.8848
  137OSM   H17F14982   7.019   2.523   8.663 -0.8216 -0.6965 -1.3619
  137OSM   H17G14983   6.980   2.685   8.590  0.0721  0.4455  0.4492
  137OSM   C18F14984   7.045   2.535   8.448 -0.1206 -0.7013 -0.5268
  137OSM   H18F14985   7.156   2.533   8.451  0.1786  1.5571 -3.9691
  137OSM   H18G14986   7.015   2.594   8.359  3.5799  1.2659 -0.6805
  137OSM   H18H14987   7.019   2.428   8.432 -1.4395 -0.1823 -2.1209
  138OSM      N14988   6.706   5.056   5.679  0.0374  0.3768  0.4627
  138OSM    C1514989   6.752   5.071   5.542 -0.4210 -0.3550 -0.1742
  138OSM   H15A14990   6.746   5.177   5.519  1.8739 -0.2070 -0.3745
  138OSM   H15B14991   6.689   5.028   5.467 -2.1013  0.3399  0.7818
  138OSM   H15C14992   6.856   5.041   5.534 -0.6688 -1.3480  0.2651
  138OSM    C1414993   6.696   4.905   5.700  0.2830  0.2057  0.0562
  138OSM   H14A14994   6.658   4.878   5.798  0.4341 -0.9244 -0.1810
  138OSM   H14B14995   6.789   4.849   5.695 -1.7726 -3.6002  0.5367
  138OSM   H14C14996   6.625   4.861   5.631 -0.7041  1.6732  0.0931
  138OSM    C1314997   6.808   5.124   5.767  0.5017  0.2262  0.3143
  138OSM   H13A14998   6.801   5.232   5.764  0.1221  0.1953 -2.2580
  138OSM   H13B14999   6.909   5.092   5.747  0.8334  1.5051 -0.1450
  138OSM   H13C15000   6.783   5.092   5.867 -0.3884 -1.4806 -0.4093
  138OSM    C1215001   6.576   5.119   5.699 -0.1840  0.1054  0.9031
  138OSM   H12A15002   6.513   5.085   5.618  1.4349 -1.7366  0.3301
  138OSM   H12B15003   6.595   5.224   5.683  3.5356 -0.1431  2.7868
  138OSM    C1115004   6.497   5.100   5.833  0.7095  0.1819  0.5179
  138OSM   H11A15005   6.464   4.994   5.821 -1.8180  1.1200 -1.7814
  138OSM   H11B15006   6.411   5.171   5.831  0.2955 -0.2960 -2.4367
  138OSM      P15007   6.562   5.231   6.053 -0.3547  0.8850 -0.3909
  138OSM    O1315008   6.587   5.352   5.976  0.4096 -0.4084  0.1084
  138OSM    O1415009   6.429   5.226   6.111 -0.5392  0.7754  0.4647
  138OSM    O1115010   6.683   5.204   6.152  0.3981  0.2021  0.0040
  138OSM    O1215011   6.578   5.108   5.950  0.1853  0.2747  0.2885
  138OSM    C1S15012   6.747   5.314   6.219 -0.8429  0.0878 -0.1058
  138OSM    H1S15013   6.684   5.405   6.216 -0.7318  0.1719  0.0404
  138OSM    H1T15014   6.844   5.344   6.173  0.1973 -1.9333  0.6462
  138OSM     NF15015   6.798   5.387   6.457  0.4033 -0.6382  0.4664
  138OSM    HNF15016   6.890   5.415   6.483  0.6242 -1.5923  0.7314
  138OSM    C2S15017   6.784   5.275   6.364 -0.1720  0.2744 -0.2759
  138OSM    H2S15018   6.699   5.212   6.399 -2.4951  0.7598 -4.3850
  138OSM    C3S15019   6.910   5.187   6.373 -0.0570 -0.2741  0.4750
  138OSM    H3S15020   6.992   5.245   6.328 -0.6577  1.6228  1.7145
  138OSM     O315021   6.913   5.064   6.300 -0.1620  0.5039 -0.1509
  138OSM    HO315022   6.862   5.083   6.221  2.4219  3.2661 -1.3567
  138OSM    C4S15023   6.953   5.151   6.513  0.3904 -0.3932 -0.9171
  138OSM    H4S15024   6.869   5.141   6.583  1.3010 -1.3638  0.0888
  138OSM    C5S15025   7.081   5.148   6.561  0.1390  0.4482 -0.0583
  138OSM    H5S15026   7.161   5.170   6.488 -0.7940 -0.3857 -1.3699
  138OSM    C6S15027   7.115   5.116   6.708 -0.2157 -0.5367  0.5479
  138OSM    H6S15028   7.217   5.073   6.720  0.3593  1.1440  2.2320
  138OSM    H6T15029   7.046   5.034   6.738 -1.0454 -0.3542 -0.7724
  138OSM    C7S15030   7.090   5.237   6.793  0.0700  0.0007  0.2344
  138OSM    H7S15031   6.986   5.277   6.789 -0.3498 -1.0725  0.0987
  138OSM    H7T15032   7.154   5.320   6.758 -0.2466 -0.0137 -0.3995
  138OSM    C8S15033   7.119   5.214   6.941 -0.3300 -0.0631 -0.4863
  138OSM    H8S15034   7.225   5.188   6.962 -0.3739 -0.2615 -0.5048
  138OSM    H8T15035   7.069   5.124   6.984  1.8036 -0.0995  2.1348
  138OSM    C9S15036   7.076   5.332   7.028 -0.3154 -0.4101  0.6893
  138OSM    H9S15037   6.974   5.373   7.010 -0.1652 -0.1833  0.3361
  138OSM    H9T15038   7.141   5.417   6.998  1.0545 -1.2008  1.3326
  138OSM   C10S15039   7.090   5.296   7.178 -0.1994 -0.2216 -0.4573
  138OSM   H10S15040   7.190   5.258   7.208  0.0200  1.2117  0.7234
  138OSM   H10T15041   6.995   5.240   7.194 -0.0260 -1.4756 -3.1674
  138OSM   C11S15042   7.077   5.414   7.272 -0.0122  0.1666  0.7025
  138OSM   H11S15043   6.978   5.457   7.248 -0.6347 -0.7677  1.4945
  138OSM   H11T15044   7.153   5.493   7.252 -0.9621  0.8145 -0.4404
  138OSM   C12S15045   7.091   5.366   7.420 -0.2084 -0.2913 -0.3505
  138OSM   H12S15046   7.189   5.315   7.436  1.5435  2.5584 -1.2092
  138OSM   H12T15047   7.013   5.290   7.443  0.8343 -0.4346  3.4416
  138OSM   C13S15048   7.075   5.483   7.521  0.5460  0.0612  0.4186
  138OSM   H13S15049   6.996   5.549   7.480 -1.4561 -2.6302 -0.3623
  138OSM   H13T15050   7.173   5.532   7.502 -0.1011  0.3362 -2.7487
  138OSM   C14S15051   7.057   5.445   7.666  0.3541  0.5074 -0.1141
  138OSM   H14S15052   7.141   5.384   7.707 -0.3259  0.5849  1.4734
  138OSM   H14T15053   6.969   5.380   7.687  0.1806  0.0705 -2.0354
  138OSM   C15S15054   7.050   5.575   7.755  0.5649 -0.3532 -0.3690
  138OSM   H15S15055   6.952   5.625   7.741  0.9926  0.3615 -0.8426
  138OSM   H15T15056   7.137   5.637   7.728  1.4261 -1.1148  0.5631
  138OSM   C16S15057   7.071   5.535   7.897  0.1866  0.5234  0.5750
  138OSM   H16S15058   7.177   5.502   7.903 -0.6608 -2.4381  0.5180
  138OSM   H16T15059   7.004   5.453   7.929  0.3295 -0.2068 -0.8881
  138OSM   C17S15060   7.047   5.652   7.990  0.0289 -0.0871  0.7057
  138OSM   H17S15061   6.942   5.687   7.988 -0.1794 -0.4935  2.3826
  138OSM   H17T15062   7.110   5.742   7.973  4.2860 -2.9471 -0.3244
  138OSM   C18S15063   7.072   5.616   8.129 -0.3515  0.3438 -0.1588
  138OSM   H18S15064   7.046   5.692   8.206  1.8915 -1.6406  2.8365
  138OSM   H18T15065   7.179   5.586   8.139 -0.0982  1.2459 -0.1101
  138OSM   H18U15066   7.013   5.524   8.153  1.4856 -0.6279  0.8663
  138OSM    C1F15067   6.690   5.462   6.494 -0.6042 -0.0403 -0.0621
  138OSM     OF15068   6.582   5.442   6.439  0.2633  0.3006 -0.0486
  138OSM    C2F15069   6.714   5.582   6.592  0.1886  0.5759  0.0031
  138OSM    H2F15070   6.622   5.616   6.644 -0.7054  0.1944 -1.2835
  138OSM    H2G15071   6.758   5.663   6.530 -0.5526  0.2916 -0.9180
  138OSM    C3F15072   6.809   5.551   6.706 -0.3128  0.5738 -0.2602
  138OSM    H3F15073   6.909   5.549   6.659  0.8589 -1.7257  2.0481
  138OSM    H3G15074   6.802   5.456   6.764  2.3174  0.3277 -0.2136
  138OSM    C4F15075   6.820   5.666   6.806  0.2003 -0.2461 -1.0590
  138OSM    H4F15076   6.727   5.672   6.866 -0.1476  0.6563 -1.6587
  138OSM    H4G15077   6.830   5.757   6.743  0.6035 -0.4329 -1.2783
  138OSM    C5F15078   6.943   5.664   6.894 -0.4828  0.3168  0.5433
  138OSM    H5F15079   7.023   5.615   6.834 -0.5318  1.4102 -0.4718
  138OSM    H5G15080   6.932   5.600   6.984  1.4690 -0.9085 -0.0208
  138OSM    C6F15081   6.989   5.803   6.950 -0.2335 -0.4115 -0.6973
  138OSM    H6F15082   6.898   5.841   7.002 -0.5156 -1.0421 -0.7287
  138OSM    H6G15083   7.014   5.871   6.866 -1.1880  2.0779  0.9004
  138OSM    C7F15084   7.102   5.776   7.054 -0.1054 -0.1465 -0.1404
  138OSM    H7F15085   7.187   5.757   6.985 -1.5498  0.8915 -2.3331
  138OSM    H7G15086   7.084   5.687   7.117 -1.6481  0.9097  0.9966
  138OSM    C8F15087   7.137   5.897   7.143  0.0180 -0.0516  0.5140
  138OSM    H8F15088   7.047   5.949   7.183  1.4840  2.7550  0.4079
  138OSM    H8G15089   7.184   5.973   7.077 -1.9687  0.5079 -0.3048
  138OSM    C9F15090   7.233   5.847   7.249  0.1158  0.0479  0.4977
  138OSM    H9F15091   7.329   5.811   7.207  0.0733  1.2891 -0.7258
  138OSM   C10F15092   7.204   5.826   7.379  0.1905 -0.3065 -0.9518
  138OSM   H10F15093   7.281   5.782   7.443  0.1822 -0.1714 -0.8479
  138OSM   C11F15094   7.074   5.855   7.454  0.4151  0.3817  0.1059
  138OSM   H11F15095   7.036   5.769   7.513 -3.8821  0.3377 -2.3277
  138OSM   H11G15096   6.996   5.892   7.385  0.8400  0.7399 -0.1921
  138OSM   C12F15097   7.106   5.970   7.551 -0.5358  0.1523  0.1482
  138OSM   H12F15098   7.009   5.975   7.604 -1.3912  1.2618 -1.4384
  138OSM   H12G15099   7.113   6.070   7.504 -0.9261 -0.0087 -0.2522
  138OSM   C13F15100   7.219   5.951   7.653  0.5151 -0.0927 -0.1917
  138OSM   H13F15101   7.317   5.921   7.611  1.0027 -1.2738  1.6841
  138OSM   H13G15102   7.192   5.857   7.706  0.8887  0.3310  0.7735
  138OSM   C14F15103   7.226   6.062   7.760  0.2332  0.8152 -0.5885
  138OSM   H14F15104   7.129   6.074   7.813  0.3090 -0.5123 -0.1200
  138OSM   H14G15105   7.247   6.160   7.711  1.6523 -0.1697 -2.0691
  138OSM   C15F15106   7.327   6.035   7.869 -0.0584 -0.3732 -0.5608
  138OSM   H15F15107   7.422   6.070   7.824  0.0656  0.6178  0.4282
  138OSM   H15G15108   7.341   5.927   7.890  1.3168  0.0977  1.1314
  138OSM   C16F15109   7.307   6.102   8.008 -0.6057 -0.6726 -0.7190
  138OSM   H16F15110   7.215   6.067   8.060  0.6022 -0.3249  1.8116
  138OSM   H16G15111   7.275   6.208   7.992  2.1152  0.4027  0.4229
  138OSM   C17F15112   7.435   6.098   8.101  0.5409 -0.0422 -0.0144
  138OSM   H17F15113   7.445   6.174   8.181  0.9270  1.5315 -1.4922
  138OSM   H17G15114   7.526   6.120   8.041  1.1781  0.4894  1.1045
  138OSM   C18F15115   7.450   5.959   8.172  0.0350  0.2079  0.4464
  138OSM   H18F15116   7.363   5.929   8.235 -0.1285  2.4601  1.3788
  138OSM   H18G15117   7.545   5.952   8.229  0.2870 -2.5200 -0.1751
  138OSM   H18H15118   7.457   5.884   8.090  1.9676 -0.5750  1.2466
  139OSM      N15119   5.784   6.432   6.130 -0.1659 -0.3343 -0.4712
  139OSM    C1515120   5.647   6.387   6.162  0.1938 -0.5694  0.0108
  139OSM   H15A15121   5.582   6.462   6.205  2.7148  3.5625 -2.6454
  139OSM   H15B15122   5.647   6.299   6.224  0.7710  0.2683  1.2333
  139OSM   H15C15123   5.600   6.356   6.070  0.3885 -2.3284  0.4766
  139OSM    C1415124   5.786   6.548   6.036 -0.0035 -0.4059 -0.0910
  139OSM   H14A15125   5.719   6.627   6.066 -0.4337 -0.8091  0.0290
  139OSM   H14B15126   5.753   6.528   5.935  1.0227  0.0456 -0.5352
  139OSM   H14C15127   5.884   6.590   6.022  1.1981 -2.6424  1.0413
  139OSM    C1315128   5.836   6.470   6.261 -0.1088  0.0907 -0.0052
  139OSM   H13A15129   5.936   6.509   6.254 -0.0006 -0.2789 -0.5246
  139OSM   H13B15130   5.848   6.384   6.326  1.1029  0.2323 -0.0234
  139OSM   H13C15131   5.770   6.540   6.311  1.6771  1.7766  0.0673
  139OSM    C1215132   5.864   6.317   6.063 -0.1746  0.5992 -0.2752
  139OSM   H12A15133   5.966   6.352   6.055  0.8976 -2.3224 -0.6961
  139OSM   H12B15134   5.825   6.313   5.962  0.4256 -1.2626 -0.4886
  139OSM    C1115135   5.860   6.176   6.116  0.0935 -0.9975  0.4093
  139OSM   H11A15136   5.895   6.102   6.041  1.4366 -0.5641  0.5938
  139OSM   H11B15137   5.751   6.159   6.130 -0.1290  1.2265  1.9799
  139OSM      P15138   6.062   6.147   6.270 -0.3944  0.1007  0.4585
  139OSM    O1315139   6.129   6.038   6.194  0.6960 -0.5830 -0.0278
  139OSM    O1415140   6.136   6.275   6.262  0.9194 -0.2459  0.2696
  139OSM    O1115141   6.057   6.113   6.423  0.2427  0.0468  0.0701
  139OSM    O1215142   5.911   6.169   6.246 -0.2558 -0.6760  0.1189
  139OSM    C1S15143   5.960   6.172   6.509 -0.1367 -0.0600  0.6041
  139OSM    H1S15144   5.861   6.128   6.489  0.2851 -1.3410  1.2448
  139OSM    H1T15145   5.947   6.281   6.491 -0.4039 -0.0653  0.7643
  139OSM     NF15146   5.890   6.182   6.729  0.6215 -0.1232 -0.6700
  139OSM    HNF15147   5.861   6.276   6.748 -1.4785 -0.8018 -0.3178
  139OSM    C2S15148   6.004   6.159   6.650  0.3084  0.1826  0.5393
  139OSM    H2S15149   6.039   6.053   6.657 -1.6018 -0.4726  0.7734
  139OSM    C3S15150   6.123   6.256   6.677  0.5518 -0.0894  0.0989
  139OSM    H3S15151   6.084   6.360   6.666 -0.1130 -0.0341  2.5320
  139OSM     O315152   6.232   6.232   6.591  0.1482  0.3766 -0.0179
  139OSM    HO315153   6.195   6.176   6.523 -0.9197 -0.5480  1.2623
  139OSM    C4S15154   6.172   6.244   6.822 -0.6554 -0.1410  0.2579
  139OSM    H4S15155   6.176   6.335   6.883 -0.9034 -0.8166  1.3284
  139OSM    C5S15156   6.204   6.132   6.887 -0.5911 -0.0220 -0.5295
  139OSM    H5S15157   6.202   6.035   6.836  0.1012 -0.6333  0.5548
  139OSM    C6S15158   6.260   6.120   7.031  0.7397  0.3094  0.1850
  139OSM    H6S15159   6.267   6.224   7.069  1.3739  0.5509 -0.5780
  139OSM    H6T15160   6.363   6.079   7.023  0.2116 -0.7370 -1.8585
  139OSM    C7S15161   6.181   6.021   7.120  0.0219 -0.1019 -0.5135
  139OSM    H7S15162   6.187   5.912   7.100 -3.3850 -1.0205  2.5130
  139OSM    H7T15163   6.074   6.050   7.116 -0.4469 -1.6296  0.5060
  139OSM    C8S15164   6.221   6.044   7.272 -0.1481  0.0937  0.5808
  139OSM    H8S15165   6.238   6.151   7.294 -1.0308  0.2115  0.7082
  139OSM    H8T15166   6.309   5.976   7.282  0.4655  0.8597  0.4997
  139OSM    C9S15167   6.113   5.995   7.366 -0.0301  0.0799  0.3162
  139OSM    H9S15168   6.082   5.895   7.328  0.7089  0.4170 -1.2237
  139OSM    H9T15169   6.028   6.065   7.353 -1.1728 -1.0319  1.4521
  139OSM   C10S15170   6.146   5.981   7.512  0.5282 -0.8012 -0.1964
  139OSM   H10S15171   6.240   5.927   7.537  0.5337 -0.3024  0.9394
  139OSM   H10T15172   6.074   5.916   7.566 -0.2517 -1.5004 -2.0162
  139OSM   C11S15173   6.159   6.119   7.581  0.1358  0.4203  0.8180
  139OSM   H11S15174   6.058   6.162   7.590  0.2059  0.9194 -0.5097
  139OSM   H11T15175   6.230   6.189   7.531 -0.1539  0.6301  0.7009
  139OSM   C12S15176   6.223   6.102   7.716  0.1373  0.1099 -0.4265
  139OSM   H12S15177   6.259   6.196   7.763  0.9853 -0.7607  0.7110
  139OSM   H12T15178   6.310   6.033   7.715  1.7127  2.0192 -0.0420
  139OSM   C13S15179   6.133   6.046   7.828  0.0371 -0.1693  0.1364
  139OSM   H13S15180   6.132   5.935   7.821  0.6023 -0.1764  0.1016
  139OSM   H13T15181   6.034   6.082   7.795 -0.1955 -1.4041 -0.5888
  139OSM   C14S15182   6.162   6.093   7.968 -0.1743 -0.4703 -0.3104
  139OSM   H14S15183   6.072   6.075   8.030  0.6430 -0.8155  0.8253
  139OSM   H14T15184   6.171   6.203   7.956 -0.6243 -0.1197  2.0099
  139OSM   C15S15185   6.287   6.044   8.037 -0.1128  0.2317  0.0538
  139OSM   H15S15186   6.368   6.066   7.964 -1.5312  1.7176 -1.1236
  139OSM   H15T15187   6.281   5.933   8.044 -1.4522  0.1134 -2.2081
  139OSM   C16S15188   6.336   6.105   8.174  0.4989  0.2161  0.2336
  139OSM   H16S15189   6.426   6.050   8.211  1.7386 -0.8820 -3.8885
  139OSM   H16T15190   6.247   6.086   8.238  0.9179 -2.2923  0.1733
  139OSM   C17S15191   6.364   6.253   8.157 -0.3947 -0.2847 -0.0559
  139OSM   H17S15192   6.358   6.302   8.257  0.9997 -0.7663  0.2856
  139OSM   H17T15193   6.281   6.299   8.099  0.8559  1.0029 -0.9118
  139OSM   C18S15194   6.490   6.284   8.074 -1.0393  0.0229 -0.2381
  139OSM   H18S15195   6.578   6.224   8.105  0.2962  1.1995 -1.5742
  139OSM   H18T15196   6.520   6.391   8.064  0.1348 -0.1381  1.2969
  139OSM   H18U15197   6.467   6.262   7.967 -2.4396  0.2851 -0.0198
  139OSM    C1F15198   5.806   6.085   6.768 -0.3043 -0.6410 -0.3992
  139OSM     OF15199   5.822   5.969   6.729 -0.4996  0.0854 -0.3464
  139OSM    C2F15200   5.694   6.124   6.862  0.0307  0.1466 -0.1105
  139OSM    H2F15201   5.597   6.096   6.816  0.9944 -2.2275 -0.8324
  139OSM    H2G15202   5.702   6.235   6.865 -0.2078  0.3437 -3.2894
  139OSM    C3F15203   5.717   6.068   7.003  0.0228  0.9181  0.2855
  139OSM    H3F15204   5.816   6.105   7.037 -0.2520  0.5291  1.5380
  139OSM    H3G15205   5.709   5.958   7.012 -1.7750  0.8184 -1.6423
  139OSM    C4F15206   5.626   6.125   7.110  0.4975  0.2904 -0.3819
  139OSM    H4F15207   5.526   6.084   7.085  1.2009  0.0611 -3.1326
  139OSM    H4G15208   5.636   6.235   7.105  1.7499  0.3488  1.9868
  139OSM    C5F15209   5.664   6.075   7.249  0.3496  0.7545  0.1369
  139OSM    H5F15210   5.772   6.089   7.269  0.5009 -1.4218  1.2791
  139OSM    H5G15211   5.646   5.965   7.260  1.0992  0.7369  1.4478
  139OSM    C6F15212   5.580   6.140   7.362 -0.1055 -0.4365  1.0738
  139OSM    H6F15213   5.471   6.135   7.342 -0.3183  1.0327  1.7312
  139OSM    H6G15214   5.605   6.249   7.365  1.9360 -0.8848  2.2203
  139OSM    C7F15215   5.588   6.090   7.504  0.0605  0.0730 -0.7664
  139OSM    H7F15216   5.528   5.996   7.506  0.1371  0.0371  0.8579
  139OSM    H7G15217   5.530   6.159   7.567  0.6207 -0.8829  0.8684
  139OSM    C8F15218   5.730   6.073   7.563 -0.2359  0.6234  0.2482
  139OSM    H8F15219   5.781   6.172   7.565  0.6335  0.2484 -1.3782
  139OSM    H8G15220   5.788   6.010   7.492 -0.7636  0.4188 -0.0085
  139OSM    C9F15221   5.746   6.016   7.702 -0.3663 -0.6671  0.9413
  139OSM    H9F15222   5.839   5.958   7.712 -0.4421 -0.7856  0.9590
  139OSM   C10F15223   5.661   6.037   7.811 -0.8368 -0.5789 -0.7229
  139OSM   H10F15224   5.688   5.992   7.908  3.8660  2.4417 -0.3363
  139OSM   C11F15225   5.535   6.113   7.815  0.4998  0.9534 -0.1423
  139OSM   H11F15226   5.449   6.077   7.755 -1.6456 -1.5174  3.9747
  139OSM   H11G15227   5.558   6.215   7.779  0.0062  0.3308 -2.4142
  139OSM   C12F15228   5.467   6.145   7.951 -0.3685 -0.9223 -0.4042
  139OSM   H12F15229   5.424   6.247   7.942 -0.1897 -0.9791 -2.2606
  139OSM   H12G15230   5.552   6.158   8.021 -1.5976 -0.6011  1.0695
  139OSM   C13F15231   5.377   6.032   7.999  0.0262  0.2302  0.2071
  139OSM   H13F15232   5.438   5.940   8.006  0.3721  0.5346  1.3763
  139OSM   H13G15233   5.295   6.019   7.925  2.5962  0.5429 -2.9117
  139OSM   C14F15234   5.312   6.073   8.132 -0.1252  0.0502  0.0947
  139OSM   H14F15235   5.224   6.140   8.118 -0.8257 -1.4306 -4.2627
  139OSM   H14G15236   5.389   6.141   8.174  0.8698 -0.5584 -0.7099
  139OSM   C15F15237   5.292   5.968   8.241  0.2284 -0.1865 -0.1677
  139OSM   H15F15238   5.383   5.912   8.273  0.1755 -0.8928 -1.2081
  139OSM   H15G15239   5.232   5.886   8.197  0.9671 -1.5583  1.2483
  139OSM   C16F15240   5.224   6.005   8.373  0.0059  0.8057 -0.7849
  139OSM   H16F15241   5.142   6.079   8.361 -0.2110  0.7256  0.0901
  139OSM   H16G15242   5.308   6.050   8.429  1.3883 -0.6287 -1.6334
  139OSM   C17F15243   5.185   5.879   8.456  0.4847 -0.1786  0.1575
  139OSM   H17F15244   5.285   5.834   8.478  1.4109  1.9708  0.5556
  139OSM   H17G15245   5.124   5.810   8.394  2.0796  0.3992 -2.1914
  139OSM   C18F15246   5.118   5.897   8.598 -0.5066 -0.8189  0.4195
  139OSM   H18F15247   5.191   5.957   8.656  1.7104 -0.7172 -2.2784
  139OSM   H18G15248   5.116   5.804   8.660  1.5142 -1.6892 -0.7223
  139OSM   H18H15249   5.021   5.952   8.597 -0.5619 -0.9216 -0.3309
  140OSM      N15250   6.361   0.563   6.117  0.7117 -0.2406 -0.3567
  140OSM    C1515251   6.353   0.671   6.005 -0.5628  0.3883  0.3857
  140OSM   H15A15252   6.316   0.627   5.914  1.0179 -0.2049  0.0055
  140OSM   H15B15253   6.451   0.709   5.980 -0.1302 -0.8890  0.0681
  140OSM   H15C15254   6.300   0.758   6.041  0.3017  1.4713 -0.8807
  140OSM    C1415255   6.218   0.500   6.142 -0.3725  0.1503  0.6781
  140OSM   H14A15256   6.144   0.578   6.148  1.8050  2.4249 -0.2659
  140OSM   H14B15257   6.205   0.445   6.234 -0.9668 -0.4586  0.2393
  140OSM   H14C15258   6.200   0.433   6.059  0.7258  0.5535  0.0904
  140OSM    C1315259   6.460   0.457   6.080 -0.2922  0.1927 -0.5595
  140OSM   H13A15260   6.564   0.487   6.078 -0.8106  2.1172 -2.0381
  140OSM   H13B15261   6.439   0.406   5.987  0.4469  1.5135 -1.4842
  140OSM   H13C15262   6.465   0.378   6.153  0.2609  1.3331  0.6773
  140OSM    C1215263   6.411   0.626   6.250  0.2343  0.2985  0.2308
  140OSM   H12A15264   6.426   0.550   6.325  1.8743 -0.7624 -1.1061
  140OSM   H12B15265   6.333   0.694   6.281 -0.3952  1.1564 -2.8281
  140OSM    C1115266   6.537   0.715   6.244  0.4500 -0.8190 -0.2540
  140OSM   H11A15267   6.546   0.769   6.341 -2.4630  1.2391 -0.9929
  140OSM   H11B15268   6.524   0.802   6.176  2.9699  1.5067  2.0286
  140OSM      P15269   6.713   0.542   6.317 -0.0139  0.0679 -0.2095
  140OSM    O1315270   6.641   0.412   6.314 -0.5258 -0.5309 -0.3045
  140OSM    O1415271   6.858   0.535   6.323 -0.4372 -0.3878 -0.0225
  140OSM    O1115272   6.659   0.602   6.454  0.0178  0.2333  0.0799
  140OSM    O1215273   6.657   0.640   6.208 -0.1781 -0.0132 -0.6810
  140OSM    C1S15274   6.734   0.673   6.553 -0.0940 -0.1637 -0.3593
  140OSM    H1S15275   6.716   0.781   6.536  0.4432  0.5721  2.9916
  140OSM    H1T15276   6.844   0.654   6.553 -0.3779 -2.0425  0.9737
  140OSM     NF15277   6.761   0.733   6.796  0.0993  0.3463  0.1714
  140OSM    HNF15278   6.851   0.712   6.833  1.4707  3.2556 -1.1856
  140OSM    C2S15279   6.697   0.641   6.700  0.7289 -0.4456 -0.0949
  140OSM    H2S15280   6.589   0.653   6.724  1.3918  2.2265  1.9397
  140OSM    C3S15281   6.733   0.492   6.730 -0.4458  0.1169 -0.7757
  140OSM    H3S15282   6.834   0.475   6.688 -0.7834  0.6042 -1.8397
  140OSM     O315283   6.658   0.402   6.653 -0.5227  0.1289 -0.2229
  140OSM    HO315284   6.618   0.450   6.581  0.8914  0.9104 -0.5362
  140OSM    C4S15285   6.720   0.455   6.883 -0.5241 -0.6012 -0.4074
  140OSM    H4S15286   6.622   0.467   6.930  0.3304  1.3732  0.9769
  140OSM    C5S15287   6.822   0.407   6.960  0.2977  0.0652 -0.7562
  140OSM    H5S15288   6.919   0.402   6.908  0.0463 -0.6246 -1.1704
  140OSM    C6S15289   6.819   0.369   7.103  0.8015  0.0908  0.1398
  140OSM    H6S15290   6.926   0.364   7.132  1.4172 -1.2087 -2.0895
  140OSM    H6T15291   6.791   0.262   7.112  2.5637 -0.4117  0.0030
  140OSM    C7S15292   6.736   0.464   7.203  0.8598 -0.4536  0.3441
  140OSM    H7S15293   6.641   0.494   7.153  1.0577  2.1549  1.4152
  140OSM    H7T15294   6.785   0.561   7.224  1.1226 -0.1090 -1.6325
  140OSM    C8S15295   6.704   0.392   7.339  0.2762  0.4205  0.4259
  140OSM    H8S15296   6.767   0.301   7.328  1.3641  1.3961 -2.3381
  140OSM    H8T15297   6.595   0.375   7.350  0.5547 -0.7803  1.5839
  140OSM    C9S15298   6.751   0.469   7.466 -0.0960  0.7791  0.0793
  140OSM    H9S15299   6.732   0.578   7.463 -2.3189  0.4855  1.6772
  140OSM    H9T15300   6.860   0.448   7.473  0.0070  0.2927 -2.1146
  140OSM   C10S15301   6.681   0.425   7.593  0.6107 -0.6504 -0.5991
  140OSM   H10S15302   6.703   0.319   7.615 -0.0024 -0.7836 -0.6057
  140OSM   H10T15303   6.570   0.424   7.589  0.5761 -2.1691  0.2886
  140OSM   C11S15304   6.721   0.528   7.712  0.4890  0.5221 -0.4104
  140OSM   H11S15305   6.723   0.632   7.672  2.2407  0.6421 -0.0860
  140OSM   H11T15306   6.821   0.488   7.737 -0.8629 -2.6586  0.4379
  140OSM   C12S15307   6.648   0.512   7.847  0.3150 -0.4117  0.0976
  140OSM   H12S15308   6.635   0.403   7.861  1.8105 -1.0181 -2.5435
  140OSM   H12T15309   6.547   0.558   7.846 -0.5089 -2.0892  1.3884
  140OSM   C13S15310   6.729   0.567   7.963  0.0605  0.1548  0.0103
  140OSM   H13S15311   6.773   0.668   7.951 -2.2456  1.4070  1.1776
  140OSM   H13T15312   6.800   0.489   7.997  1.2199  1.1125 -0.1791
  140OSM   C14S15313   6.648   0.594   8.091 -0.0688  0.3350  0.1897
  140OSM   H14S15314   6.604   0.499   8.127 -0.1623  0.5971  0.7862
  140OSM   H14T15315   6.565   0.664   8.066 -0.2585 -0.1594 -0.5786
  140OSM   C15S15316   6.733   0.649   8.206  0.6373  0.2103 -0.0872
  140OSM   H15S15317   6.813   0.715   8.165 -0.0782  0.3193 -1.3644
  140OSM   H15T15318   6.771   0.563   8.264  0.0624  0.4400  0.6451
  140OSM   C16S15319   6.662   0.744   8.302  0.2972 -0.0253  0.7553
  140OSM   H16S15320   6.568   0.694   8.334 -0.1191  0.9683  1.1096
  140OSM   H16T15321   6.626   0.832   8.246 -0.7880 -1.0395 -0.1807
  140OSM   C17S15322   6.737   0.795   8.427 -0.0947  0.4512 -0.5525
  140OSM   H17S15323   6.668   0.855   8.491  0.0424 -0.0166  0.0472
  140OSM   H17T15324   6.811   0.869   8.390  0.6596 -0.9057 -1.8686
  140OSM   C18S15325   6.803   0.679   8.505 -0.0980 -0.2522 -0.5962
  140OSM   H18S15326   6.833   0.717   8.605 -0.4930 -1.9221  0.2087
  140OSM   H18T15327   6.898   0.646   8.458  0.1929  0.6715 -0.6675
  140OSM   H18U15328   6.741   0.587   8.512  1.7510 -1.4561  1.1325
  140OSM    C1F15329   6.726   0.857   6.809  0.8091  0.6423 -0.8029
  140OSM     OF15330   6.646   0.911   6.743 -0.1259  0.1669 -0.3184
  140OSM    C2F15331   6.775   0.933   6.930 -1.1486  0.2611  0.7022
  140OSM    H2F15332   6.691   0.989   6.976 -1.4617 -0.8593  1.5370
  140OSM    H2G15333   6.860   0.998   6.902 -2.1275  1.3034  0.0860
  140OSM    C3F15334   6.828   0.832   7.033  0.2148 -0.2958  0.3361
  140OSM    H3F15335   6.915   0.770   7.004 -0.4320 -2.0049  1.8062
  140OSM    H3G15336   6.753   0.755   7.061 -0.7365 -0.6852 -2.9010
  140OSM    C4F15337   6.880   0.903   7.164  0.4797  0.2132 -0.0040
  140OSM    H4F15338   6.853   1.010   7.156  2.5606  0.8692  0.9256
  140OSM    H4G15339   6.990   0.911   7.152  0.6380  0.7259  1.5620
  140OSM    C5F15340   6.832   0.843   7.295 -0.6480  0.3919 -0.5396
  140OSM    H5F15341   6.889   0.748   7.300  0.1072  0.8780  0.3349
  140OSM    H5G15342   6.724   0.815   7.294  0.2174 -3.4785  0.2523
  140OSM    C6F15343   6.866   0.925   7.423  0.5192 -0.2446 -0.1125
  140OSM    H6F15344   6.821   1.025   7.403 -1.9144 -0.7015  2.4762
  140OSM    H6G15345   6.974   0.942   7.444  0.6171  0.0825 -0.8335
  140OSM    C7F15346   6.806   0.868   7.557 -0.1566  0.2695 -0.4388
  140OSM    H7F15347   6.860   0.772   7.567  2.2059  1.7584  2.3728
  140OSM    H7G15348   6.697   0.844   7.550 -0.2659  1.1509 -3.2215
  140OSM    C8F15349   6.820   0.962   7.684 -0.5681  0.3198 -0.3983
  140OSM    H8F15350   6.782   0.912   7.775 -1.0362 -0.4880 -1.0270
  140OSM    H8G15351   6.754   1.050   7.666  0.2048  0.8921 -0.4774
  140OSM    C9F15352   6.964   1.007   7.710 -0.2688  0.2336 -0.4871
  140OSM    H9F15353   7.035   1.005   7.625  0.5554  2.4549  0.0957
  140OSM   C10F15354   7.007   1.058   7.825 -0.1259  0.9768 -0.0701
  140OSM   H10F15355   7.112   1.089   7.838 -0.0769  0.2786  1.4473
  140OSM   C11F15356   6.924   1.064   7.951 -0.5840  0.0571 -0.5596
  140OSM   H11F15357   6.814   1.060   7.936 -0.6596  3.0739 -1.4445
  140OSM   H11G15358   6.937   1.162   8.003 -2.0913 -0.5473  1.0469
  140OSM   C12F15359   6.971   0.949   8.047  0.1197 -0.2133  0.5406
  140OSM   H12F15360   6.979   0.852   7.994 -1.0822 -1.3203  2.3057
  140OSM   H12G15361   6.897   0.937   8.129 -0.1828 -0.6105  0.2154
  140OSM   C13F15362   7.107   0.974   8.129  0.6231 -1.0979  0.7368
  140OSM   H13F15363   7.135   1.081   8.142  3.6932 -1.7939  0.6802
  140OSM   H13G15364   7.179   0.933   8.056 -0.0765 -2.2945  0.6914
  140OSM   C14F15365   7.128   0.891   8.255  0.2725  0.1886  0.3995
  140OSM   H14F15366   7.104   0.787   8.226  0.0443  0.5100 -0.6280
  140OSM   H14G15367   7.054   0.918   8.333  0.5132 -0.1975  0.7591
  140OSM   C15F15368   7.260   0.902   8.329 -0.6227  1.0888  0.1651
  140OSM   H15F15369   7.275   0.801   8.373  0.2837  0.7637 -0.8635
  140OSM   H15G15370   7.247   0.984   8.403 -0.9258  0.6988  0.5553
  140OSM   C16F15371   7.379   0.934   8.226  0.3663  0.0357  0.2649
  140OSM   H16F15372   7.356   1.026   8.169 -1.7464  0.5227  1.7774
  140OSM   H16G15373   7.380   0.844   8.160 -1.8529 -0.5110  0.8882
  140OSM   C17F15374   7.517   0.959   8.296 -0.3464 -0.4786  0.8224
  140OSM   H17F15375   7.587   0.967   8.210 -0.7848  1.3463  0.5884
  140OSM   H17G15376   7.550   0.880   8.366  1.8896 -1.8034 -1.5636
  140OSM   C18F15377   7.526   1.092   8.371 -0.2079 -0.5084  0.2118
  140OSM   H18F15378   7.508   1.172   8.296  0.5678 -1.3059 -0.8475
  140OSM   H18G15379   7.622   1.101   8.426 -0.4582  0.3490  0.5175
  140OSM   H18H15380   7.446   1.098   8.448  1.2982  2.3333  1.6963
  141OSM      N15381   5.767   1.885   6.161 -0.8147 -0.2145 -0.0163
  141OSM    C1515382   5.654   1.929   6.083  0.3263  0.1043 -0.8389
  141OSM   H15A15383   5.570   1.865   6.104  0.8181  0.1989  1.7079
  141OSM   H15B15384   5.685   1.917   5.980  1.8695  0.3621 -0.4315
  141OSM   H15C15385   5.633   2.035   6.089  1.2623  0.2643 -0.2646
  141OSM    C1415386   5.746   1.926   6.302  0.0787 -0.3895  0.3976
  141OSM   H14A15387   5.645   1.909   6.335 -0.2708 -1.5481 -1.1358
  141OSM   H14B15388   5.761   2.032   6.312 -1.6797  0.1995 -2.1654
  141OSM   H14C15389   5.803   1.871   6.376 -0.3506  1.7100  2.3985
  141OSM    C1315390   5.755   1.738   6.170  0.1944  0.0533  0.7628
  141OSM   H13A15391   5.652   1.717   6.195 -0.2554  0.1710 -0.8619
  141OSM   H13B15392   5.825   1.705   6.245  1.5236  0.9266 -0.0560
  141OSM   H13C15393   5.764   1.689   6.074 -2.6891 -0.3861  0.6305
  141OSM    C1215394   5.901   1.940   6.115 -1.0224  0.2067 -0.3298
  141OSM   H12A15395   5.922   1.895   6.019 -2.0112 -0.8204 -0.0910
  141OSM   H12B15396   5.985   1.908   6.175  0.8823  0.2733 -2.8449
  141OSM    C1115397   5.911   2.097   6.092 -1.1050  0.8485  0.6145
  141OSM   H11A15398   5.822   2.136   6.039 -0.0386  1.2107 -0.9582
  141OSM   H11B15399   6.003   2.118   6.033 -1.8587 -0.1450 -0.9694
  141OSM      P15400   6.056   2.169   6.306  0.2042 -0.1382 -0.0505
  141OSM    O1315401   6.111   2.032   6.300  0.2368 -0.1861 -0.0701
  141OSM    O1415402   6.147   2.282   6.266 -0.5453  0.1728 -0.8096
  141OSM    O1115403   6.002   2.207   6.451 -0.1185  0.5165 -0.2420
  141OSM    O1215404   5.920   2.167   6.219  0.3934  0.0244  0.5537
  141OSM    C1S15405   5.889   2.294   6.452  0.3314 -0.2271  0.2300
  141OSM    H1S15406   5.798   2.263   6.396 -1.1692  1.3409  1.6950
  141OSM    H1T15407   5.914   2.394   6.410  0.6982 -1.3444 -2.4168
  141OSM     NF15408   5.707   2.343   6.612  0.6848 -0.5222  0.1734
  141OSM    HNF15409   5.678   2.438   6.621 -0.2763 -0.7809 -0.1243
  141OSM    C2S15410   5.842   2.306   6.598 -0.7855 -0.7597  0.0840
  141OSM    H2S15411   5.845   2.204   6.643  0.4347 -1.1770 -0.8944
  141OSM    C3S15412   5.942   2.399   6.677  0.6342 -0.0495 -0.2471
  141OSM    H3S15413   5.927   2.496   6.627 -0.4133 -0.7060 -1.2520
  141OSM     O315414   6.082   2.369   6.664 -0.2894  0.5839 -0.2297
  141OSM    HO315415   6.076   2.311   6.588 -1.4081  1.7881 -1.1125
  141OSM    C4S15416   5.917   2.397   6.827  0.4003 -0.2115  0.1646
  141OSM    H4S15417   5.902   2.499   6.865  0.0100  0.3643 -1.4418
  141OSM    C5S15418   5.924   2.289   6.908  0.0863  0.0426 -0.4278
  141OSM    H5S15419   5.954   2.191   6.868  3.0198  0.9784 -0.7833
  141OSM    C6S15420   5.896   2.303   7.052 -0.3124 -1.4588 -0.1372
  141OSM    H6S15421   5.847   2.212   7.094 -2.4994  0.5951  2.0862
  141OSM    H6T15422   5.828   2.389   7.069  1.7298 -0.0406  1.3574
  141OSM    C7S15423   6.017   2.342   7.136  0.1040  0.4500 -0.2153
  141OSM    H7S15424   6.071   2.424   7.084 -0.7442 -0.6662 -3.0159
  141OSM    H7T15425   6.086   2.255   7.131  1.1036  1.2164 -0.0715
  141OSM    C8S15426   5.983   2.383   7.275  0.1658  0.0107 -0.6611
  141OSM    H8S15427   5.912   2.468   7.275  0.2507  0.0808 -0.0240
  141OSM    H8T15428   6.076   2.409   7.328  0.7434  0.7677 -2.0013
  141OSM    C9S15429   5.910   2.268   7.348  0.4970  0.0772  0.6728
  141OSM    H9S15430   5.944   2.169   7.310  0.1257 -0.2597  1.2084
  141OSM    H9T15431   5.808   2.270   7.305  0.8908  1.0150 -0.2931
  141OSM   C10S15432   5.938   2.284   7.496 -0.5482  0.7569  0.3738
  141OSM   H10S15433   5.917   2.391   7.517 -1.8200  0.6101 -0.0902
  141OSM   H10T15434   6.045   2.264   7.516 -0.5644 -1.5341 -1.4245
  141OSM   C11S15435   5.863   2.190   7.592  0.6677 -0.5494  0.2010
  141OSM   H11S15436   5.897   2.085   7.579 -0.8064 -1.1032  0.5970
  141OSM   H11T15437   5.753   2.200   7.576  0.8783 -0.9251 -1.7133
  141OSM   C12S15438   5.887   2.218   7.745  0.5197 -0.2320  0.0690
  141OSM   H12S15439   5.869   2.326   7.765  0.9608 -0.4347  1.6403
  141OSM   H12T15440   5.997   2.206   7.753  0.4565 -0.3822  0.7833
  141OSM   C13S15441   5.813   2.131   7.844 -0.2577 -0.3789 -0.1123
  141OSM   H13S15442   5.825   2.028   7.803 -0.7146  0.0221 -1.2806
  141OSM   H13T15443   5.704   2.149   7.838 -0.1905 -0.2269 -1.1702
  141OSM   C14S15444   5.872   2.152   7.981 -0.1599  0.3514  0.2904
  141OSM   H14S15445   5.828   2.246   8.021  0.3804  0.9001 -0.3977
  141OSM   H14T15446   5.983   2.150   7.984  0.0086 -0.7272 -2.7824
  141OSM   C15S15447   5.825   2.035   8.068 -0.4252 -0.3306 -0.5990
  141OSM   H15S15448   5.905   1.958   8.064  1.9229  1.8514  1.1354
  141OSM   H15T15449   5.730   1.991   8.030 -0.1616 -1.9612  0.5210
  141OSM   C16S15450   5.821   2.068   8.223  0.0204 -0.0525  0.2066
  141OSM   H16S15451   5.711   2.074   8.236 -0.5297 -1.0835 -3.0747
  141OSM   H16T15452   5.871   2.165   8.246  1.8674 -0.9290  0.1019
  141OSM   C17S15453   5.894   1.965   8.311  0.2040  0.6290 -0.0248
  141OSM   H17S15454   6.003   1.970   8.295  0.1603 -1.1378 -1.0845
  141OSM   H17T15455   5.862   1.863   8.282  1.2195  0.3516 -0.1956
  141OSM   C18S15456   5.882   1.992   8.462  0.1705 -0.4289  0.0986
  141OSM   H18S15457   5.782   2.036   8.477  0.4276 -0.2168  1.3026
  141OSM   H18T15458   5.960   2.069   8.484 -0.0442 -0.4197  0.8730
  141OSM   H18U15459   5.886   1.908   8.534 -1.5812 -0.4872  0.1678
  141OSM    C1F15460   5.609   2.264   6.580  0.2027  0.6928  0.6844
  141OSM     OF15461   5.627   2.147   6.546 -0.1073 -0.4172  0.9043
  141OSM    C2F15462   5.465   2.319   6.591 -0.7905  0.1640 -0.1320
  141OSM    H2F15463   5.405   2.273   6.510 -0.3653  0.3326 -0.5471
  141OSM    H2G15464   5.464   2.425   6.557 -2.4779  0.5369  0.9478
  141OSM    C3F15465   5.398   2.298   6.728  0.3058  0.4466  0.6643
  141OSM    H3F15466   5.393   2.197   6.774  1.4336  0.0229 -0.1294
  141OSM    H3G15467   5.292   2.332   6.716  0.0633  0.3863  2.3993
  141OSM    C4F15468   5.446   2.396   6.832 -0.3766 -0.0176 -0.3703
  141OSM    H4F15469   5.449   2.501   6.795  2.2351  0.3426  0.6703
  141OSM    H4G15470   5.554   2.383   6.856 -0.0913  1.8626 -0.4914
  141OSM    C5F15471   5.355   2.389   6.960 -0.0944  0.4863  0.2503
  141OSM    H5F15472   5.331   2.283   6.981 -0.7534  0.6573  0.3758
  141OSM    H5G15473   5.255   2.433   6.942 -0.1818  1.2578  2.3328
  141OSM    C6F15474   5.417   2.449   7.085 -0.6477 -0.6789 -0.1816
  141OSM    H6F15475   5.408   2.560   7.084 -3.2376 -0.8235 -0.8455
  141OSM    H6G15476   5.525   2.428   7.072 -0.5467 -0.1308 -0.2251
  141OSM    C7F15477   5.379   2.376   7.216  0.6399 -0.0975 -0.7955
  141OSM    H7F15478   5.362   2.269   7.191  3.2006 -0.4269 -1.3657
  141OSM    H7G15479   5.281   2.415   7.250  1.3551 -0.3407  1.7545
  141OSM    C8F15480   5.491   2.365   7.324 -0.4468 -0.6199 -0.5178
  141OSM    H8F15481   5.582   2.322   7.276 -0.3792 -0.3405 -0.6364
  141OSM    H8G15482   5.456   2.290   7.399  0.9838 -1.3123 -0.5187
  141OSM    C9F15483   5.509   2.502   7.391 -0.3989  0.2508 -0.3939
  141OSM    H9F15484   5.597   2.560   7.361  0.4732 -0.5589  0.5283
  141OSM   C10F15485   5.450   2.530   7.513  0.4448  0.2697  0.0443
  141OSM   H10F15486   5.451   2.632   7.554  0.8982 -0.4245  1.8744
  141OSM   C11F15487   5.350   2.445   7.593 -0.4585  0.0288  0.2631
  141OSM   H11F15488   5.298   2.383   7.518  1.1932  0.6435 -1.4708
  141OSM   H11G15489   5.280   2.512   7.648  0.1921 -1.2999  2.8888
  141OSM   C12F15490   5.415   2.352   7.699  0.4614 -0.4050  0.1243
  141OSM   H12F15491   5.489   2.277   7.664 -3.2147 -3.2974 -2.1856
  141OSM   H12G15492   5.334   2.281   7.724 -0.7142  0.9681  0.3658
  141OSM   C13F15493   5.455   2.421   7.837 -0.3643 -0.4745  0.3535
  141OSM   H13F15494   5.372   2.489   7.867  0.4985 -0.0196  1.8427
  141OSM   H13G15495   5.542   2.486   7.812 -3.1267  2.6076 -2.3610
  141OSM   C14F15496   5.475   2.314   7.942  0.3458  0.1323  0.2001
  141OSM   H14F15497   5.583   2.286   7.945 -0.2336 -2.1833  1.4474
  141OSM   H14G15498   5.411   2.230   7.911 -1.7459  1.7608 -0.1016
  141OSM   C15F15499   5.449   2.360   8.085  0.1008  0.1667 -0.0019
  141OSM   H15F15500   5.339   2.362   8.097 -0.0609  1.0153 -1.4659
  141OSM   H15G15501   5.489   2.462   8.104  0.4433  0.0296  0.0257
  141OSM   C16F15502   5.506   2.267   8.200 -0.1864 -0.0170 -0.2853
  141OSM   H16F15503   5.616   2.264   8.189 -0.0883  0.0675  0.5825
  141OSM   H16G15504   5.454   2.169   8.189 -1.6849  0.3994  2.1283
  141OSM   C17F15505   5.479   2.319   8.346  0.0635 -0.0671  0.0359
  141OSM   H17F15506   5.377   2.361   8.358 -0.2818 -1.1368  1.0885
  141OSM   H17G15507   5.552   2.400   8.367  0.2792 -0.7992  2.4909
  141OSM   C18F15508   5.502   2.213   8.458 -0.0375 -0.3261  0.3678
  141OSM   H18F15509   5.419   2.140   8.443  1.3753 -1.9635  0.1834
  141OSM   H18G15510   5.488   2.278   8.546 -0.9277 -1.2760  0.9539
  141OSM   H18H15511   5.600   2.161   8.456  0.3481  0.3364 -2.3382
  142OSM      N15512   6.474   3.812   6.298 -0.0877 -0.4651  0.9789
  142OSM    C1515513   6.484   3.666   6.258 -0.1232 -0.1948 -0.2685
  142OSM   H15A15514   6.441   3.651   6.161  2.7770 -1.2431 -1.5078
  142OSM   H15B15515   6.430   3.608   6.331 -0.0838 -0.9350 -0.8220
  142OSM   H15C15516   6.589   3.640   6.251  0.7296  2.4263  1.3060
  142OSM    C1415517   6.346   3.855   6.357 -0.6170  0.1458 -0.5625
  142OSM   H14A15518   6.356   3.959   6.387 -2.5516  0.6714 -1.5509
  142OSM   H14B15519   6.324   3.806   6.451  0.1474 -1.8065 -1.3718
  142OSM   H14C15520   6.270   3.839   6.281 -0.1104 -0.9203 -0.8592
  142OSM    C1315521   6.583   3.847   6.394 -0.4538  1.1808 -0.4493
  142OSM   H13A15522   6.677   3.814   6.352  0.2339  1.9016  0.4826
  142OSM   H13B15523   6.570   3.807   6.494  0.5470 -0.8598 -1.0715
  142OSM   H13C15524   6.584   3.954   6.405 -0.2163  1.1524 -0.1883
  142OSM    C1215525   6.492   3.907   6.172  0.5473 -0.3760 -0.9694
  142OSM   H12A15526   6.441   3.876   6.082  0.5600 -1.2888 -0.6714
  142OSM   H12B15527   6.599   3.905   6.157  0.7692 -2.0852  0.5641
  142OSM    C1115528   6.456   4.056   6.183  1.0903  0.2389 -0.1540
  142OSM   H11A15529   6.351   4.071   6.217  0.6936  0.1413 -1.2936
  142OSM   H11B15530   6.449   4.097   6.080 -2.2000 -0.9083 -0.5005
  142OSM      P15531   6.531   4.280   6.262 -0.4488  0.0139  0.0380
  142OSM    O1315532   6.660   4.334   6.217 -0.0469 -0.6829  1.0769
  142OSM    O1415533   6.410   4.321   6.195 -0.0766 -0.7080 -0.4479
  142OSM    O1115534   6.519   4.306   6.414  0.3991 -0.0448 -0.2979
  142OSM    O1215535   6.538   4.122   6.274 -0.1339 -0.0836  0.0518
  142OSM    C1S15536   6.606   4.247   6.510 -0.2301  0.0093  0.6317
  142OSM    H1S15537   6.691   4.315   6.535 -1.1708  2.3603 -1.9925
  142OSM    H1T15538   6.650   4.148   6.486  2.4463  1.4501 -0.9279
  142OSM     NF15539   6.636   4.180   6.740 -0.0813 -0.3438  0.3832
  142OSM    HNF15540   6.652   4.082   6.748  0.0476 -0.4739 -1.0979
  142OSM    C2S15541   6.536   4.224   6.647  0.0225  0.1658 -0.0323
  142OSM    H2S15542   6.500   4.326   6.672 -0.4764 -0.0586  0.1837
  142OSM    C3S15543   6.411   4.133   6.636  0.1527  0.7416  0.2108
  142OSM    H3S15544   6.448   4.028   6.638 -1.9702 -0.0867 -0.5764
  142OSM     O315545   6.335   4.153   6.522  0.2419 -0.7944  0.4273
  142OSM    HO315546   6.389   4.224   6.485  0.2325  0.0239  1.8824
  142OSM    C4S15547   6.332   4.150   6.763  0.0511  0.6150  0.0203
  142OSM    H4S15548   6.297   4.253   6.783 -0.3017  0.3530  0.8017
  142OSM    C5S15549   6.312   4.048   6.857 -0.2457 -0.8745 -0.1557
  142OSM    H5S15550   6.363   3.952   6.839  0.7427 -0.3560 -0.2236
  142OSM    C6S15551   6.249   4.068   6.987 -0.0946  0.2666 -0.3984
  142OSM    H6S15552   6.168   3.992   6.986  0.6401 -0.5313 -1.0682
  142OSM    H6T15553   6.205   4.169   7.002  0.5695  0.4992  0.0487
  142OSM    C7S15554   6.346   4.029   7.107  0.2837 -0.6377 -0.4765
  142OSM    H7S15555   6.424   4.107   7.113  0.5328 -0.8067 -1.4512
  142OSM    H7T15556   6.383   3.925   7.095 -0.6049 -1.3297  2.1096
  142OSM    C8S15557   6.270   4.040   7.237 -0.0728  0.1290 -0.7418
  142OSM    H8S15558   6.170   3.992   7.228 -1.5341  3.0057 -0.7907
  142OSM    H8T15559   6.251   4.144   7.270  0.1319  0.3824 -1.4124
  142OSM    C9S15560   6.344   3.963   7.354 -0.2900  0.4613 -1.4583
  142OSM    H9S15561   6.446   4.007   7.365  0.5104 -1.0194 -2.5582
  142OSM    H9T15562   6.336   3.856   7.324 -0.3630 -0.1143  0.4650
  142OSM   C10S15563   6.294   3.983   7.495 -0.1876 -0.0079 -0.8795
  142OSM   H10S15564   6.193   3.937   7.494 -0.3151  0.2564 -0.5692
  142OSM   H10T15565   6.293   4.095   7.494  0.1422  0.0718  1.4508
  142OSM   C11S15566   6.375   3.908   7.596 -0.6821  0.0107  0.3982
  142OSM   H11S15567   6.484   3.904   7.574 -0.3220 -0.3843  2.1575
  142OSM   H11T15568   6.337   3.806   7.574 -0.1302  0.1459 -1.3985
  142OSM   C12S15569   6.356   3.951   7.741 -0.2659  0.0282 -0.7881
  142OSM   H12S15570   6.247   3.964   7.757  0.0936  1.2564  1.0239
  142OSM   H12T15571   6.405   4.049   7.764  0.9710 -1.2402  2.6082
  142OSM   C13S15572   6.401   3.845   7.834  0.2630 -0.0459  0.8481
  142OSM   H13S15573   6.510   3.826   7.831  0.5609  1.4880  0.8259
  142OSM   H13T15574   6.352   3.749   7.807  0.2532  0.4857 -1.1752
  142OSM   C14S15575   6.377   3.888   7.976 -0.2144  0.4180 -0.4877
  142OSM   H14S15576   6.269   3.906   7.990 -0.5390 -2.7640  2.4454
  142OSM   H14T15577   6.426   3.985   8.000  0.0890  0.9624 -3.1061
  142OSM   C15S15578   6.401   3.781   8.080 -1.0890 -0.8782 -0.0928
  142OSM   H15S15579   6.509   3.760   8.093 -0.8603  0.4539  0.3135
  142OSM   H15T15580   6.352   3.685   8.057 -2.3613  0.2270 -2.3245
  142OSM   C16S15581   6.359   3.836   8.217  0.0104 -0.4299  0.1948
  142OSM   H16S15582   6.251   3.860   8.211 -0.5193 -2.6041  0.3838
  142OSM   H16T15583   6.396   3.939   8.238  1.1496 -0.5308 -1.1785
  142OSM   C17S15584   6.396   3.733   8.323 -0.3363 -0.3724 -0.0810
  142OSM   H17S15585   6.501   3.698   8.310 -0.4019 -0.3428 -0.7151
  142OSM   H17T15586   6.331   3.644   8.317 -0.9739  0.0999 -0.2380
  142OSM   C18S15587   6.387   3.805   8.449 -0.3901 -0.1136  0.2976
  142OSM   H18S15588   6.445   3.758   8.532  0.7860 -0.3855 -0.6542
  142OSM   H18T15589   6.283   3.803   8.487 -0.2096 -0.0580  0.8186
  142OSM   H18U15590   6.431   3.906   8.436  1.1395 -0.9179 -1.1507
  142OSM    C1F15591   6.701   4.276   6.807 -0.1772  0.2239 -0.0731
  142OSM     OF15592   6.697   4.393   6.771  0.2876 -0.4871 -0.2061
  142OSM    C2F15593   6.782   4.226   6.927 -0.5034  0.0313 -0.0247
  142OSM    H2F15594   6.857   4.305   6.947 -0.3502 -0.5725  2.1084
  142OSM    H2G15595   6.839   4.140   6.887 -0.4435 -0.0013  0.1324
  142OSM    C3F15596   6.711   4.187   7.054 -0.3540  0.0305 -0.1953
  142OSM    H3F15597   6.658   4.090   7.048 -0.3196 -0.0256  0.3975
  142OSM    H3G15598   6.640   4.265   7.089  1.5079  0.2735  3.5167
  142OSM    C4F15599   6.811   4.160   7.173 -1.0496 -0.0651  0.0429
  142OSM    H4F15600   6.884   4.242   7.185  0.3455 -1.1080 -1.0290
  142OSM    H4G15601   6.870   4.070   7.146 -1.7788 -0.5911  0.1538
  142OSM    C5F15602   6.730   4.144   7.299 -0.2321  0.5794  0.2975
  142OSM    H5F15603   6.662   4.058   7.286 -1.6447  1.4193  1.7151
  142OSM    H5G15604   6.681   4.241   7.324  1.2037  1.3516  0.2304
  142OSM    C6F15605   6.820   4.110   7.421  0.3843 -1.2718  0.7810
  142OSM    H6F15606   6.900   4.187   7.425  0.8829 -1.5283 -2.0157
  142OSM    H6G15607   6.878   4.021   7.388 -1.9361 -1.7347 -2.4301
  142OSM    C7F15608   6.736   4.086   7.549 -0.0390 -0.3289 -0.1298
  142OSM    H7F15609   6.656   4.012   7.527  0.8045 -1.1148 -0.6247
  142OSM    H7G15610   6.687   4.175   7.594 -3.3813 -0.9484 -2.1010
  142OSM    C8F15611   6.822   4.012   7.655  0.1365  0.0230 -0.5919
  142OSM    H8F15612   6.909   4.073   7.686  0.1226  0.3401 -1.1518
  142OSM    H8G15613   6.862   3.922   7.603  2.2069 -0.2011  1.2522
  142OSM    C9F15614   6.734   3.988   7.776 -0.2841 -0.3171  0.3147
  142OSM    H9F15615   6.627   3.997   7.753 -0.4905 -0.8416  1.0156
  142OSM   C10F15616   6.760   3.987   7.908 -0.9638 -0.7189  0.1995
  142OSM   H10F15617   6.673   3.977   7.975 -0.6614 -1.2407  0.5166
  142OSM   C11F15618   6.898   4.026   7.964 -0.3365 -0.0591 -0.7123
  142OSM   H11F15619   6.918   4.129   7.998 -0.2067 -0.7481  1.4435
  142OSM   H11G15620   6.979   4.007   7.890 -0.8570 -0.3259 -1.2204
  142OSM   C12F15621   6.929   3.938   8.087 -0.6997 -0.2696 -0.8807
  142OSM   H12F15622   7.034   3.957   8.120 -1.5828  0.1314  1.9294
  142OSM   H12G15623   6.915   3.833   8.054  0.0371 -0.2786 -1.1946
  142OSM   C13F15624   6.835   3.966   8.210 -0.6224  0.9558  0.6648
  142OSM   H13F15625   6.736   3.920   8.190  1.1195 -2.9280  0.0523
  142OSM   H13G15626   6.832   4.077   8.220  0.2223  0.9761  0.8221
  142OSM   C14F15627   6.882   3.899   8.339  1.5981  0.1645 -0.6137
  142OSM   H14F15628   6.978   3.935   8.381  0.4386 -0.8381  3.2846
  142OSM   H14G15629   6.887   3.789   8.321  1.7132 -0.3816  2.2728
  142OSM   C15F15630   6.775   3.925   8.454  0.7464  0.1842  0.3712
  142OSM   H15F15631   6.677   3.885   8.420  1.5568 -0.4637 -1.2811
  142OSM   H15G15632   6.768   4.036   8.464  1.4115  0.2025  0.6454
  142OSM   C16F15633   6.823   3.851   8.579 -0.0678 -0.1652 -0.1520
  142OSM   H16F15634   6.904   3.903   8.635 -0.6748 -0.4944  1.0856
  142OSM   H16G15635   6.858   3.754   8.540 -0.2208  0.1758 -1.1533
  142OSM   C17F15636   6.711   3.842   8.689 -0.4267 -0.2208 -0.2633
  142OSM   H17F15637   6.618   3.821   8.631 -0.5166 -0.7739  0.0782
  142OSM   H17G15638   6.711   3.936   8.749  2.3910 -0.6598  0.5545
  142OSM   C18F15639   6.717   3.729   8.791 -0.2775  0.1578  0.2072
  142OSM   H18F15640   6.752   3.771   8.888  0.7494  1.9961 -0.8929
  142OSM   H18G15641   6.763   3.632   8.760 -1.4416 -0.5294  0.5785
  142OSM   H18H15642   6.614   3.697   8.816 -0.4556  0.0366 -0.6446
  143OSM      N15643   0.983   6.589   6.357 -0.4843  0.0561 -0.7315
  143OSM    C1515644   0.952   6.455   6.326  0.1722  0.4272  0.7332
  143OSM   H15A15645   1.015   6.386   6.380 -0.7266 -0.0198  1.2529
  143OSM   H15B15646   0.973   6.442   6.221 -0.3236  1.7560  0.4517
  143OSM   H15C15647   0.846   6.437   6.339 -0.3253  1.7840 -1.0625
  143OSM    C1415648   0.996   6.602   6.505  0.0402  0.2305  0.9700
  143OSM   H14A15649   1.076   6.538   6.539 -0.8966 -1.3649  0.2523
  143OSM   H14B15650   0.903   6.572   6.551 -1.0157  1.1008 -0.5176
  143OSM   H14C15651   1.020   6.705   6.527 -0.3903  0.9621 -1.6740
  143OSM    C1315652   1.119   6.630   6.298  0.1107 -0.6892 -0.7986
  143OSM   H13A15653   1.137   6.732   6.326 -3.6358  0.0406 -0.5012
  143OSM   H13B15654   1.123   6.609   6.192  1.4209 -1.5174 -0.6013
  143OSM   H13C15655   1.201   6.573   6.338  0.2894 -0.9560 -1.5250
  143OSM    C1215656   0.879   6.681   6.306 -0.0041 -0.4284 -0.3093
  143OSM   H12A15657   0.875   6.684   6.198 -2.5473  1.9130 -0.2709
  143OSM   H12B15658   0.901   6.779   6.344 -0.8843 -0.7017  0.9433
  143OSM    C1115659   0.733   6.658   6.360  0.6895  0.3504 -0.0369
  143OSM   H11A15660   0.678   6.742   6.311 -2.3872 -1.2224  0.4578
  143OSM   H11B15661   0.738   6.662   6.470  2.3845 -1.5678  0.0045
  143OSM      P15662   0.538   6.505   6.259  0.1965 -0.4022 -0.3444
  143OSM    O1315663   0.487   6.619   6.179  0.1021  0.2334 -0.9359
  143OSM    O1415664   0.528   6.368   6.204 -0.3348  0.9190 -0.3111
  143OSM    O1115665   0.447   6.492   6.384 -0.9815 -0.5654  0.1919
  143OSM    O1215666   0.687   6.530   6.317 -0.0637 -0.0812  0.5612
  143OSM    C1S15667   0.490   6.446   6.512 -1.3627  0.0893  0.3231
  143OSM    H1S15668   0.588   6.394   6.520 -1.4952 -0.1812  0.2183
  143OSM    H1T15669   0.412   6.375   6.546 -1.4119  0.4578  0.9816
  143OSM     NF15670   0.526   6.499   6.751  0.5125 -0.4556 -0.3215
  143OSM    HNF15671   0.468   6.470   6.826  1.1809  0.7277  0.6953
  143OSM    C2S15672   0.486   6.557   6.621 -0.1949 -0.2352  0.3717
  143OSM    H2S15673   0.551   6.639   6.585  1.1844 -1.1415  0.7237
  143OSM    C3S15674   0.341   6.615   6.628  0.0223  0.2897  0.7126
  143OSM    H3S15675   0.272   6.529   6.643  1.7755 -1.5461 -1.1554
  143OSM     O315676   0.302   6.686   6.507  0.0862  0.5608  0.7256
  143OSM    HO315677   0.367   6.647   6.448  1.2884  1.0410  1.6855
  143OSM    C4S15678   0.344   6.718   6.729 -0.0359  0.7403  0.1209
  143OSM    H4S15679   0.415   6.801   6.721 -1.8205  2.3904  0.7401
  143OSM    C5S15680   0.267   6.715   6.838 -0.3131 -0.8754 -0.0416
  143OSM    H5S15681   0.199   6.631   6.858 -1.0817 -0.3109 -0.2503
  143OSM    C6S15682   0.262   6.819   6.944  0.3409 -0.0240 -0.1991
  143OSM    H6S15683   0.153   6.823   6.968  0.0713  0.9454 -1.4660
  143OSM    H6T15684   0.295   6.915   6.898  2.3532 -0.7529 -0.3521
  143OSM    C7S15685   0.338   6.779   7.071 -0.0653  0.1476 -0.7153
  143OSM    H7S15686   0.344   6.864   7.142  1.8131 -1.8707  1.6989
  143OSM    H7T15687   0.444   6.756   7.048  1.0147  1.5777  2.3607
  143OSM    C8S15688   0.278   6.658   7.141  0.0112 -0.3265 -0.0826
  143OSM    H8S15689   0.363   6.616   7.198  0.8354  0.0392 -1.0168
  143OSM    H8T15690   0.247   6.580   7.068  1.6990 -0.7877 -0.3593
  143OSM    C9S15691   0.159   6.693   7.237 -0.0734  0.7281 -0.3882
  143OSM    H9S15692   0.138   6.596   7.288  2.3877  0.3339 -0.0057
  143OSM    H9T15693   0.073   6.733   7.178 -1.1181 -0.4501  0.2770
  143OSM   C10S15694   0.191   6.781   7.356  0.8917  0.3270  0.7445
  143OSM   H10S15695   0.185   6.886   7.322  2.5732  0.4614  0.7957
  143OSM   H10T15696   0.290   6.751   7.395  0.0585 -0.9917  1.9789
  143OSM   C11S15697   0.094   6.757   7.475  0.2673  0.1239  0.3476
  143OSM   H11S15698   0.076   6.647   7.480 -0.4905  0.1613 -1.1024
  143OSM   H11T15699   0.002   6.818   7.461  0.1262 -0.3954 -1.2439
  143OSM   C12S15700   0.153   6.808   7.604  0.2135 -0.0729  0.1698
  143OSM   H12S15701   0.171   6.914   7.578 -1.1090 -0.0334 -0.7062
  143OSM   H12T15702   0.255   6.766   7.616  0.1920 -1.0822 -2.3715
  143OSM   C13S15703   0.052   6.820   7.718  0.3052  0.2237 -0.2962
  143OSM   H13S15704   0.028   6.715   7.745 -0.0856  1.1349  3.4463
  143OSM   H13T15705  -0.045   6.869   7.700 -0.7924 -1.5321  0.5739
  143OSM   C14S15706   0.107   6.882   7.856  0.3308 -0.1901 -0.4412
  143OSM   H14S15707   0.123   6.988   7.827 -1.4278  0.1801 -0.1331
  143OSM   H14T15708   0.203   6.827   7.871 -0.0712 -0.4611  1.3671
  143OSM   C15S15709   0.012   6.881   7.973  0.2731  0.0681  0.3590
  143OSM   H15S15710  -0.054   6.793   7.968  1.0157 -0.4491 -0.5770
  143OSM   H15T15711  -0.051   6.972   7.986  0.5248  0.3087 -0.0985
  143OSM   C16S15712   0.104   6.869   8.098 -0.0188 -0.1538 -0.0475
  143OSM   H16S15713   0.179   6.950   8.103 -0.0352 -0.1720  0.6076
  143OSM   H16T15714   0.167   6.780   8.079 -0.0867  0.1698 -2.0040
  143OSM   C17S15715   0.025   6.857   8.221  0.6661  0.4665 -0.4629
  143OSM   H17S15716   0.106   6.828   8.290  1.4356  1.2138 -1.0385
  143OSM   H17T15717  -0.051   6.776   8.218  0.9206  0.2494 -1.2105
  143OSM   C18S15718  -0.052   6.988   8.256 -0.1578  0.1484  0.2951
  143OSM   H18S15719  -0.125   7.008   8.175 -1.3997 -0.9299  1.0993
  143OSM   H18T15720   0.020   7.072   8.268 -1.4335  1.6130 -1.6490
  143OSM   H18U15721  -0.114   6.981   8.348 -2.6482  1.2479 -1.1831
  143OSM    C1F15722   0.647   6.456   6.779 -0.2509 -0.4520  0.3051
  143OSM     OF15723   0.743   6.465   6.704  0.7971  0.0458 -0.1300
  143OSM    C2F15724   0.672   6.418   6.917  0.1132  0.4466 -0.0566
  143OSM    H2F15725   0.708   6.502   6.980  0.3042  0.2115  0.1527
  143OSM    H2G15726   0.762   6.354   6.932 -0.3168  0.0793  1.0192
  143OSM    C3F15727   0.554   6.355   6.987  0.2986  0.3338 -0.1833
  143OSM    H3F15728   0.540   6.256   6.939  0.7769 -0.8062  1.8777
  143OSM    H3G15729   0.473   6.430   6.997  1.9926  2.0404  2.2467
  143OSM    C4F15730   0.589   6.309   7.128  0.3805 -0.3018  0.2454
  143OSM    H4F15731   0.682   6.248   7.129 -0.9243 -2.3743  0.7084
  143OSM    H4G15732   0.514   6.232   7.153 -1.1700  1.5881  1.7404
  143OSM    C5F15733   0.590   6.424   7.238 -0.3831  0.6549 -0.2603
  143OSM    H5F15734   0.486   6.454   7.264 -1.4982 -2.8790 -0.0660
  143OSM    H5G15735   0.638   6.516   7.196 -3.1659  1.1849 -2.6424
  143OSM    C6F15736   0.669   6.393   7.365 -0.4435  0.8751  0.0153
  143OSM    H6F15737   0.769   6.366   7.325  0.0312  2.4931  0.0568
  143OSM    H6G15738   0.618   6.306   7.411  0.6682  0.0307 -0.2979
  143OSM    C7F15739   0.675   6.517   7.456  0.1826 -0.1487  0.0832
  143OSM    H7F15740   0.679   6.617   7.407 -0.2084  0.4272  1.1723
  143OSM    H7G15741   0.772   6.509   7.510 -0.2505  1.3338  1.1676
  143OSM    C8F15742   0.569   6.519   7.563  0.0628 -0.6935  0.0930
  143OSM    H8F15743   0.554   6.428   7.626 -0.4695  0.7084  2.0919
  143OSM    H8G15744   0.473   6.519   7.508 -1.2980  0.3111  2.2913
  143OSM    C9F15745   0.563   6.626   7.664 -0.2598 -0.7439  0.1368
  143OSM    H9F15746   0.569   6.725   7.614  1.3341 -0.8969 -0.0451
  143OSM   C10F15747   0.569   6.612   7.798 -0.0899  0.3464  0.9937
  143OSM   H10F15748   0.575   6.703   7.860 -1.8798 -0.6897  2.8166
  143OSM   C11F15749   0.580   6.480   7.874 -0.2971  0.2019 -0.3208
  143OSM   H11F15750   0.639   6.402   7.822  1.5776  0.8971  0.6783
  143OSM   H11G15751   0.475   6.445   7.878 -0.5914  1.0658 -0.1518
  143OSM   C12F15752   0.633   6.483   8.022 -0.7302  0.8156 -0.3942
  143OSM   H12F15753   0.645   6.376   8.048 -0.5097  1.4991  2.6498
  143OSM   H12G15754   0.553   6.522   8.088 -0.5365  1.8458 -0.7471
  143OSM   C13F15755   0.772   6.547   8.045  0.1047  0.4216 -0.3255
  143OSM   H13F15756   0.761   6.652   8.012 -1.1699  0.2168 -0.5712
  143OSM   H13G15757   0.836   6.493   7.972 -1.2973  1.0366 -2.0671
  143OSM   C14F15758   0.816   6.540   8.185  0.3881 -0.1763 -0.5868
  143OSM   H14F15759   0.726   6.571   8.243  0.5752  1.3540 -1.0562
  143OSM   H14G15760   0.889   6.621   8.208 -3.4772  3.1963  1.0918
  143OSM   C15F15761   0.872   6.411   8.242  0.0906 -0.2354  0.4127
  143OSM   H15F15762   0.802   6.327   8.224  1.8314 -1.6700  0.0655
  143OSM   H15G15763   0.871   6.429   8.352 -3.1163  3.6087  0.0066
  143OSM   C16F15764   1.014   6.367   8.195  0.9178 -0.6271  0.8448
  143OSM   H16F15765   1.092   6.428   8.246  0.1243  2.1950 -1.0533
  143OSM   H16G15766   1.021   6.385   8.085 -1.9853  1.1750  0.8353
  143OSM   C17F15767   1.053   6.224   8.204 -0.2790 -0.8996  0.4740
  143OSM   H17F15768   1.159   6.217   8.173 -0.5907  0.6884 -1.0653
  143OSM   H17G15769   0.989   6.153   8.146  0.2454 -2.3340  1.5799
  143OSM   C18F15770   1.047   6.177   8.352 -0.9655 -0.0595 -0.1065
  143OSM   H18F15771   1.072   6.071   8.369 -1.9622 -0.2143  0.4991
  143OSM   H18G15772   0.941   6.176   8.384 -1.0066  1.1644 -0.1457
  143OSM   H18H15773   1.118   6.234   8.415  1.7602 -4.6098  1.3842
  144OSM      N15774   5.775   5.797   6.359  0.3753  0.2180  0.1814
  144OSM    C1515775   5.729   5.933   6.326  0.5772 -0.3650  0.3353
  144OSM   H15A15776   5.647   5.932   6.256 -1.1384  0.2596  2.2301
  144OSM   H15B15777   5.805   5.990   6.274  0.5302 -2.5795 -2.3631
  144OSM   H15C15778   5.684   5.981   6.412  1.0881 -0.4938  0.6808
  144OSM    C1415779   5.663   5.704   6.405  0.7154 -0.2120  0.0862
  144OSM   H14A15780   5.600   5.742   6.485 -1.0353 -0.4238 -1.1239
  144OSM   H14B15781   5.700   5.607   6.435 -0.0432 -0.7253 -0.5943
  144OSM   H14C15782   5.596   5.691   6.321  1.1835 -0.0013 -0.3241
  144OSM    C1315783   5.830   5.741   6.230 -0.3672 -0.2464  0.2552
  144OSM   H13A15784   5.904   5.800   6.178  0.0460 -0.9146  0.0788
  144OSM   H13B15785   5.753   5.709   6.161 -2.9002  0.9257  2.3687
  144OSM   H13C15786   5.892   5.657   6.258  0.5251  0.2895 -0.0820
  144OSM    C1215787   5.895   5.813   6.456 -0.4556  0.3904  0.0606
  144OSM   H12A15788   5.869   5.883   6.534  3.1693  0.9201  0.9930
  144OSM   H12B15789   5.980   5.862   6.411 -1.2679  1.2729 -0.5670
  144OSM    C1115790   5.946   5.679   6.535  1.0038  0.3755  0.3485
  144OSM   H11A15791   5.860   5.651   6.599  2.3272 -0.1105  2.0100
  144OSM   H11B15792   6.026   5.718   6.603 -0.2717  0.0621  2.1090
  144OSM      P15793   6.133   5.558   6.390  0.0596  0.1352 -0.0739
  144OSM    O1315794   6.161   5.418   6.358  0.9292  0.2406  0.2891
  144OSM    O1415795   6.147   5.657   6.281  1.0566 -0.1413 -0.1685
  144OSM    O1115796   6.227   5.600   6.515  0.5408  0.1264  0.8091
  144OSM    O1215797   5.986   5.568   6.450  0.1739 -0.6867 -0.2189
  144OSM    C1S15798   6.230   5.529   6.633  0.5499  0.6876 -0.6344
  144OSM    H1S15799   6.252   5.422   6.618 -0.5376  0.1408  1.3534
  144OSM    H1T15800   6.131   5.534   6.684  0.9715  0.3872  0.2239
  144OSM     NF15801   6.347   5.496   6.850 -0.0622 -0.5428  0.0548
  144OSM    HNF15802   6.276   5.508   6.919 -2.7116 -1.5593 -2.2830
  144OSM    C2S15803   6.330   5.585   6.735  0.3276 -0.9487  0.0100
  144OSM    H2S15804   6.427   5.591   6.682 -0.3578 -0.9650 -1.2836
  144OSM    C3S15805   6.288   5.733   6.774 -0.0234 -0.1572  0.5862
  144OSM    H3S15806   6.186   5.738   6.818 -1.3797 -4.5066 -1.4692
  144OSM     O315807   6.270   5.815   6.652  0.4063 -0.2928 -0.4589
  144OSM    HO315808   6.240   5.745   6.594 -0.9359 -0.7294  0.6941
  144OSM    C4S15809   6.394   5.789   6.863  0.0498 -0.9332 -0.2012
  144OSM    H4S15810   6.369   5.776   6.970  3.2555 -1.3568  0.6070
  144OSM    C5S15811   6.507   5.856   6.845 -0.2151  0.5267 -0.2859
  144OSM    H5S15812   6.534   5.870   6.739  0.5904  2.4214  0.1323
  144OSM    C6S15813   6.602   5.910   6.942  0.2643 -0.0761 -0.8540
  144OSM    H6S15814   6.610   6.018   6.920 -2.0240  0.0984 -1.0189
  144OSM    H6T15815   6.699   5.864   6.912 -0.2464 -1.9205  0.1514
  144OSM    C7S15816   6.584   5.875   7.101 -0.2378  0.0852  0.7526
  144OSM    H7S15817   6.587   5.764   7.097  1.3633  0.0165  2.3913
  144OSM    H7T15818   6.485   5.916   7.130 -0.4080 -0.1611  0.5192
  144OSM    C8S15819   6.690   5.934   7.199  0.3640  0.6631 -0.5439
  144OSM    H8S15820   6.703   6.044   7.204  2.2587  0.8207 -4.7887
  144OSM    H8T15821   6.783   5.893   7.155 -0.3266 -2.5216  0.6634
  144OSM    C9S15822   6.665   5.886   7.346 -0.6557 -0.5183 -0.3550
  144OSM    H9S15823   6.762   5.871   7.399 -2.0158 -1.9071  1.9207
  144OSM    H9T15824   6.636   5.780   7.361  3.3507 -1.5456  1.7803
  144OSM   C10S15825   6.580   5.987   7.422 -0.2750  0.3337 -0.9920
  144OSM   H10S15826   6.481   5.992   7.372 -1.9394 -2.3526  1.7100
  144OSM   H10T15827   6.627   6.086   7.405  2.7285 -0.5173  1.5012
  144OSM   C11S15828   6.557   5.980   7.571  0.4365  0.0449  0.0423
  144OSM   H11S15829   6.480   5.901   7.584  0.4950 -0.1091 -0.5170
  144OSM   H11T15830   6.503   6.068   7.610  0.9411  0.3012  0.1700
  144OSM   C12S15831   6.687   5.957   7.645 -0.1506 -0.0982 -0.5077
  144OSM   H12S15832   6.750   6.045   7.619  0.2246  0.4236  1.9663
  144OSM   H12T15833   6.757   5.882   7.603  1.1531  0.8458 -0.0583
  144OSM   C13S15834   6.668   5.952   7.795 -0.3323 -0.6744  0.0696
  144OSM   H13S15835   6.602   5.864   7.814 -0.3827 -0.5400  0.5278
  144OSM   H13T15836   6.611   6.042   7.826 -0.6428 -0.8235 -0.0564
  144OSM   C14S15837   6.806   5.955   7.867  0.2710  0.7390  0.1968
  144OSM   H14S15838   6.867   6.040   7.831  2.5520 -0.6937  0.4671
  144OSM   H14T15839   6.860   5.864   7.833  0.1835  0.5152  0.6399
  144OSM   C15S15840   6.776   5.955   8.015  0.6125 -0.6264  0.0951
  144OSM   H15S15841   6.744   5.853   8.046  0.2700 -0.1853  1.2139
  144OSM   H15T15842   6.687   6.019   8.028  0.8436 -0.7700  3.0883
  144OSM   C16S15843   6.893   5.997   8.109 -0.1110 -1.3465  0.0862
  144OSM   H16S15844   6.906   6.103   8.078 -1.4009 -0.5852  1.9654
  144OSM   H16T15845   6.984   5.936   8.092  0.8569  0.0643  0.0616
  144OSM   C17S15846   6.869   6.005   8.261  0.3124 -0.1635 -0.1044
  144OSM   H17S15847   6.774   6.054   8.292  0.8260 -0.9618  3.0759
  144OSM   H17T15848   6.939   6.083   8.297 -2.0922  1.7208  0.7337
  144OSM   C18S15849   6.871   5.871   8.333  0.8792  0.3673  0.4565
  144OSM   H18S15850   6.825   5.868   8.434  0.6980 -0.2295  0.3628
  144OSM   H18T15851   6.977   5.841   8.344  0.8517 -1.5713 -3.0227
  144OSM   H18U15852   6.819   5.798   8.267  2.3353 -0.4205  0.1430
  144OSM    C1F15853   6.418   5.386   6.841  0.4222 -0.4146  0.0031
  144OSM     OF15854   6.473   5.352   6.742 -0.4153 -0.7697  0.5449
  144OSM    C2F15855   6.439   5.308   6.973 -0.9889 -0.0243 -0.9717
  144OSM    H2F15856   6.496   5.215   6.949 -1.0119  0.2396 -2.1046
  144OSM    H2G15857   6.342   5.288   7.023  1.1336  2.3999  5.1191
  144OSM    C3F15858   6.523   5.391   7.082  0.1166 -0.1255  0.0245
  144OSM    H3F15859   6.458   5.481   7.092 -1.5420 -1.1606 -1.0627
  144OSM    H3G15860   6.621   5.414   7.033 -0.0641 -0.9820 -0.7713
  144OSM    C4F15861   6.550   5.315   7.210 -0.0188 -0.1428 -0.4839
  144OSM    H4F15862   6.600   5.217   7.193  2.1150  0.7362  0.4151
  144OSM    H4G15863   6.464   5.279   7.271  2.0662 -1.5986  1.7467
  144OSM    C5F15864   6.637   5.392   7.314  0.0879 -0.4241  1.2951
  144OSM    H5F15865   6.602   5.497   7.303 -1.8244 -1.2198 -0.7855
  144OSM    H5G15866   6.744   5.367   7.294 -0.4641 -0.9105 -1.3726
  144OSM    C6F15867   6.612   5.360   7.460  0.1550 -0.2120 -0.1072
  144OSM    H6F15868   6.636   5.252   7.470 -0.7265 -0.3050  1.1409
  144OSM    H6G15869   6.502   5.370   7.471 -0.5974 -0.8725 -4.7866
  144OSM    C7F15870   6.683   5.451   7.561 -0.4173 -0.3938  0.1616
  144OSM    H7F15871   6.645   5.555   7.558  1.3745  0.2917  0.1113
  144OSM    H7G15872   6.794   5.457   7.551 -0.4836 -1.8699 -2.4665
  144OSM    C8F15873   6.646   5.393   7.702  0.3617 -0.7989 -0.0655
  144OSM    H8F15874   6.676   5.287   7.716  0.4200 -0.6258  1.2026
  144OSM    H8G15875   6.536   5.405   7.711  0.3592  0.4270 -1.2890
  144OSM    C9F15876   6.705   5.474   7.817 -1.3338  0.4522 -0.1866
  144OSM    H9F15877   6.750   5.573   7.798 -1.0568  0.4052  0.2113
  144OSM   C10F15878   6.715   5.434   7.945 -0.1397 -0.6022  0.2728
  144OSM   H10F15879   6.765   5.497   8.021 -3.0695 -1.0388  2.7504
  144OSM   C11F15880   6.670   5.307   8.008  0.5628  0.4831 -0.0331
  144OSM   H11F15881   6.659   5.238   7.922 -1.3203  2.0303 -1.0832
  144OSM   H11G15882   6.566   5.319   8.043  0.9052 -0.5257  1.4469
  144OSM   C12F15883   6.768   5.249   8.113 -0.3382 -0.0334  0.0241
  144OSM   H12F15884   6.874   5.254   8.080 -0.1878 -2.9025 -0.1758
  144OSM   H12G15885   6.734   5.144   8.131 -0.3662 -0.2304 -1.1444
  144OSM   C13F15886   6.769   5.318   8.250  0.3195  0.0969 -0.0146
  144OSM   H13F15887   6.819   5.415   8.231  0.8595 -0.3147 -0.7796
  144OSM   H13G15888   6.821   5.252   8.322 -2.3431 -3.2734 -0.8788
  144OSM   C14F15889   6.628   5.336   8.299 -0.1159  0.6860 -0.4410
  144OSM   H14F15890   6.567   5.247   8.275 -1.4255  1.0350  1.3980
  144OSM   H14G15891   6.581   5.432   8.268 -0.4503  1.0640  1.1618
  144OSM   C15F15892   6.614   5.334   8.459 -0.2104  0.8380  0.7794
  144OSM   H15F15893   6.685   5.410   8.496  1.0329 -0.7635  1.7961
  144OSM   H15G15894   6.657   5.239   8.496  0.8545  0.1314 -1.9783
  144OSM   C16F15895   6.480   5.364   8.508  0.4305 -0.5525 -1.1854
  144OSM   H16F15896   6.421   5.279   8.468  2.3064 -1.2196 -2.6815
  144OSM   H16G15897   6.449   5.456   8.454 -1.7406 -0.2910  0.3484
  144OSM   C17F15898   6.466   5.399   8.660 -0.5092 -0.6583 -0.1975
  144OSM   H17F15899   6.546   5.464   8.701  1.4267 -1.8399 -1.8718
  144OSM   H17G15900   6.473   5.302   8.715  0.8041 -0.1586  0.5757
  144OSM   C18F15901   6.337   5.468   8.698 -0.0316  0.5712 -0.0752
  144OSM   H18F15902   6.250   5.399   8.693 -0.4541  0.9273  1.6471
  144OSM   H18G15903   6.315   5.562   8.641  0.7650  1.9348  1.7552
  144OSM   H18H15904   6.334   5.497   8.805 -1.9488  0.0208  0.0651
  145SAPE     N15905   5.904   1.095  10.859 -0.6091 -0.6904  1.1904
  145SAPE   HN115906   6.003   1.105  10.891 -0.6222 -1.5845  1.5364
  145SAPE   HN215907   5.856   1.170  10.913  1.7109  1.1258  0.9087
  145SAPE   HN315908   5.871   0.999  10.882 -2.0230 -0.7591 -0.8544
  145SAPE   C1215909   5.887   1.124  10.709 -0.1198 -0.8034 -0.3548
  145SAPE  H12A15910   5.935   1.221  10.683  0.2229 -1.6867 -3.4368
  145SAPE  H12B15911   5.779   1.124  10.683 -0.0433 -3.9994 -1.1110
  145SAPE   C1115912   5.949   1.006  10.629  0.1030 -1.2267 -0.1955
  145SAPE  H11A15913   5.926   1.028  10.522 -2.1726  0.0324  0.4806
  145SAPE  H11B15914   5.904   0.905  10.647  0.3791 -1.5905 -1.4239
  145SAPE     P15915   6.195   1.063  10.561  0.4018  0.4180 -0.4647
  145SAPE   O1315916   6.156   1.202  10.526 -0.1411 -0.1573  0.2960
  145SAPE   O1415917   6.328   1.044  10.620 -0.2367 -0.5920  0.5054
  145SAPE   O1215918   6.089   1.003  10.661 -0.6328  0.3304  0.2186
  145SAPE   O1115919   6.195   0.975  10.437 -0.2778 -0.2005 -0.0181
  145SAPE    C115920   6.183   0.835  10.430 -0.1234  0.1662 -0.5924
  145SAPE    HA15921   6.278   0.791  10.468 -1.7465 -2.7349  0.3624
  145SAPE    HB15922   6.106   0.794  10.498 -1.4109  0.0874 -2.0530
  145SAPE    C215923   6.150   0.786  10.281 -0.0128 -0.1839 -1.0728
  145SAPE    HS15924   6.152   0.675  10.277 -1.0191 -0.2222 -0.9338
  145SAPE   O2115925   6.243   0.840  10.184 -0.0732  0.1166  0.1334
  145SAPE   C2115926   6.366   0.799  10.209 -0.2510 -0.4417  0.7228
  145SAPE   O2215927   6.391   0.698  10.272 -0.0490  0.3138  0.2093
  145SAPE   C2215928   6.469   0.889  10.134 -0.4122  0.3780  0.6007
  145SAPE   H2R15929   6.473   0.986  10.188 -0.0473 -0.1822  1.6062
  145SAPE   H2S15930   6.567   0.836  10.137 -0.8875 -0.7305 -1.7176
  145SAPE    C315931   6.009   0.831  10.243  0.2113 -0.2247 -0.0893
  145SAPE    HX15932   6.007   0.942  10.247  0.9521 -0.2114  0.0107
  145SAPE    HY15933   5.936   0.798  10.320 -0.9195  0.4958 -0.8251
  145SAPE   O3115934   5.961   0.770  10.115  0.4182  0.3956  0.2236
  145SAPE   C3115935   5.985   0.839  10.002 -0.7667  0.4607 -0.1795
  145SAPE   O3215936   6.047   0.943   9.995  0.2187  0.0572 -0.0943
  145SAPE   C3215937   5.924   0.770   9.887 -0.4402  0.3553  0.0928
  145SAPE   H2X15938   5.813   0.776   9.897 -0.3173  2.4385  0.7539
  145SAPE   H2Y15939   5.958   0.665   9.883 -1.6663 -0.0293 -0.7911
  145SAPE   C2315940   6.433   0.916   9.985  0.2451 -0.7630  0.0750
  145SAPE   H3R15941   6.332   0.959   9.964  0.4683 -0.9607 -1.5391
  145SAPE   H3S15942   6.426   0.812   9.945 -2.1467 -0.3235 -0.8261
  145SAPE   C2415943   6.539   0.986   9.893  0.8737 -0.8974  0.9852
  145SAPE   H4R15944   6.556   1.093   9.919  1.4600 -0.5224 -0.7667
  145SAPE   H4S15945   6.498   0.990   9.789 -0.7798  3.1819  1.5889
  145SAPE   C2515946   6.674   0.931   9.907 -0.0112  0.8103  0.2379
  145SAPE   H5R15947   6.729   0.940  10.003  2.1831  1.8867 -1.0368
  145SAPE   C2615948   6.734   0.861   9.810  0.2181  0.0836  0.5827
  145SAPE   H6R15949   6.840   0.844   9.833  0.4898  2.6718  1.5775
  145SAPE   C2715950   6.697   0.815   9.670 -1.1045  0.3336 -0.0084
  145SAPE   H7R15951   6.587   0.830   9.668 -1.3649 -1.4209 -2.0209
  145SAPE   H7S15952   6.711   0.705   9.670 -0.1647  0.4119  1.4424
  145SAPE   C2815953   6.779   0.872   9.547  0.0731  0.5892 -0.2165
  145SAPE   H8R15954   6.888   0.876   9.555  0.1943 -1.2066 -0.6052
  145SAPE   C2915955   6.721   0.910   9.431  0.3969  0.2550 -0.3439
  145SAPE   H9R15956   6.782   0.967   9.360 -0.1368 -1.3323 -2.1477
  145SAPE  C21015957   6.572   0.893   9.403 -0.3763 -0.7206 -0.8490
  145SAPE  H10R15958   6.511   0.974   9.450  0.6796 -0.9472  0.9923
  145SAPE  H10S15959   6.535   0.803   9.457 -2.2491  0.7451  0.4833
  145SAPE  C21115960   6.528   0.887   9.257 -0.6622 -0.5795 -0.3711
  145SAPE  H11R15961   6.503   0.983   9.210 -0.0492  0.2606  0.9597
  145SAPE  C21215962   6.520   0.771   9.193  0.4854  0.5838  0.4790
  145SAPE  H12R15963   6.471   0.772   9.094  0.4396 -1.0299  0.4660
  145SAPE  C21315964   6.548   0.632   9.246 -0.8965 -0.7634  0.5561
  145SAPE  H13R15965   6.592   0.632   9.348  0.4422 -0.4060 -0.0034
  145SAPE  H13S15966   6.625   0.592   9.177 -0.0118  0.0144  1.0651
  145SAPE  C21415967   6.418   0.561   9.224  0.3798  0.2033 -0.0858
  145SAPE  H14R15968   6.400   0.539   9.118  1.1520  1.0591 -0.4058
  145SAPE  C21515969   6.340   0.510   9.326  0.0517 -0.0534 -0.0163
  145SAPE  H15R15970   6.251   0.457   9.291  0.0769  0.6383 -1.1963
  145SAPE  C21615971   6.365   0.519   9.475  0.1581  0.5179  0.4970
  145SAPE  H16R15972   6.466   0.563   9.488 -0.4253  1.3477  2.5638
  145SAPE  H16S15973   6.360   0.415   9.516 -0.3246  0.9297  1.5151
  145SAPE  C21715974   6.263   0.609   9.548  0.2942  0.1404 -0.6090
  145SAPE  H17R15975   6.168   0.551   9.550  0.1862  0.2909 -1.1225
  145SAPE  H17S15976   6.244   0.698   9.484  0.4853  1.2054  0.7681
  145SAPE  C21815977   6.304   0.650   9.690 -0.4644  0.1237 -0.5120
  145SAPE  H18R15978   6.247   0.740   9.720  0.7881  1.6639 -2.5513
  145SAPE  H18S15979   6.412   0.677   9.687 -0.4944  0.2770 -0.1676
  145SAPE  C21915980   6.285   0.534   9.794 -0.1820 -0.3224  0.6735
  145SAPE  H19R15981   6.370   0.463   9.787  3.0176  2.7392  4.0793
  145SAPE  H19S15982   6.196   0.474   9.765  2.0385 -3.0191 -1.0878
  145SAPE  C22015983   6.275   0.589   9.939 -0.1056  0.9708  0.2082
  145SAPE  H20R15984   6.372   0.613   9.988 -0.4173  0.4037  1.1280
  145SAPE  H20S15985   6.227   0.510  10.000  0.5780  0.0103 -0.4644
  145SAPE  H20T15986   6.208   0.677   9.950  0.6250  1.6301 -0.4830
  145SAPE   C3315987   5.973   0.835   9.754  0.7099 -0.5451  0.0673
  145SAPE   H3X15988   6.082   0.858   9.750  0.3183  2.4757  2.7488
  145SAPE   H3Y15989   5.917   0.931   9.745  1.1972 -0.2401  0.2058
  145SAPE   C3415990   5.937   0.739   9.641 -0.2700 -0.6282  0.6891
  145SAPE   H4X15991   5.831   0.708   9.653 -0.7727  1.1396  1.1823
  145SAPE   H4Y15992   5.995   0.646   9.652 -2.5233 -1.9534  2.3542
  145SAPE   C3515993   5.958   0.802   9.503 -0.2820 -0.0218  0.1162
  145SAPE   H5X15994   6.066   0.827   9.501 -0.3212  0.0986 -1.0895
  145SAPE   H5Y15995   5.911   0.902   9.499 -3.6983 -1.5385 -1.6142
  145SAPE   C3615996   5.937   0.711   9.382 -0.3168  0.8391  0.2049
  145SAPE   H6X15997   5.846   0.651   9.402  0.2728  0.2631  1.3013
  145SAPE   H6Y15998   6.018   0.634   9.379 -0.6954  0.3547  1.5429
  145SAPE   C3715999   5.921   0.799   9.251 -1.0558  0.1516  0.0565
  145SAPE   H7X16000   5.909   0.723   9.171 -0.8402 -0.5192  0.6418
  145SAPE   H7Y16001   6.018   0.839   9.215 -1.8872 -0.4742 -3.1429
  145SAPE   C3816002   5.818   0.906   9.257  0.2475  0.4677  0.6536
  145SAPE   H8X16003   5.852   1.004   9.298 -0.0772  0.6469  0.4970
  145SAPE   H8Y16004   5.737   0.866   9.322 -0.0160  1.8842  1.2429
  145SAPE   C3916005   5.770   0.946   9.111  0.1010  0.7090 -0.2197
  145SAPE   H9X16006   5.679   1.010   9.119 -0.9237 -0.5080 -1.4093
  145SAPE   H9Y16007   5.742   0.848   9.066  0.9144  0.5549 -0.3987
  145SAPE  C31016008   5.872   1.020   9.025  0.1242  1.2616  0.1789
  145SAPE  H10X16009   5.967   0.963   9.020 -0.2678  0.3994  1.9850
  145SAPE  H10Y16010   5.887   1.122   9.068 -0.5425  1.6942 -0.5717
  145SAPE  C31116011   5.815   1.038   8.881  0.5506 -0.1565 -0.7956
  145SAPE  H11X16012   5.737   1.117   8.882 -0.7908 -1.4498 -0.5060
  145SAPE  H11Y16013   5.760   0.948   8.844  1.0262 -0.7620 -0.0561
  145SAPE  C31216014   5.930   1.076   8.783  0.3689  0.0342  0.2472
  145SAPE  H12X16015   6.017   1.113   8.841  0.1526  1.7621 -0.4494
  145SAPE  H12Y16016   5.898   1.165   8.725  0.1498 -0.9847 -1.2509
  145SAPE  C31316017   5.990   0.973   8.694  0.3672  0.6841  0.8735
  145SAPE  H13X16018   6.070   1.026   8.637  2.1304  0.8443  3.3028
  145SAPE  H13Y16019   5.904   0.939   8.632  0.8833  0.0509  0.4956
  145SAPE  C31416020   6.047   0.848   8.746 -0.1222  0.1401 -0.7956
  145SAPE  H14X16021   6.048   0.767   8.670  1.9092 -0.3161 -0.3414
  145SAPE  H14Y16022   5.978   0.809   8.824  0.3082 -0.6530 -0.7926
  145SAPE  C31516023   6.179   0.862   8.824  0.0761  0.7458 -0.2387
  145SAPE  H15X16024   6.203   0.757   8.850 -0.3209 -0.5559 -4.3939
  145SAPE  H15Y16025   6.158   0.926   8.913 -0.1952  0.7004 -0.2701
  145SAPE  C31616026   6.302   0.911   8.743 -0.0545  0.1986 -0.1399
  145SAPE  H16X16027   6.302   1.014   8.702  2.9618 -0.0326 -0.9881
  145SAPE  H16Y16028   6.307   0.840   8.658 -0.2309 -0.7060  0.5835
  145SAPE  C31716029   6.431   0.902   8.825 -0.7192  0.0276 -0.4265
  145SAPE  H17X16030   6.421   0.946   8.927 -3.7602  1.1389 -1.0775
  145SAPE  H17Y16031   6.509   0.958   8.770  0.6430 -2.4752 -1.1666
  145SAPE  C31816032   6.494   0.760   8.830 -0.0309 -0.0727 -0.5934
  145SAPE  H18X16033   6.424   0.682   8.867 -0.4317  0.3176 -0.5204
  145SAPE  H18Y16034   6.582   0.771   8.898  1.2266  1.4224 -2.3811
  145SAPE  H18Z16035   6.532   0.731   8.730  0.3009  0.2034 -0.5493
  146SAPE     N16036   4.977   1.704  10.677 -0.0316 -0.2345 -0.2576
  146SAPE   HN116037   4.925   1.618  10.651  0.4003 -0.2719 -1.0297
  146SAPE   HN216038   5.061   1.704  10.616  0.1342 -2.0762 -0.0735
  146SAPE   HN316039   5.003   1.705  10.778  1.0116  1.1441 -0.5075
  146SAPE   C1216040   4.896   1.824  10.648  0.6613 -0.5191  0.4562
  146SAPE  H12A16041   4.834   1.820  10.556  2.6080 -0.6159 -0.9193
  146SAPE  H12B16042   4.963   1.911  10.630 -1.9976  1.9522  1.7298
  146SAPE   C1116043   4.804   1.844  10.773  0.1199  0.1433 -0.1161
  146SAPE  H11A16044   4.740   1.935  10.766  0.8537  0.8113  1.4878
  146SAPE  H11B16045   4.868   1.857  10.863 -2.0623 -0.0858  1.5759
  146SAPE     P16046   4.580   1.755  10.872 -0.5434  0.2399  0.8584
  146SAPE   O1316047   4.525   1.620  10.908  0.0113 -0.1192  0.4346
  146SAPE   O1416048   4.603   1.845  10.983 -0.1630 -0.5664 -0.0581
  146SAPE   O1216049   4.717   1.734  10.786  0.2369 -0.3861 -0.5650
  146SAPE   O1116050   4.487   1.825  10.768 -0.3160 -0.0388  0.2259
  146SAPE    C116051   4.484   1.795  10.627  0.5795  0.5877 -0.4544
  146SAPE    HA16052   4.501   1.884  10.563 -0.2175  1.6140  0.7106
  146SAPE    HB16053   4.571   1.729  10.605  0.5725  0.0707  0.9304
  146SAPE    C216054   4.353   1.723  10.592 -0.4553 -0.1964 -0.0658
  146SAPE    HS16055   4.271   1.773  10.648 -0.5853  1.3954 -1.5767
  146SAPE   O2116056   4.364   1.584  10.628 -0.0342  0.5722 -1.4274
  146SAPE   C2116057   4.264   1.509  10.625  0.0223 -0.0971 -0.2339
  146SAPE   O2216058   4.154   1.549  10.593 -0.0168 -0.8303  0.8030
  146SAPE   C2216059   4.318   1.365  10.648  0.2824 -0.1535  0.2338
  146SAPE   H2R16060   4.416   1.354  10.595  0.8943  1.2998  1.0093
  146SAPE   H2S16061   4.329   1.360  10.758  2.2739  0.3199  0.0955
  146SAPE    C316062   4.321   1.728  10.442 -0.0696 -0.3861  0.7004
  146SAPE    HX16063   4.215   1.698  10.426 -0.7312  2.5364 -1.2793
  146SAPE    HY16064   4.395   1.663  10.390 -0.0417  0.3876 -0.2737
  146SAPE   O3116065   4.320   1.865  10.400  1.0461  0.1422  0.0143
  146SAPE   C3116066   4.400   1.894  10.296 -0.0870  0.7036 -0.1881
  146SAPE   O3216067   4.457   1.815  10.222 -0.8592  0.2596  0.0493
  146SAPE   C3216068   4.393   2.050  10.278 -0.5029 -0.1043  0.6405
  146SAPE   H2X16069   4.423   2.097  10.374  1.7906 -1.9200  0.8844
  146SAPE   H2Y16070   4.285   2.074  10.267 -0.3506 -0.2843 -1.5951
  146SAPE   C2316071   4.223   1.247  10.612  0.3595 -1.0151 -0.8146
  146SAPE   H3R16072   4.128   1.276  10.661 -0.0173 -1.9229 -0.9847
  146SAPE   H3S16073   4.263   1.151  10.653  1.3384 -0.7745 -1.1598
  146SAPE   C2416074   4.203   1.221  10.454 -0.4304 -0.7686 -0.0389
  146SAPE   H4R16075   4.156   1.316  10.422 -0.9264 -0.1920  2.1940
  146SAPE   H4S16076   4.144   1.129  10.439  0.2384 -1.2141  0.0268
  146SAPE   C2516077   4.335   1.209  10.377 -0.0528  0.1026 -0.8361
  146SAPE   H5R16078   4.415   1.174  10.444  0.2315  2.0979 -0.0795
  146SAPE   C2616079   4.362   1.248  10.255 -0.5307 -0.5019 -0.1900
  146SAPE   H6R16080   4.463   1.229  10.215 -0.4304  0.8319 -0.6037
  146SAPE   C2716081   4.274   1.320  10.150 -0.3553 -0.9713  0.6497
  146SAPE   H7R16082   4.168   1.321  10.180  0.0822  0.4582  2.2962
  146SAPE   H7S16083   4.261   1.272  10.050 -0.6020  1.1747 -0.4124
  146SAPE   C2816084   4.303   1.469  10.129 -0.1876 -0.2674  0.4860
  146SAPE   H8R16085   4.407   1.491  10.102 -0.6933  1.1461 -0.3865
  146SAPE   C2916086   4.214   1.570  10.135  0.1378  0.4499  1.2924
  146SAPE   H9R16087   4.263   1.669  10.139  3.8440 -1.0495 -0.9054
  146SAPE  C21016088   4.069   1.560  10.170  0.0244  0.5931 -0.6399
  146SAPE  H10R16089   4.067   1.546  10.280  1.0110 -1.4700 -0.8192
  146SAPE  H10S16090   4.030   1.467  10.123  1.3775 -0.7273  0.7204
  146SAPE  C21116091   3.972   1.670  10.136  0.2001  0.4566 -0.1239
  146SAPE  H11R16092   3.926   1.702  10.231  0.3916 -2.3830  1.0240
  146SAPE  C21216093   3.941   1.705  10.010 -0.3704 -0.2328 -1.1213
  146SAPE  H12R16094   3.862   1.777   9.986 -1.7741 -1.3368  0.0079
  146SAPE  C21316095   4.003   1.639   9.898 -1.0536  1.0677 -0.0183
  146SAPE  H13R16096   3.999   1.528   9.908 -0.1291  0.7551 -2.3608
  146SAPE  H13S16097   4.112   1.659   9.895 -0.8227 -0.1675 -0.4430
  146SAPE  C21416098   3.937   1.670   9.766  1.1176  0.0716 -0.3001
  146SAPE  H14R16099   3.869   1.593   9.726 -1.3426  1.7122  0.4265
  146SAPE  C21516100   3.944   1.789   9.711 -0.4673  0.3966  0.3204
  146SAPE  H15R16101   3.881   1.807   9.623 -1.2460  1.6333  1.1059
  146SAPE  C21616102   4.028   1.909   9.758 -0.6545 -1.1568  0.1087
  146SAPE  H16R16103   4.102   1.877   9.834  1.4597  2.6031 -0.1510
  146SAPE  H16S16104   3.971   1.996   9.796  1.5768  1.4455 -2.1289
  146SAPE  C21716105   4.099   1.955   9.629 -0.1045  0.2941 -0.4313
  146SAPE  H17R16106   4.160   1.868   9.597  0.0990 -0.6770  2.3663
  146SAPE  H17S16107   4.160   2.042   9.663  0.4382 -0.1405 -0.2720
  146SAPE  C21816108   4.008   1.992   9.505 -0.2745 -0.7676 -0.8097
  146SAPE  H18R16109   3.940   2.076   9.532 -0.4209 -1.3935  0.9392
  146SAPE  H18S16110   3.945   1.908   9.468 -2.8508  0.8781 -0.4521
  146SAPE  C21916111   4.069   2.041   9.374  0.3924  0.1067  0.3113
  146SAPE  H19R16112   4.094   2.147   9.397 -3.9653  1.3885  0.0890
  146SAPE  H19S16113   3.981   2.049   9.306 -1.2826  0.1888  2.3555
  146SAPE  C22016114   4.175   1.947   9.312 -0.3777 -0.1759  0.7295
  146SAPE  H20R16115   4.187   1.989   9.209 -0.2013 -0.5979  0.5778
  146SAPE  H20S16116   4.131   1.846   9.302  0.1780 -0.4392  0.9444
  146SAPE  H20T16117   4.271   1.950   9.367  1.0047 -0.6323 -1.5468
  146SAPE   C3316118   4.473   2.100  10.160 -0.6410  0.8192  0.0543
  146SAPE   H3X16119   4.439   2.051  10.067  0.0155  0.6444 -0.0965
  146SAPE   H3Y16120   4.583   2.081  10.166 -0.5218  1.7200  1.0787
  146SAPE   C3416121   4.452   2.248  10.135 -0.0420 -0.7039 -0.0786
  146SAPE   H4X16122   4.503   2.307  10.214 -3.0837  0.4912  1.1818
  146SAPE   H4Y16123   4.350   2.286  10.160 -0.4741 -1.3516 -0.8010
  146SAPE   C3516124   4.502   2.291  10.001 -0.0004 -0.7310 -0.1798
  146SAPE   H5X16125   4.591   2.230   9.976  1.8711  1.4043  0.9018
  146SAPE   H5Y16126   4.538   2.396  10.000 -1.5297 -0.1719 -0.0763
  146SAPE   C3616127   4.405   2.288   9.888 -0.0622  0.3886  0.1874
  146SAPE   H6X16128   4.324   2.364   9.881 -2.2716 -1.8038  0.6551
  146SAPE   H6Y16129   4.352   2.190   9.886  1.6163 -0.5650  0.0748
  146SAPE   C3716130   4.480   2.307   9.752 -0.5212 -0.1279  0.2154
  146SAPE   H7X16131   4.537   2.212   9.742 -0.5814 -0.1182 -0.2811
  146SAPE   H7Y16132   4.544   2.397   9.761 -1.9533  0.9649 -0.1513
  146SAPE   C3816133   4.397   2.325   9.632 -0.0940 -1.0111  0.1762
  146SAPE   H8X16134   4.334   2.414   9.653 -0.2406 -1.2022  0.5634
  146SAPE   H8Y16135   4.336   2.232   9.619  1.1579 -1.9990  1.1016
  146SAPE   C3916136   4.476   2.343   9.504  0.1186 -0.5076  0.2907
  146SAPE   H9X16137   4.548   2.260   9.490  0.2214 -0.1231 -1.9501
  146SAPE   H9Y16138   4.541   2.434   9.509  2.2436 -1.9385 -0.0590
  146SAPE  C31016139   4.388   2.358   9.378 -0.3709 -0.3231  0.2985
  146SAPE  H10X16140   4.361   2.465   9.379  2.5048  0.5942 -2.5991
  146SAPE  H10Y16141   4.301   2.290   9.395 -0.3794  0.1875  2.6049
  146SAPE  C31116142   4.466   2.328   9.247 -0.1448 -0.6618  0.0910
  146SAPE  H11X16143   4.479   2.217   9.248  1.7950 -0.4813  0.8445
  146SAPE  H11Y16144   4.565   2.370   9.218 -1.7839  0.7438 -4.2994
  146SAPE  C31216145   4.381   2.363   9.121 -0.5979 -0.1479 -0.3696
  146SAPE  H12X16146   4.368   2.473   9.113 -0.3612 -0.0560  0.4257
  146SAPE  H12Y16147   4.278   2.327   9.143 -0.2514 -0.1448  1.3964
  146SAPE  C31316148   4.420   2.299   8.989  0.0442 -0.3745 -0.1304
  146SAPE  H13X16149   4.427   2.190   9.011  2.7158 -0.0875  0.8193
  146SAPE  H13Y16150   4.524   2.329   8.964  0.4844  0.4380  2.3993
  146SAPE  C31416151   4.327   2.315   8.872  0.7897 -0.6715  0.5450
  146SAPE  H14X16152   4.309   2.424   8.860  1.0008 -0.4915  1.7347
  146SAPE  H14Y16153   4.232   2.261   8.893 -0.1433  0.6782 -0.0471
  146SAPE  C31516154   4.386   2.248   8.742 -0.0409  0.3559 -0.6898
  146SAPE  H15X16155   4.329   2.156   8.717 -0.7680  0.5942  0.0517
  146SAPE  H15Y16156   4.487   2.218   8.776 -0.1647  3.0824  2.6947
  146SAPE  C31616157   4.408   2.356   8.641 -0.1864  0.3017 -0.2506
  146SAPE  H16X16158   4.477   2.422   8.697 -0.1301  1.0577 -1.1922
  146SAPE  H16Y16159   4.313   2.409   8.620 -0.9348 -0.8360  0.1335
  146SAPE  C31716160   4.490   2.323   8.512  0.3425  0.1525  0.6447
  146SAPE  H17X16161   4.449   2.233   8.461  0.6980 -1.7349  3.5037
  146SAPE  H17Y16162   4.589   2.288   8.549 -0.1184 -1.7259  0.2173
  146SAPE  C31816163   4.502   2.448   8.425  0.6143 -0.1347  0.6206
  146SAPE  H18X16164   4.583   2.445   8.349 -0.0457  1.5963 -0.2157
  146SAPE  H18Y16165   4.506   2.534   8.496 -0.3546  1.6496 -1.3588
  146SAPE  H18Z16166   4.409   2.458   8.364  1.6426 -2.8557 -1.6088
  147SAPE     N16167   5.766   4.819  10.979 -0.7575  0.2838  0.1014
  147SAPE   HN116168   5.712   4.731  10.975 -1.3814  0.5615  1.6593
  147SAPE   HN216169   5.854   4.799  11.030 -1.0601 -0.2182  0.4303
  147SAPE   HN316170   5.728   4.883  11.052  2.2521 -0.5197  2.5755
  147SAPE   C1216171   5.777   4.894  10.850  0.4177  0.0899  0.0755
  147SAPE  H12A16172   5.788   4.831  10.759 -0.4650 -0.5708  0.4098
  147SAPE  H12B16173   5.868   4.956  10.855  1.0977 -0.7519 -1.1950
  147SAPE   C1116174   5.662   4.996  10.846 -0.7401  0.1081  0.5627
  147SAPE  H11A16175   5.566   4.940  10.855  0.2684 -1.6660  0.9423
  147SAPE  H11B16176   5.669   5.057  10.754 -1.1700 -1.2925 -0.4411
  147SAPE     P16177   5.535   5.163  11.005  0.0246  0.1583  0.2500
  147SAPE   O1316178   5.451   5.075  11.085 -1.0387  0.2184  0.1530
  147SAPE   O1416179   5.584   5.290  11.069 -0.1934  0.7204 -0.1766
  147SAPE   O1216180   5.665   5.083  10.957  0.3051  0.5466  0.6018
  147SAPE   O1116181   5.451   5.194  10.879  0.1773 -0.1748  0.1624
  147SAPE    C116182   5.500   5.295  10.783  0.0838  0.0218 -0.3806
  147SAPE    HA16183   5.459   5.396  10.805  1.6637  0.3860  1.1078
  147SAPE    HB16184   5.611   5.295  10.780  0.1225 -1.1312  0.1395
  147SAPE    C216185   5.454   5.255  10.638  0.0085  0.3629 -0.4507
  147SAPE    HS16186   5.343   5.253  10.650 -0.2357 -0.2777 -2.3972
  147SAPE   O2116187   5.510   5.126  10.602 -0.5123  0.1122 -0.1977
  147SAPE   C2116188   5.423   5.048  10.537  0.0311 -0.6962  0.8775
  147SAPE   O2216189   5.305   5.077  10.519  0.1938 -0.2672 -0.1713
  147SAPE   C2216190   5.490   4.914  10.528 -0.0834 -0.0265  0.1254
  147SAPE   H2R16191   5.600   4.917  10.508 -0.3116 -1.4132 -1.5749
  147SAPE   H2S16192   5.473   4.869  10.628 -1.7342 -0.0803 -0.1623
  147SAPE    C316193   5.494   5.369  10.541 -0.5720 -0.2688 -0.2923
  147SAPE    HX16194   5.604   5.380  10.534 -0.6373 -0.5424 -1.9930
  147SAPE    HY16195   5.454   5.469  10.569  0.2143  0.0050 -0.1187
  147SAPE   O3116196   5.442   5.340  10.409  0.3807  0.4838  0.4818
  147SAPE   C3116197   5.322   5.378  10.380  0.2417  0.4560 -0.0817
  147SAPE   O3216198   5.244   5.429  10.457  0.7508  0.0392 -0.1944
  147SAPE   C3216199   5.283   5.344  10.234 -1.0449 -0.3721 -0.2013
  147SAPE   H2X16200   5.339   5.252  10.205  0.8048  1.0023 -1.1946
  147SAPE   H2Y16201   5.318   5.430  10.173 -0.2258 -0.3094  0.3443
  147SAPE   C2316202   5.415   4.814  10.430  0.0369  1.0698 -0.1104
  147SAPE   H3R16203   5.307   4.818  10.454 -0.0821  1.4818 -0.6765
  147SAPE   H3S16204   5.451   4.709  10.430  0.2313  1.1286  0.8736
  147SAPE   C2416205   5.408   4.864  10.281 -0.3290 -0.0089 -0.3963
  147SAPE   H4R16206   5.388   4.973  10.276  1.3680  0.3071 -1.2305
  147SAPE   H4S16207   5.317   4.825  10.231  0.0608  0.4737 -1.5324
  147SAPE   C2516208   5.532   4.830  10.197 -0.3029 -0.0957 -0.3534
  147SAPE   H5R16209   5.626   4.881  10.224 -0.3743  0.4240 -1.0335
  147SAPE   C2616210   5.534   4.750  10.088  0.3116  0.5194  0.3190
  147SAPE   H6R16211   5.625   4.704  10.047 -0.6279 -1.3354  0.2329
  147SAPE   C2716212   5.414   4.686  10.022  0.0152 -0.4103 -0.1360
  147SAPE   H7R16213   5.354   4.635  10.100 -0.2576 -1.9061 -1.2630
  147SAPE   H7S16214   5.437   4.594   9.964 -1.7780 -0.4342 -0.8871
  147SAPE   C2816215   5.326   4.788   9.952  0.1791 -0.0280  0.7654
  147SAPE   H8R16216   5.299   4.877  10.010  0.2992 -0.2983  1.2380
  147SAPE   C2916217   5.296   4.789   9.822 -0.0038 -0.5996 -0.1888
  147SAPE   H9R16218   5.227   4.865   9.780  1.0687 -1.0506 -2.9884
  147SAPE  C21016219   5.337   4.695   9.723  0.4279 -0.3121  0.2905
  147SAPE  H10R16220   5.447   4.684   9.739  0.7221  1.6940 -0.0602
  147SAPE  H10S16221   5.324   4.737   9.621  0.9005 -0.4301  0.1795
  147SAPE  C21116222   5.267   4.563   9.721 -0.1733  0.0107 -0.3015
  147SAPE  H11R16223   5.279   4.513   9.818  0.6030  0.1237 -0.3366
  147SAPE  C21216224   5.205   4.505   9.616  0.2396 -0.0658  0.7069
  147SAPE  H12R16225   5.148   4.411   9.623  0.5363 -0.4292 -1.2365
  147SAPE  C21316226   5.191   4.573   9.477 -0.5191  0.4859 -0.2742
  147SAPE  H13R16227   5.293   4.609   9.455 -0.6521  2.5006  1.9360
  147SAPE  H13S16228   5.122   4.660   9.487 -0.9301 -0.0417  1.9876
  147SAPE  C21416229   5.133   4.484   9.366  0.0668 -0.1669  0.0103
  147SAPE  H14R16230   5.025   4.479   9.347  0.3808 -0.4060 -1.8583
  147SAPE  C21516231   5.186   4.410   9.269 -0.0794 -0.1493 -0.0168
  147SAPE  H15R16232   5.126   4.356   9.193 -1.5450  0.7444  0.4576
  147SAPE  C21616233   5.332   4.391   9.247  0.5520  0.8598  0.0446
  147SAPE  H16R16234   5.413   4.446   9.299  1.3463 -0.5436  0.3477
  147SAPE  H16S16235   5.341   4.423   9.142  0.0042  0.7166 -0.0506
  147SAPE  C21716236   5.370   4.245   9.270  0.6835 -1.0204  0.0941
  147SAPE  H17R16237   5.472   4.226   9.229  1.2321  1.0100  0.4187
  147SAPE  H17S16238   5.296   4.174   9.227 -1.2139 -0.0435  1.6152
  147SAPE  C21816239   5.384   4.208   9.420 -0.3657 -0.3355  0.4061
  147SAPE  H18R16240   5.284   4.215   9.469 -2.5146 -1.9233 -3.3336
  147SAPE  H18S16241   5.447   4.286   9.467  0.4687 -0.5101 -0.3949
  147SAPE  C21916242   5.428   4.062   9.447 -0.3728 -0.1100 -0.0172
  147SAPE  H19R16243   5.361   4.004   9.381 -2.1308  1.5716  0.2149
  147SAPE  H19S16244   5.404   4.038   9.553 -2.8734  2.3145  0.0651
  147SAPE  C22016245   5.581   4.046   9.420  0.4011 -0.0518  0.5662
  147SAPE  H20R16246   5.607   3.943   9.454  2.8367 -0.7070 -2.7789
  147SAPE  H20S16247   5.633   4.120   9.485  0.7441 -0.0916  0.3385
  147SAPE  H20T16248   5.611   4.072   9.317 -1.6489  1.8701  0.3882
  147SAPE   C3316249   5.139   5.310  10.223  0.0409  0.1020  1.0514
  147SAPE   H3X16250   5.074   5.400  10.219  0.1790  0.1599 -0.4592
  147SAPE   H3Y16251   5.110   5.240  10.303  0.0687 -0.9008  0.2106
  147SAPE   C3416252   5.106   5.230  10.091  0.2906  0.3225  0.8100
  147SAPE   H4X16253   5.001   5.197  10.109  0.2742  0.2119  0.5219
  147SAPE   H4Y16254   5.186   5.153  10.087  1.2451  1.1783  2.3399
  147SAPE   C3516255   5.111   5.320   9.966  0.3365  0.4797 -0.2662
  147SAPE   H5X16256   5.215   5.356   9.951  1.8908 -1.7502  3.6180
  147SAPE   H5Y16257   5.045   5.407   9.986 -1.3145 -0.0120 -3.1350
  147SAPE   C3616258   5.061   5.246   9.848  0.1313 -0.3607 -0.4324
  147SAPE   H6X16259   4.957   5.207   9.858 -0.2575  0.7607  0.0466
  147SAPE   H6Y16260   5.127   5.160   9.824 -1.1663 -1.4053 -0.3881
  147SAPE   C3716261   5.076   5.329   9.714  0.2003 -0.4308  0.3349
  147SAPE   H7X16262   5.186   5.338   9.696  0.0136 -1.0737 -1.2536
  147SAPE   H7Y16263   5.036   5.430   9.739  1.2328  0.1471 -0.2608
  147SAPE   C3816264   5.007   5.266   9.597  1.0068  0.5044  0.0138
  147SAPE   H8X16265   4.902   5.294   9.618  1.2124  1.1197  0.2701
  147SAPE   H8Y16266   5.017   5.156   9.593  1.3572  0.5232  0.3067
  147SAPE   C3916267   5.054   5.314   9.464  0.9712  0.0902 -0.6337
  147SAPE   H9X16268   5.158   5.287   9.435  1.3717  1.6440 -0.7501
  147SAPE   H9Y16269   5.058   5.425   9.467  0.9683  0.1235 -1.5188
  147SAPE  C31016270   4.973   5.257   9.359 -0.1235 -0.0232  0.1174
  147SAPE  H10X16271   4.866   5.269   9.386  0.5879  0.6347  2.9508
  147SAPE  H10Y16272   4.987   5.147   9.346 -4.3333 -0.7128  0.1759
  147SAPE  C31116273   5.007   5.307   9.223  0.3345 -0.3524  0.0110
  147SAPE  H11X16274   5.115   5.300   9.198  0.0309 -0.1776 -1.4387
  147SAPE  H11Y16275   4.990   5.416   9.224  0.9844 -0.2252 -1.1062
  147SAPE  C31216276   4.913   5.247   9.114 -0.4259 -0.7553 -0.0398
  147SAPE  H12X16277   4.805   5.258   9.136 -0.0237 -2.7920  3.8510
  147SAPE  H12Y16278   4.939   5.139   9.112 -0.0380 -0.6567 -1.0611
  147SAPE  C31316279   4.929   5.311   8.978 -0.3848 -0.2204 -0.0658
  147SAPE  H13X16280   4.926   5.422   8.980 -2.1784 -0.2030 -1.3416
  147SAPE  H13Y16281   4.840   5.286   8.916  0.3552  1.7210 -2.0551
  147SAPE  C31416282   5.062   5.270   8.911 -0.1651 -0.5774  0.0393
  147SAPE  H14X16283   5.070   5.160   8.910 -2.9524 -0.8439 -0.4820
  147SAPE  H14Y16284   5.136   5.303   8.987 -0.6905  1.9873 -0.4554
  147SAPE  C31516285   5.099   5.326   8.772 -0.2800 -0.5063  0.6610
  147SAPE  H15X16286   5.068   5.431   8.751  0.1421 -0.6394 -0.7510
  147SAPE  H15Y16287   5.032   5.263   8.709 -0.6124  0.9126 -0.4652
  147SAPE  C31616288   5.246   5.324   8.738 -0.2794  0.3208  0.3222
  147SAPE  H16X16289   5.292   5.226   8.762  1.1684  0.6878 -0.8319
  147SAPE  H16Y16290   5.295   5.400   8.803 -1.3603 -0.8581  2.6648
  147SAPE  C31716291   5.271   5.340   8.588 -0.1385  0.4765 -0.8071
  147SAPE  H17X16292   5.220   5.255   8.538  2.5814 -0.6479 -1.8712
  147SAPE  H17Y16293   5.377   5.315   8.566  0.3219  0.2779  1.3938
  147SAPE  C31816294   5.232   5.473   8.526  0.4999  0.1274 -0.3265
  147SAPE  H18X16295   5.281   5.557   8.579  0.4005 -0.4061  0.6345
  147SAPE  H18Y16296   5.125   5.497   8.542  0.7883  0.3533  1.3650
  147SAPE  H18Z16297   5.253   5.469   8.416  0.1358  4.1152 -0.6602
  148SAPE     N16298   0.893   6.631  11.002  0.2352  0.5487  0.1431
  148SAPE   HN116299   0.833   6.547  11.000 -0.4783  1.0046  1.3250
  148SAPE   HN216300   0.975   6.608  11.063  2.1435 -1.8766 -3.0286
  148SAPE   HN316301   0.834   6.706  11.045  1.7296  0.9212  1.6616
  148SAPE   C1216302   0.932   6.658  10.863  0.1766  0.2012  0.2174
  148SAPE  H12A16303   0.982   6.564  10.832 -1.1825 -1.4944  2.7725
  148SAPE  H12B16304   1.001   6.745  10.862 -0.8305  1.0140 -0.2772
  148SAPE   C1116305   0.811   6.714  10.783 -0.3609 -0.1870 -0.0751
  148SAPE  H11A16306   0.728   6.640  10.792  0.5246 -1.2072 -0.1068
  148SAPE  H11B16307   0.851   6.721  10.680  1.1452  1.2369  0.5708
  148SAPE     P16308   0.837   6.973  10.813  0.3549  0.1780  0.5447
  148SAPE   O1316309   0.741   7.083  10.837  0.2280 -0.3123 -0.4839
  148SAPE   O1416310   0.955   6.968  10.897  0.1277 -0.6778  0.0839
  148SAPE   O1216311   0.758   6.839  10.832  0.3076  0.1381 -0.0857
  148SAPE   O1116312   0.874   6.973  10.659  0.5626  0.6738  0.4353
  148SAPE    C116313   0.768   6.976  10.565  0.2952 -0.0770  0.3995
  148SAPE    HA16314   0.717   6.877  10.556  0.7634 -0.2188 -0.9474
  148SAPE    HB16315   0.693   7.055  10.588 -2.1666 -1.1965 -2.8829
  148SAPE    C216316   0.813   7.028  10.427 -0.4601 -0.4517  0.3361
  148SAPE    HS16317   0.733   7.050  10.354  0.6981  1.9972 -0.2749
  148SAPE   O2116318   0.903   6.926  10.370  0.0054 -0.3626 -0.0510
  148SAPE   C2116319   0.844   6.820  10.321 -0.5794 -0.6835  0.2112
  148SAPE   O2216320   0.721   6.802  10.332 -0.1970 -0.2395  0.3660
  148SAPE   C2216321   0.939   6.715  10.264 -0.5250 -0.3552 -0.0751
  148SAPE   H2R16322   1.025   6.757  10.207  0.6982 -0.6398  1.4719
  148SAPE   H2S16323   0.991   6.662  10.347  2.1944  0.8101 -0.9116
  148SAPE    C316324   0.895   7.161  10.444 -0.4628 -1.3060  0.2340
  148SAPE    HX16325   0.973   7.146  10.521 -0.6592  1.5324  1.0824
  148SAPE    HY16326   0.826   7.239  10.481 -0.9789 -1.1650 -0.9858
  148SAPE   O3116327   0.965   7.205  10.323  0.0003  0.2413  0.4491
  148SAPE   C3116328   0.883   7.219  10.223 -0.0850  0.5682  0.5819
  148SAPE   O3216329   0.757   7.224  10.229  0.3859  0.5649  0.2620
  148SAPE   C3216330   0.950   7.216  10.083 -0.1563  0.2632  0.2204
  148SAPE   H2X16331   1.023   7.132  10.090 -1.0941 -0.6678 -0.7528
  148SAPE   H2Y16332   1.013   7.307  10.075  1.9085 -0.7405  3.4208
  148SAPE   C2316333   0.862   6.620  10.173 -1.0068 -0.3363 -0.1064
  148SAPE   H3R16334   0.781   6.566  10.224  0.9699  1.3487  5.5327
  148SAPE   H3S16335   0.932   6.541  10.137 -0.8956 -1.4950  2.4241
  148SAPE   C2416336   0.820   6.684  10.037  0.6307  0.1572 -0.0081
  148SAPE   H4R16337   0.770   6.781  10.057 -0.3647 -0.4092  0.2987
  148SAPE   H4S16338   0.732   6.635   9.991  0.6050 -0.8849  1.0823
  148SAPE   C2516339   0.932   6.727   9.948 -0.6380  0.1395 -0.4528
  148SAPE   H5R16340   1.013   6.783   9.998 -0.2888  1.2446 -2.1658
  148SAPE   C2616341   0.945   6.720   9.813  0.2179  0.1708  0.6328
  148SAPE   H6R16342   1.034   6.753   9.759  0.1885 -1.2096 -0.2995
  148SAPE   C2716343   0.840   6.655   9.720  0.0858 -0.0510 -0.1963
  148SAPE   H7R16344   0.820   6.729   9.639 -0.2165 -0.4260 -0.4662
  148SAPE   H7S16345   0.741   6.638   9.767  0.0032 -0.3304 -0.4644
  148SAPE   C2816346   0.894   6.536   9.649 -0.0790  0.2599  0.4748
  148SAPE   H8R16347   0.870   6.435   9.685  1.8689 -1.6085 -2.9286
  148SAPE   C2916348   0.969   6.530   9.531  0.3472  0.3040  0.4382
  148SAPE   H9R16349   0.991   6.428   9.496 -2.6518 -0.4641  0.4806
  148SAPE  C21016350   1.011   6.638   9.433 -0.5374  0.0890 -0.1235
  148SAPE  H10R16351   1.122   6.649   9.429 -0.5307  0.5768  1.0149
  148SAPE  H10S16352   0.968   6.737   9.459 -3.1491 -1.3190  1.2381
  148SAPE  C21116353   0.946   6.609   9.297  0.1100  0.8678 -0.0718
  148SAPE  H11R16354   0.836   6.602   9.300  0.0770  0.1877 -1.8289
  148SAPE  C21216355   1.020   6.582   9.188  0.1426  0.2055 -0.1775
  148SAPE  H12R16356   0.969   6.551   9.096 -1.4131  2.3070 -0.0908
  148SAPE  C21316357   1.172   6.594   9.177 -0.1043 -0.2237 -0.2954
  148SAPE  H13R16358   1.220   6.673   9.238 -0.3727  0.9022 -1.4829
  148SAPE  H13S16359   1.195   6.645   9.081  3.2798  0.0615  0.5607
  148SAPE  C21416360   1.241   6.463   9.189 -0.3023  0.3177  0.1069
  148SAPE  H14R16361   1.223   6.406   9.282  0.6642 -2.7574 -1.4673
  148SAPE  C21516362   1.333   6.421   9.105 -0.1070 -0.0015 -0.7779
  148SAPE  H15R16363   1.374   6.321   9.125 -1.6104 -0.0624  2.8241
  148SAPE  C21616364   1.374   6.479   8.974  0.4184  0.3521 -0.5061
  148SAPE  H16R16365   1.473   6.436   8.949  0.7936  0.6943  0.3441
  148SAPE  H16S16366   1.385   6.588   8.994  0.3956 -0.1263  2.5269
  148SAPE  C21716367   1.277   6.434   8.871 -0.4290 -0.1854 -0.2318
  148SAPE  H17R16368   1.173   6.463   8.900  0.3735 -1.4764  4.9663
  148SAPE  H17S16369   1.286   6.323   8.874  2.9919 -0.0051  1.3841
  148SAPE  C21816370   1.304   6.489   8.726  0.4235 -0.1156 -0.1824
  148SAPE  H18R16371   1.407   6.462   8.693  1.0930  0.3191  1.4576
  148SAPE  H18S16372   1.298   6.599   8.719 -1.6061 -0.2181 -0.6277
  148SAPE  C21916373   1.207   6.424   8.620 -0.3540 -0.0922 -0.6705
  148SAPE  H19R16374   1.207   6.313   8.615 -1.0774 -0.1755  0.7160
  148SAPE  H19S16375   1.249   6.452   8.521  2.7164 -1.1300  0.2101
  148SAPE  C22016376   1.061   6.470   8.640 -0.3082  0.0233  0.2063
  148SAPE  H20R16377   1.056   6.572   8.597  1.5105  0.0581 -0.0077
  148SAPE  H20S16378   1.036   6.464   8.748  0.1560 -2.2663  0.2321
  148SAPE  H20T16379   1.000   6.397   8.583  0.3505 -0.7212  0.4238
  148SAPE   C3316380   0.867   7.185   9.958  0.2725 -0.1113  0.5979
  148SAPE   H3X16381   0.799   7.264   9.919  0.8208  0.6007  1.0623
  148SAPE   H3Y16382   0.800   7.101   9.985  0.3671  0.0537  1.3573
  148SAPE   C3416383   0.962   7.129   9.848 -0.0961  0.2248  0.7465
  148SAPE   H4X16384   0.999   7.030   9.884 -2.2987 -0.8654  0.2534
  148SAPE   H4Y16385   1.050   7.194   9.834  1.6590 -1.2647  3.6909
  148SAPE   C3516386   0.901   7.108   9.710  0.4161 -0.1757  0.2483
  148SAPE   H5X16387   0.853   7.202   9.675  0.2347  0.0946  1.1886
  148SAPE   H5Y16388   0.822   7.030   9.718  0.1393  0.0766  0.0261
  148SAPE   C3616389   1.011   7.054   9.618 -0.2077 -0.3781 -0.1202
  148SAPE   H6X16390   1.005   6.943   9.628 -1.5316 -0.2851  0.3147
  148SAPE   H6Y16391   1.113   7.081   9.653 -0.0323 -1.9318  0.6726
  148SAPE   C3716392   1.005   7.103   9.474 -0.2208  0.2720 -1.3161
  148SAPE   H7X16393   1.088   7.059   9.415 -0.5901  0.0069 -1.6474
  148SAPE   H7Y16394   1.019   7.212   9.489  2.1235 -0.1251 -0.2417
  148SAPE   C3816395   0.873   7.065   9.404 -0.6529  0.6140  0.0797
  148SAPE   H8X16396   0.794   7.116   9.463  0.1162  0.8742  0.9151
  148SAPE   H8Y16397   0.869   6.956   9.429  4.4887  0.1209 -0.2093
  148SAPE   C3916398   0.862   7.092   9.258 -0.6707  0.0447  0.1560
  148SAPE   H9X16399   0.904   7.192   9.232  0.2101 -0.2492  0.3995
  148SAPE   H9Y16400   0.757   7.095   9.224 -0.8065  1.2325  0.6164
  148SAPE  C31016401   0.932   6.983   9.172 -0.1333  0.1910 -0.2912
  148SAPE  H10X16402   0.875   6.888   9.172 -0.0449  0.1354 -0.0600
  148SAPE  H10Y16403   1.035   6.969   9.212 -0.1079  2.5399  0.5857
  148SAPE  C31116404   0.960   7.022   9.036  0.1655  0.5911  1.1253
  148SAPE  H11X16405   1.050   7.087   9.035 -1.8913  3.6862 -0.7519
  148SAPE  H11Y16406   0.887   7.095   8.998  0.8517  1.3806  1.2908
  148SAPE  C31216407   0.975   6.905   8.930  0.5946  0.4955 -0.0567
  148SAPE  H12X16408   0.951   6.806   8.976  1.2606 -0.5254 -1.8001
  148SAPE  H12Y16409   1.084   6.895   8.911  0.8242  2.0681  0.3110
  148SAPE  C31316410   0.883   6.922   8.811  0.0002 -0.0005  0.6919
  148SAPE  H13X16411   0.917   7.009   8.752  2.0786 -0.8974  0.4724
  148SAPE  H13Y16412   0.783   6.945   8.854  1.0471  1.0367  2.7387
  148SAPE  C31416413   0.876   6.794   8.722  0.4685  0.1283  0.0347
  148SAPE  H14X16414   0.832   6.709   8.778 -1.5798  0.5897 -0.7655
  148SAPE  H14Y16415   0.976   6.761   8.688  0.5247 -0.1674  0.4855
  148SAPE  C31516416   0.794   6.793   8.593  0.1512 -0.0345 -0.3530
  148SAPE  H15X16417   0.684   6.780   8.604  0.3031 -2.4435 -1.0864
  148SAPE  H15Y16418   0.827   6.706   8.533 -3.2989 -1.4590 -0.3851
  148SAPE  C31616419   0.832   6.911   8.505 -1.1269 -0.4212  1.0013
  148SAPE  H16X16420   0.942   6.919   8.518 -1.0957 -1.5281  1.5265
  148SAPE  H16Y16421   0.790   7.007   8.541 -1.9586  0.2224 -1.4464
  148SAPE  C31716422   0.785   6.907   8.359  0.2732  0.5079 -0.0799
  148SAPE  H17X16423   0.674   6.903   8.353  0.3058 -2.4364 -0.2120
  148SAPE  H17Y16424   0.819   6.814   8.308 -1.8973  0.0992 -0.9255
  148SAPE  C31816425   0.840   7.020   8.267 -0.3712 -0.6599  0.5767
  148SAPE  H18X16426   0.818   7.122   8.305 -0.8268 -0.1323 -1.0332
  148SAPE  H18Y16427   0.788   7.021   8.169  0.7584 -0.0443 -0.0270
  148SAPE  H18Z16428   0.949   7.014   8.244 -0.6272 -0.9597 -0.5752
  149SAPE     N16429   1.990   2.611  11.167 -0.4432 -0.2945 -0.0941
  149SAPE   HN116430   2.008   2.512  11.193  1.1062  0.0889  0.4432
  149SAPE   HN216431   2.079   2.666  11.160  0.2567 -1.5006 -1.0549
  149SAPE   HN316432   1.939   2.659  11.244 -1.6978 -1.1310 -0.3885
  149SAPE   C1216433   1.915   2.615  11.042 -0.3825  0.1338  0.5086
  149SAPE  H12A16434   1.977   2.600  10.952 -1.2152 -2.2131  0.2500
  149SAPE  H12B16435   1.864   2.714  11.039  2.0601  1.4674 -0.4263
  149SAPE   C1116436   1.808   2.499  11.034  0.0859 -0.2465 -0.0979
  149SAPE  H11A16437   1.744   2.508  10.944 -0.9992 -0.9744  0.5697
  149SAPE  H11B16438   1.739   2.510  11.121  0.7830  1.7412  0.2436
  149SAPE     P16439   1.810   2.234  11.050  0.5387 -0.5014 -0.3024
  149SAPE   O1316440   1.907   2.124  11.022  0.4175 -0.1954 -0.6793
  149SAPE   O1416441   1.734   2.235  11.173  0.2046 -0.3903  0.2594
  149SAPE   O1216442   1.885   2.376  11.029 -0.2840  0.5438 -0.3837
  149SAPE   O1116443   1.692   2.234  10.943 -0.1025 -0.1442  0.0987
  149SAPE    C116444   1.660   2.131  10.845 -0.4185 -1.0948 -0.6463
  149SAPE    HA16445   1.688   2.028  10.876 -0.9352 -0.4798  2.0473
  149SAPE    HB16446   1.551   2.131  10.828 -0.2267 -0.2427 -1.9939
  149SAPE    C216447   1.729   2.156  10.709 -0.1731 -0.5805  0.2793
  149SAPE    HS16448   1.838   2.164  10.726 -0.0997 -1.8965  0.4970
  149SAPE   O2116449   1.686   2.285  10.659  0.1605  0.0275  0.1485
  149SAPE   C2116450   1.761   2.334  10.553  1.0590  0.5689 -0.6738
  149SAPE   O2216451   1.868   2.289  10.518  0.0310  0.4262 -0.2313
  149SAPE   C2216452   1.677   2.445  10.499  0.3138 -0.3480  0.2865
  149SAPE   H2R16453   1.573   2.424  10.529  0.7864  0.3608  2.5849
  149SAPE   H2S16454   1.709   2.539  10.549  1.6604 -0.3668 -0.4957
  149SAPE    C316455   1.702   2.028  10.617 -0.0438 -0.5019 -1.1971
  149SAPE    HX16456   1.593   2.008  10.618 -0.2702  0.6396 -0.3712
  149SAPE    HY16457   1.745   1.948  10.680  0.6677  1.0707  0.4186
  149SAPE   O3116458   1.759   2.025  10.489  0.1978 -0.1103  0.1656
  149SAPE   C3116459   1.884   2.001  10.464 -0.3533 -0.1040 -0.1528
  149SAPE   O3216460   1.975   1.977  10.545 -0.0286 -0.2871 -0.3636
  149SAPE   C3216461   1.907   2.012  10.306 -0.6289  0.1220 -0.3403
  149SAPE   H2X16462   2.000   2.073  10.304 -0.3933  0.0743  2.9232
  149SAPE   H2Y16463   1.812   2.051  10.263 -1.0478 -0.5244 -0.0326
  149SAPE   C2316464   1.695   2.458  10.353 -0.4389 -0.1642  0.2605
  149SAPE   H3R16465   1.805   2.461  10.338 -0.1896 -1.0603  1.7449
  149SAPE   H3S16466   1.648   2.549  10.308  0.5653 -0.9416 -2.5553
  149SAPE   C2416467   1.645   2.335  10.277 -0.2596 -0.2509  0.2857
  149SAPE   H4R16468   1.683   2.242  10.323  0.6455  0.2910  0.6605
  149SAPE   H4S16469   1.685   2.339  10.173 -2.4551  3.1504 -0.5802
  149SAPE   C2516470   1.493   2.332  10.258  0.2944 -0.0770 -0.5550
  149SAPE   H5R16471   1.442   2.314  10.353  1.5200  2.6968  0.7086
  149SAPE   C2616472   1.411   2.336  10.146  0.1912 -0.2917 -0.2147
  149SAPE   H6R16473   1.302   2.326  10.152  0.1867 -1.3107 -1.4105
  149SAPE   C2716474   1.453   2.343   9.995 -0.4258  0.3817 -0.8118
  149SAPE   H7R16475   1.375   2.284   9.943  1.0033 -0.2818 -2.2497
  149SAPE   H7S16476   1.547   2.284   9.987  1.5117  3.0788  0.3799
  149SAPE   C2816477   1.471   2.482   9.938  0.0756  0.0197  0.1481
  149SAPE   H8R16478   1.490   2.566  10.006 -3.1521  1.5019 -0.6062
  149SAPE   C2916479   1.482   2.521   9.813  0.3686  0.5441  0.3631
  149SAPE   H9R16480   1.495   2.630   9.802 -1.7249  0.9675  1.4545
  149SAPE  C21016481   1.467   2.441   9.682  0.0330 -0.2979 -0.3163
  149SAPE  H10R16482   1.362   2.459   9.652  0.7708  1.8803 -1.8158
  149SAPE  H10S16483   1.465   2.332   9.700  2.5527 -0.4365 -0.5447
  149SAPE  C21116484   1.572   2.477   9.584  0.4780  0.6333  0.1075
  149SAPE  H11R16485   1.677   2.464   9.615  0.9772  2.7283 -0.5316
  149SAPE  C21216486   1.551   2.531   9.463 -0.1616 -0.6329 -0.6940
  149SAPE  H12R16487   1.636   2.524   9.394 -0.4233  0.1966 -1.1104
  149SAPE  C21316488   1.421   2.561   9.402 -0.1120 -0.3110  0.2321
  149SAPE  H13R16489   1.422   2.633   9.318 -3.2720 -0.8154 -0.3610
  149SAPE  H13S16490   1.361   2.613   9.480 -0.4796 -1.0733  0.4747
  149SAPE  C21416491   1.340   2.449   9.345 -0.0841 -0.5836 -0.3569
  149SAPE  H14R16492   1.378   2.348   9.369 -2.0017 -0.6575  2.9203
  149SAPE  C21516493   1.227   2.467   9.270  0.3686 -0.1956  0.3502
  149SAPE  H15R16494   1.178   2.378   9.229  1.2366  0.3916 -2.1205
  149SAPE  C21616495   1.165   2.600   9.227 -0.0056 -0.3259  0.1224
  149SAPE  H16R16496   1.203   2.692   9.276 -3.0284  0.6557  0.8815
  149SAPE  H16S16497   1.056   2.606   9.248  0.1500  1.3098  0.5870
  149SAPE  C21716498   1.188   2.603   9.072 -0.3863  0.0067 -0.3593
  149SAPE  H17R16499   1.294   2.590   9.040 -0.1883  0.3209  0.1435
  149SAPE  H17S16500   1.159   2.703   9.033  0.3316 -1.1952 -4.4684
  149SAPE  C21816501   1.098   2.503   9.002  0.4214  0.1463 -0.5273
  149SAPE  H18R16502   0.995   2.533   9.030  0.6371  0.9105 -0.5127
  149SAPE  H18S16503   1.101   2.395   9.024 -0.3105  0.5190  1.6318
  149SAPE  C21916504   1.103   2.513   8.857  0.5408  0.1455 -0.2603
  149SAPE  H19R16505   1.198   2.459   8.836  0.3106 -1.0817  1.6324
  149SAPE  H19S16506   1.120   2.617   8.822 -0.7443  0.4162 -0.1374
  149SAPE  C22016507   0.984   2.451   8.786  0.3790 -0.7959 -0.1328
  149SAPE  H20R16508   1.000   2.452   8.676  2.7139  0.4747  0.1562
  149SAPE  H20S16509   0.886   2.497   8.813  0.5178 -0.1135 -0.7866
  149SAPE  H20T16510   0.971   2.344   8.814 -0.2469 -0.9105 -0.8204
  149SAPE   C3316511   1.914   1.870  10.249  0.0911  0.4798 -0.3750
  149SAPE   H3X16512   1.811   1.833  10.233 -0.4655  2.2069 -1.0092
  149SAPE   H3Y16513   1.954   1.798  10.323 -3.7665 -0.0737  1.3825
  149SAPE   C3416514   1.982   1.865  10.114 -0.1223  0.0083  0.2788
  149SAPE   H4X16515   2.090   1.889  10.124 -0.2300 -0.2137  2.6087
  149SAPE   H4Y16516   1.928   1.940  10.053  1.6419  2.7334  1.8463
  149SAPE   C3516517   1.967   1.726  10.047 -0.0602  0.4862 -0.0723
  149SAPE   H5X16518   1.861   1.706  10.021  0.6337 -0.5699 -2.2806
  149SAPE   H5Y16519   1.997   1.645  10.117 -1.2870 -2.5158 -2.8049
  149SAPE   C3616520   2.065   1.725   9.931  0.3836 -0.2630  0.3126
  149SAPE   H6X16521   2.055   1.628   9.877 -1.4182  0.0624  0.0139
  149SAPE   H6Y16522   2.170   1.717   9.966  0.5361  0.9632  0.1519
  149SAPE   C3716523   2.039   1.830   9.819 -0.6428  0.4684  0.1914
  149SAPE   H7X16524   2.036   1.928   9.869 -0.1166 -0.6401  2.5220
  149SAPE   H7Y16525   1.935   1.826   9.779 -0.3004 -1.1983 -0.6192
  149SAPE   C3816526   2.132   1.809   9.694  0.2449 -0.2368  0.3813
  149SAPE   H8X16527   2.098   1.724   9.631  0.6142 -0.7314  0.8370
  149SAPE   H8Y16528   2.231   1.788   9.740 -0.6447 -2.3825  1.4394
  149SAPE   C3916529   2.148   1.944   9.611  0.0387  0.0717  0.5535
  149SAPE   H9X16530   2.180   2.026   9.679  1.2314  1.0591 -1.1257
  149SAPE   H9Y16531   2.046   1.965   9.571  0.4795 -0.0907 -0.6826
  149SAPE  C31016532   2.246   1.940   9.495  0.2275 -0.3209 -0.4401
  149SAPE  H10X16533   2.208   1.999   9.409  0.1723 -0.0020 -0.1992
  149SAPE  H10Y16534   2.255   1.835   9.460 -2.7920 -1.5871  2.0694
  149SAPE  C31116535   2.382   1.993   9.539  0.1426 -0.4302  0.5224
  149SAPE  H11X16536   2.429   1.915   9.603 -1.5082 -1.5955  0.3673
  149SAPE  H11Y16537   2.358   2.089   9.589  0.8797  0.4891 -0.8171
  149SAPE  C31216538   2.474   2.031   9.420 -0.1887  0.0547 -0.2163
  149SAPE  H12X16539   2.430   2.123   9.376  0.5321  0.6781  0.3449
  149SAPE  H12Y16540   2.487   1.941   9.355 -1.4578 -0.6794  0.5068
  149SAPE  C31316541   2.617   2.077   9.464  0.2977 -1.0521 -0.2425
  149SAPE  H13X16542   2.690   2.063   9.381 -0.7332 -0.6504 -1.2585
  149SAPE  H13Y16543   2.646   2.005   9.543  0.0958 -1.9053 -0.9262
  149SAPE  C31416544   2.611   2.223   9.518  0.2668  0.2353  0.1462
  149SAPE  H14X16545   2.546   2.214   9.608  2.1866 -0.1661  1.5326
  149SAPE  H14Y16546   2.552   2.275   9.439 -0.4862 -1.0683 -0.1846
  149SAPE  C31516547   2.747   2.294   9.556  0.5356  0.5008  0.2185
  149SAPE  H15X16548   2.815   2.293   9.468  1.7113  2.2275  1.0474
  149SAPE  H15Y16549   2.787   2.231   9.638 -0.8356  1.1513  1.4187
  149SAPE  C31616550   2.738   2.440   9.590 -0.2114  0.2097  0.4105
  149SAPE  H16X16551   2.686   2.449   9.687  1.3736  2.0045  1.1510
  149SAPE  H16Y16552   2.670   2.494   9.521 -1.0333  1.7109  2.2899
  149SAPE  C31716553   2.873   2.518   9.585 -0.2854  0.2634 -0.2719
  149SAPE  H17X16554   2.910   2.504   9.481  2.1975  1.3145  0.4054
  149SAPE  H17Y16555   2.950   2.482   9.656 -0.0603 -1.3538 -1.2995
  149SAPE  C31816556   2.847   2.673   9.595  0.1385  0.0868 -0.3243
  149SAPE  H18X16557   2.940   2.706   9.544  1.2022 -0.6119  1.0916
  149SAPE  H18Y16558   2.831   2.719   9.694 -0.3433 -1.0675  0.1485
  149SAPE  H18Z16559   2.761   2.702   9.530 -0.4671 -2.6980 -0.9024
  150SAPE     N16560   4.364   0.970  11.077 -0.1360  0.1484 -0.0834
  150SAPE   HN116561   4.433   0.892  11.073  0.0492  0.3406 -1.2286
  150SAPE   HN216562   4.405   1.047  11.133 -0.5800  0.7154 -0.5287
  150SAPE   HN316563   4.276   0.936  11.120 -0.9566  0.3643 -1.5349
  150SAPE   C1216564   4.334   1.025  10.944  0.6574 -0.7246  0.2970
  150SAPE  H12A16565   4.348   1.135  10.950 -3.1355 -0.0679 -0.3128
  150SAPE  H12B16566   4.227   1.000  10.923 -0.0191 -1.4825  3.9719
  150SAPE   C1116567   4.417   0.964  10.834  0.1372 -0.0738 -0.2455
  150SAPE  H11A16568   4.409   1.033  10.748  0.5189  1.2830  0.7726
  150SAPE  H11B16569   4.372   0.865  10.809 -0.2848  0.4817 -1.7690
  150SAPE     P16570   4.643   1.089  10.842  0.1816  0.0947  0.3655
  150SAPE   O1316571   4.574   1.214  10.891 -0.6447  0.1530 -0.1962
  150SAPE   O1416572   4.779   1.057  10.888  0.0261 -0.2530 -0.4697
  150SAPE   O1216573   4.553   0.957  10.870 -0.0055  0.1974  0.2287
  150SAPE   O1116574   4.647   1.086  10.687 -0.5876  0.3343  0.6218
  150SAPE    C116575   4.702   0.978  10.610  0.3512 -0.9989 -0.2492
  150SAPE    HA16576   4.813   0.988  10.606  0.1453  2.8732 -0.1739
  150SAPE    HB16577   4.667   0.881  10.651  1.8635 -1.9533 -1.0897
  150SAPE    C216578   4.646   0.968  10.461  0.3683  0.2778  0.4654
  150SAPE    HS16579   4.536   0.954  10.471  0.5734 -0.7515  1.4906
  150SAPE   O2116580   4.696   0.853  10.400 -0.0039 -0.1774 -0.1232
  150SAPE   C2116581   4.631   0.735  10.422  0.1889 -0.6818  0.4700
  150SAPE   O2216582   4.538   0.716  10.500  0.8547  0.1074  0.1815
  150SAPE   C2216583   4.691   0.619  10.341 -0.2267 -0.3708 -0.4743
  150SAPE   H2R16584   4.754   0.547  10.397 -0.1151 -0.7776 -1.1163
  150SAPE   H2S16585   4.600   0.567  10.305 -1.4566  0.7285  0.9485
  150SAPE    C316586   4.707   1.097  10.396  0.5024  0.1599 -0.3361
  150SAPE    HX16587   4.818   1.105  10.396  0.6804 -1.8631 -1.1239
  150SAPE    HY16588   4.669   1.187  10.448 -0.6383 -0.3800 -0.2124
  150SAPE   O3116589   4.651   1.094  10.262  0.1931 -0.2497 -0.1753
  150SAPE   C3116590   4.734   1.064  10.161 -1.0444  0.8149  0.7684
  150SAPE   O3216591   4.855   1.054  10.171  0.1493 -0.1556 -0.6719
  150SAPE   C3216592   4.656   1.042  10.038  0.5387  0.2085  0.1634
  150SAPE   H2X16593   4.554   1.085  10.054  1.4352  1.4452  3.4350
  150SAPE   H2Y16594   4.653   0.931  10.039  0.4949  0.1733 -1.2961
  150SAPE   C2316595   4.771   0.676  10.217  0.4266 -0.5019  0.0246
  150SAPE   H3R16596   4.869   0.716  10.250  0.6141  0.4751 -1.6117
  150SAPE   H3S16597   4.708   0.750  10.164 -0.2265 -0.4729  0.8178
  150SAPE   C2416598   4.809   0.573  10.107  0.0521 -0.1643 -0.4170
  150SAPE   H4R16599   4.862   0.487  10.154 -0.0973 -0.7931 -1.3758
  150SAPE   H4S16600   4.885   0.611  10.036  0.1441  0.0991 -0.1780
  150SAPE   C2516601   4.681   0.519  10.042  0.0291  0.0649  0.2832
  150SAPE   H5R16602   4.631   0.435  10.093  0.2285  1.2706  2.6235
  150SAPE   C2616603   4.626   0.568   9.926  0.3442 -0.4279 -0.5089
  150SAPE   H6R16604   4.527   0.535   9.890 -1.2893  2.5048  0.8604
  150SAPE   C2716605   4.680   0.679   9.843  0.2828 -0.4181 -0.3202
  150SAPE   H7R16606   4.726   0.644   9.748 -0.3230 -0.5193 -0.5776
  150SAPE   H7S16607   4.761   0.735   9.895 -0.4785 -0.4791  0.9566
  150SAPE   C2816608   4.576   0.778   9.790 -0.3752  0.0203  0.2106
  150SAPE   H8R16609   4.536   0.848   9.865  0.0115  3.3342 -2.3844
  150SAPE   C2916610   4.541   0.794   9.662 -0.5099 -0.4738  1.0843
  150SAPE   H9R16611   4.475   0.881   9.646 -0.1219 -0.4993 -1.0391
  150SAPE  C21016612   4.592   0.720   9.535 -0.8923  0.4723  0.3837
  150SAPE  H10R16613   4.655   0.635   9.566  0.3245  0.6680 -1.3710
  150SAPE  H10S16614   4.658   0.794   9.484 -1.2233  0.8305  0.4602
  150SAPE  C21116615   4.476   0.674   9.451 -0.2003 -0.0895 -0.0013
  150SAPE  H11R16616   4.468   0.564   9.460  3.5745 -0.6275 -1.4282
  150SAPE  C21216617   4.385   0.753   9.380  0.3389  0.2547 -0.0937
  150SAPE  H12R16618   4.313   0.694   9.321  0.6147 -0.3470  0.1590
  150SAPE  C21316619   4.396   0.898   9.362 -0.0597 -0.0866 -0.3561
  150SAPE  H13R16620   4.493   0.942   9.395 -0.4298  0.4707  0.0012
  150SAPE  H13S16621   4.319   0.934   9.434  1.5410  0.9153  0.9585
  150SAPE  C21416622   4.378   0.941   9.224 -0.4842 -0.4896  0.2516
  150SAPE  H14R16623   4.452   0.903   9.152 -1.2069 -1.3426 -0.0648
  150SAPE  C21516624   4.267   1.015   9.186 -0.7956 -0.4310 -0.0576
  150SAPE  H15R16625   4.271   1.068   9.090 -0.7508  0.7528  0.5811
  150SAPE  C21616626   4.149   1.057   9.263  0.3200  0.4165  0.4420
  150SAPE  H16R16627   4.137   1.167   9.270 -0.2798  0.3033  1.4416
  150SAPE  H16S16628   4.154   1.015   9.366 -1.8655  0.0335  0.4493
  150SAPE  C21716629   4.021   0.992   9.205 -0.0750 -0.5346 -0.5167
  150SAPE  H17R16630   3.928   1.015   9.261  1.1724  2.2525  0.6144
  150SAPE  H17S16631   4.032   0.883   9.221 -2.5344 -1.0038 -1.5272
  150SAPE  C21816632   4.018   1.019   9.057  0.0527 -0.4408 -0.1588
  150SAPE  H18R16633   4.104   0.986   8.994 -0.4869 -2.3197  0.0365
  150SAPE  H18S16634   4.016   1.130   9.059 -1.6634 -0.4437 -0.1922
  150SAPE  C21916635   3.896   0.963   8.993 -0.3130  0.0869 -0.4546
  150SAPE  H19R16636   3.806   1.010   9.038 -0.1870 -0.8260  0.7964
  150SAPE  H19S16637   3.890   0.858   9.029  0.6341  0.0718 -0.3204
  150SAPE  C22016638   3.889   0.966   8.842  0.7329  0.2435  0.1783
  150SAPE  H20R16639   3.794   0.921   8.806  1.2573 -1.0171  0.3152
  150SAPE  H20S16640   3.968   0.903   8.797 -0.4719 -1.0285 -0.2398
  150SAPE  H20T16641   3.905   1.072   8.810 -1.1490  1.1259  1.9598
  150SAPE   C3316642   4.715   1.107   9.916  0.0288 -0.3913 -0.0137
  150SAPE   H3X16643   4.692   1.054   9.821  3.1275 -0.0595 -1.0576
  150SAPE   H3Y16644   4.823   1.090   9.936  0.0659  1.9853  2.4348
  150SAPE   C3416645   4.683   1.260   9.910 -0.3319  0.0978  0.7644
  150SAPE   H4X16646   4.714   1.303  10.007 -1.1372 -1.5441  1.7858
  150SAPE   H4Y16647   4.574   1.267   9.890 -0.1483  1.8074  0.2569
  150SAPE   C3516648   4.751   1.319   9.787 -0.0966 -0.7220  0.2561
  150SAPE   H5X16649   4.862   1.317   9.789  0.0846  1.7302 -1.6961
  150SAPE   H5Y16650   4.719   1.422   9.763 -2.0146 -1.2043  0.5582
  150SAPE   C3616651   4.704   1.257   9.651 -0.7607 -0.1353 -0.2669
  150SAPE   H6X16652   4.598   1.225   9.662 -0.7836  0.3708  1.3564
  150SAPE   H6Y16653   4.773   1.175   9.622  0.6390  1.9812 -3.4680
  150SAPE   C3716654   4.694   1.358   9.540 -0.5522  0.5280 -0.5860
  150SAPE   H7X16655   4.788   1.412   9.519  0.1217 -0.4034 -0.0229
  150SAPE   H7Y16656   4.622   1.439   9.563 -0.4780  0.4600 -0.0965
  150SAPE   C3816657   4.634   1.310   9.410  0.5634  0.5155  0.2217
  150SAPE   H8X16658   4.525   1.296   9.426  0.0399  0.6487 -2.7495
  150SAPE   H8Y16659   4.676   1.209   9.393  2.3260  1.2980 -0.2784
  150SAPE   C3916660   4.648   1.408   9.289 -0.5297  0.6594  0.1720
  150SAPE   H9X16661   4.747   1.386   9.244 -0.5909  0.0983  0.2982
  150SAPE   H9Y16662   4.660   1.506   9.340 -1.5986  1.4971 -1.1069
  150SAPE  C31016663   4.537   1.409   9.188 -0.5363 -0.5994  0.0822
  150SAPE  H10X16664   4.554   1.316   9.129 -1.6240 -0.9753  0.3234
  150SAPE  H10Y16665   4.555   1.496   9.122 -0.4032 -0.4353  0.3345
  150SAPE  C31116666   4.400   1.438   9.245  0.8987 -0.5155 -0.2550
  150SAPE  H11X16667   4.414   1.514   9.325 -1.6215 -0.5958  0.3572
  150SAPE  H11Y16668   4.363   1.342   9.288 -0.9049 -0.3430 -1.3242
  150SAPE  C31216669   4.303   1.498   9.132  0.5108  0.0393 -1.1481
  150SAPE  H12X16670   4.352   1.573   9.066 -2.6444  2.8857 -0.5211
  150SAPE  H12Y16671   4.219   1.547   9.185 -0.2869 -1.4674 -0.9766
  150SAPE  C31316672   4.245   1.398   9.028  0.4897  0.9897  0.3903
  150SAPE  H13X16673   4.164   1.335   9.071  2.0771  0.0906  2.2158
  150SAPE  H13Y16674   4.326   1.326   9.002 -0.5104 -0.6093  1.5048
  150SAPE  C31416675   4.188   1.463   8.897 -0.2726  0.1822  1.0615
  150SAPE  H14X16676   4.267   1.517   8.840 -0.7275 -1.5186 -1.3642
  150SAPE  H14Y16677   4.102   1.529   8.922 -2.0331 -2.0136  1.1178
  150SAPE  C31516678   4.147   1.366   8.784  0.5363 -0.3742  0.1212
  150SAPE  H15X16679   4.122   1.429   8.696  0.3014 -0.9566 -0.2309
  150SAPE  H15Y16680   4.054   1.313   8.816  0.0420  1.2636  1.5798
  150SAPE  C31616681   4.260   1.277   8.737  0.3688  0.3793  0.8488
  150SAPE  H16X16682   4.311   1.243   8.830 -0.2840 -0.0797  1.0466
  150SAPE  H16Y16683   4.328   1.346   8.682 -3.1084  0.9969 -3.2500
  150SAPE  C31716684   4.216   1.157   8.653 -0.1913  0.9576  0.2808
  150SAPE  H17X16685   4.140   1.102   8.714 -1.7804  1.2953 -1.2909
  150SAPE  H17Y16686   4.305   1.091   8.640  0.4116  1.7504  0.3475
  150SAPE  C31816687   4.162   1.183   8.512  0.1643  0.4449 -0.0235
  150SAPE  H18X16688   4.091   1.269   8.513  1.3426  1.4772 -1.3246
  150SAPE  H18Y16689   4.117   1.094   8.464 -0.2025  0.5060  0.1949
  150SAPE  H18Z16690   4.245   1.225   8.452 -0.6651 -0.7930 -2.1254
  151SAPE     N16691   2.387   5.646  10.583 -0.4888  0.5551 -0.9430
  151SAPE   HN116692   2.317   5.643  10.660  0.8244 -0.2970  0.2633
  151SAPE   HN216693   2.431   5.552  10.586 -2.0317 -0.2135 -1.2889
  151SAPE   HN316694   2.465   5.701  10.624 -0.4989 -0.3257  0.3074
  151SAPE   C1216695   2.323   5.663  10.447  0.0916  0.2582 -0.5879
  151SAPE  H12A16696   2.270   5.569  10.420  1.1407 -0.3879 -0.4829
  151SAPE  H12B16697   2.405   5.690  10.377  0.8845  2.4893  1.0842
  151SAPE   C1116698   2.220   5.769  10.452  0.1799 -0.2103 -0.6087
  151SAPE  H11A16699   2.193   5.798  10.348  0.2566  0.7309 -0.3749
  151SAPE  H11B16700   2.272   5.859  10.492 -1.2516  0.6914 -0.7040
  151SAPE     P16701   1.975   5.821  10.550 -0.2622  0.2180 -0.1765
  151SAPE   O1316702   1.859   5.728  10.590 -0.0779 -0.6583 -0.1215
  151SAPE   O1416703   2.004   5.939  10.633  0.0843 -0.5795  0.4999
  151SAPE   O1216704   2.108   5.736  10.533 -0.3641  0.5562 -0.2002
  151SAPE   O1116705   1.934   5.874  10.406  0.3901  0.0195 -0.5476
  151SAPE    C116706   1.928   5.789  10.292 -0.0137  0.5760  0.1707
  151SAPE    HA16707   2.017   5.803  10.227 -0.7784  0.0247 -1.0515
  151SAPE    HB16708   1.920   5.683  10.323 -1.2439  0.8776  0.9346
  151SAPE    C216709   1.808   5.825  10.206  0.4887 -0.4752  0.2171
  151SAPE    HS16710   1.791   5.756  10.121  0.0792 -0.1854  0.0575
  151SAPE   O2116711   1.811   5.955  10.141  0.1785  0.2225 -0.5084
  151SAPE   C2116712   1.897   5.966  10.038 -0.5390  0.4546  0.2265
  151SAPE   O2216713   1.956   5.874   9.987  0.8316  0.3863 -0.0819
  151SAPE   C2216714   1.916   6.113  10.002  0.0470 -0.1111  0.3379
  151SAPE   H2R16715   1.935   6.164  10.099 -2.1589 -0.3235  0.9248
  151SAPE   H2S16716   2.013   6.118   9.948  0.5268  3.9057  1.2819
  151SAPE    C316717   1.678   5.828  10.296 -0.6940 -0.6290 -0.3157
  151SAPE    HX16718   1.677   5.919  10.360 -0.1718 -2.1755  2.0318
  151SAPE    HY16719   1.686   5.745  10.370 -0.2962  0.1936  0.5951
  151SAPE   O3116720   1.567   5.798  10.213  1.3681  0.0323 -0.2420
  151SAPE   C3116721   1.489   5.903  10.185 -0.0960 -0.6743 -0.0010
  151SAPE   O3216722   1.521   6.020  10.201 -0.2368  0.0096  0.0181
  151SAPE   C3216723   1.354   5.852  10.137 -0.3423  0.2067 -0.0403
  151SAPE   H2X16724   1.291   5.862  10.228  2.3475 -2.0025  2.2551
  151SAPE   H2Y16725   1.369   5.746  10.108 -1.7800 -0.3202  1.0307
  151SAPE   C2316726   1.799   6.163   9.915 -0.4393 -0.2109 -0.4491
  151SAPE   H3R16727   1.797   6.274   9.904 -1.0103  0.3075  3.4118
  151SAPE   H3S16728   1.709   6.139   9.976  0.4151 -4.1453 -0.4884
  151SAPE   C2416729   1.776   6.108   9.779 -0.4492  0.0067 -0.5155
  151SAPE   H4R16730   1.676   6.137   9.739 -1.5589 -0.8918  1.4490
  151SAPE   H4S16731   1.761   5.999   9.792  0.1096 -0.2633 -1.8951
  151SAPE   C2516732   1.892   6.132   9.674  0.7948  0.1606  0.0473
  151SAPE   H5R16733   1.943   6.229   9.674 -0.8371  1.1239  2.5886
  151SAPE   C2616734   1.934   6.038   9.586  0.2026  0.0041 -0.4605
  151SAPE   H6R16735   2.017   6.068   9.521  0.0030 -1.4275 -1.4130
  151SAPE   C2716736   1.891   5.896   9.553 -0.1330  0.2500 -0.7420
  151SAPE   H7R16737   1.946   5.868   9.460  2.3543 -0.0505  0.7207
  151SAPE   H7S16738   1.781   5.894   9.535 -0.4907  0.8988  1.2312
  151SAPE   C2816739   1.920   5.793   9.657 -0.7107  0.6371  0.0004
  151SAPE   H8R16740   1.901   5.826   9.760 -1.6347  0.6590 -0.1716
  151SAPE   C2916741   1.953   5.662   9.642  0.4700 -0.0910 -0.5038
  151SAPE   H9R16742   1.979   5.607   9.733 -2.1402 -0.4801  0.0739
  151SAPE  C21016743   1.969   5.587   9.511  0.0754 -1.1002 -0.0117
  151SAPE  H10R16744   1.882   5.615   9.447  0.4288  0.7759  0.2772
  151SAPE  H10S16745   1.960   5.481   9.543 -4.8415 -0.7449  0.6283
  151SAPE  C21116746   2.089   5.610   9.422 -0.3236 -0.0357  0.2051
  151SAPE  H11R16747   2.171   5.662   9.473 -0.6014  0.8362 -0.2239
  151SAPE  C21216748   2.098   5.576   9.291  0.4831  0.1807  0.9804
  151SAPE  H12R16749   2.185   5.595   9.227 -1.0553 -0.8908 -1.5629
  151SAPE  C21316750   1.991   5.515   9.205  1.1756  0.2011 -0.2503
  151SAPE  H13R16751   1.968   5.594   9.131  2.2104  0.6249 -0.1387
  151SAPE  H13S16752   1.891   5.497   9.250  0.3451  0.7315 -1.8100
  151SAPE  C21416753   2.042   5.398   9.132  0.6181 -0.2708  0.0237
  151SAPE  H14R16754   2.151   5.391   9.120  0.4615 -1.6646 -0.6989
  151SAPE  C21516755   1.970   5.302   9.086  0.2475 -0.0615 -0.5655
  151SAPE  H15R16756   2.031   5.221   9.044  2.3665  0.3067  1.6207
  151SAPE  C21616757   1.819   5.288   9.082 -0.4909 -0.4752 -0.5610
  151SAPE  H16R16758   1.761   5.368   9.134  2.0587 -0.6755  2.9530
  151SAPE  H16S16759   1.793   5.189   9.124  0.7396 -1.9870 -3.0989
  151SAPE  C21716760   1.759   5.268   8.946 -0.1996 -0.2535  0.6987
  151SAPE  H17R16761   1.652   5.239   8.953 -0.8033  1.6171  0.0052
  151SAPE  H17S16762   1.799   5.179   8.892 -1.2048  0.1693 -0.8237
  151SAPE  C21816763   1.774   5.385   8.856  0.0118  0.2814 -0.7557
  151SAPE  H18R16764   1.883   5.401   8.843 -0.2356  1.4059 -1.6770
  151SAPE  H18S16765   1.735   5.485   8.887 -2.5410  0.3711 -3.6815
  151SAPE  C21916766   1.707   5.361   8.715  0.3225 -0.2358  0.3214
  151SAPE  H19R16767   1.719   5.450   8.651  0.6623  0.1957  0.9732
  151SAPE  H19S16768   1.599   5.343   8.735 -0.1523  1.2828 -0.7208
  151SAPE  C22016769   1.767   5.246   8.632  0.3460 -0.3586  0.0998
  151SAPE  H20R16770   1.751   5.260   8.523 -0.5757 -0.1527  0.2544
  151SAPE  H20S16771   1.721   5.153   8.671 -0.1487 -0.3643 -0.4722
  151SAPE  H20T16772   1.878   5.236   8.638  0.2591 -0.8384  1.0509
  151SAPE   C3316773   1.297   5.918  10.011 -0.0017 -0.1963 -0.4529
  151SAPE   H3X16774   1.252   6.018  10.027 -0.1306 -0.4630  0.9756
  151SAPE   H3Y16775   1.218   5.856   9.963  1.4674 -0.5397 -2.5944
  151SAPE   C3416776   1.400   5.923   9.901 -0.0902  0.6164  0.1753
  151SAPE   H4X16777   1.479   5.994   9.935  0.8864 -0.4139  0.0991
  151SAPE   H4Y16778   1.352   5.964   9.809  1.4084 -0.8180 -1.2952
  151SAPE   C3516779   1.456   5.788   9.851 -0.5571 -0.5013 -0.5109
  151SAPE   H5X16780   1.384   5.704   9.857  0.4893 -1.4727 -0.9911
  151SAPE   H5Y16781   1.544   5.766   9.916  1.1286  0.0441 -2.4832
  151SAPE   C3616782   1.518   5.806   9.714 -0.1373  0.3315  0.0738
  151SAPE   H6X16783   1.602   5.878   9.723  1.4050 -1.5474  1.7113
  151SAPE   H6Y16784   1.459   5.863   9.639  1.8038  1.3296 -0.7700
  151SAPE   C3716785   1.573   5.668   9.657  0.3173  0.4708 -0.7501
  151SAPE   H7X16786   1.535   5.587   9.723  1.2922 -0.2548 -1.0398
  151SAPE   H7Y16787   1.684   5.675   9.664  0.4321 -0.7310 -0.9971
  151SAPE   C3816788   1.528   5.645   9.519  0.0814  1.3013  0.2644
  151SAPE   H8X16789   1.577   5.720   9.453 -0.8701  0.4943 -1.4190
  151SAPE   H8Y16790   1.419   5.664   9.510 -0.3764 -1.1870 -0.4401
  151SAPE   C3916791   1.549   5.503   9.464  1.1340  0.9522  0.0134
  151SAPE   H9X16792   1.499   5.431   9.532 -1.6473  3.2811  0.6123
  151SAPE   H9Y16793   1.660   5.492   9.457  1.2740  1.7416  0.8703
  151SAPE  C31016794   1.506   5.480   9.317 -0.1951  0.8636 -0.5714
  151SAPE  H10X16795   1.588   5.523   9.255 -0.8533  2.2564 -0.5029
  151SAPE  H10Y16796   1.423   5.544   9.281 -1.1629  1.5488  2.5695
  151SAPE  C31116797   1.494   5.338   9.268 -0.3464 -0.0399 -0.3585
  151SAPE  H11X16798   1.411   5.291   9.325 -0.6510  0.1478 -0.6397
  151SAPE  H11Y16799   1.589   5.281   9.281  0.8882  1.8232 -0.8523
  151SAPE  C31216800   1.445   5.317   9.119  0.3646 -0.9206 -0.3351
  151SAPE  H12X16801   1.525   5.356   9.051  0.7797 -0.8372  0.1978
  151SAPE  H12Y16802   1.360   5.382   9.090  1.3040  0.2121 -0.6620
  151SAPE  C31316803   1.399   5.178   9.084  0.1471  0.1032 -0.0716
  151SAPE  H13X16804   1.317   5.157   9.156 -1.3915 -0.0422 -1.8282
  151SAPE  H13Y16805   1.484   5.108   9.101 -0.1874  0.1046  1.9143
  151SAPE  C31416806   1.356   5.167   8.944  0.3834  0.3877  0.9170
  151SAPE  H14X16807   1.441   5.193   8.877  0.5715 -2.0730  0.1090
  151SAPE  H14Y16808   1.276   5.243   8.928  0.1730 -0.1268 -0.6644
  151SAPE  C31516809   1.302   5.025   8.908  0.9600 -0.3123 -0.4936
  151SAPE  H15X16810   1.204   5.010   8.959  0.9278 -1.4145 -0.8740
  151SAPE  H15Y16811   1.370   4.946   8.945  0.1444 -1.1028 -0.6443
  151SAPE  C31616812   1.279   5.003   8.756  0.5849 -0.3153  0.9844
  151SAPE  H16X16813   1.260   4.898   8.723 -0.5962  0.5964 -1.4785
  151SAPE  H16Y16814   1.367   5.040   8.699  0.6371  0.9666  1.8578
  151SAPE  C31716815   1.158   5.089   8.695  0.2812  0.7639 -0.6230
  151SAPE  H17X16816   1.174   5.198   8.710  1.8227  0.3811  0.7883
  151SAPE  H17Y16817   1.064   5.051   8.740  1.0170 -0.0657  0.2617
  151SAPE  C31816818   1.150   5.071   8.539 -0.5924  0.0044  0.4453
  151SAPE  H18X16819   1.073   5.130   8.485 -1.4431  0.5001  2.1324
  151SAPE  H18Y16820   1.139   4.967   8.503  0.6876 -0.5728  1.6030
  151SAPE  H18Z16821   1.249   5.099   8.497 -0.2225 -0.1717  1.1722
  152SAPE     N16822   4.474   4.190  10.908 -0.1802 -0.1866 -0.2601
  152SAPE   HN116823   4.466   4.093  10.872  1.0355 -0.6727  0.7281
  152SAPE   HN216824   4.530   4.182  10.995 -1.3859  1.8089  0.7656
  152SAPE   HN316825   4.375   4.212  10.929 -0.0752  0.6448 -0.5786
  152SAPE   C1216826   4.537   4.283  10.810 -0.6396  0.0656 -0.4016
  152SAPE  H12A16827   4.648   4.281  10.819 -0.6689 -0.3756 -0.1330
  152SAPE  H12B16828   4.519   4.390  10.837 -0.0775 -0.3414  1.7876
  152SAPE   C1116829   4.494   4.252  10.666  0.3277 -0.5576  0.2284
  152SAPE  H11A16830   4.552   4.163  10.633  0.6039 -0.0645 -0.6577
  152SAPE  H11B16831   4.524   4.335  10.598  0.5701  1.4969  2.7262
  152SAPE     P16832   4.240   4.329  10.669 -0.1256 -0.0030 -0.1137
  152SAPE   O1316833   4.120   4.273  10.604 -0.5988  0.3974 -0.0578
  152SAPE   O1416834   4.217   4.361  10.812  0.0278  0.5245  0.3122
  152SAPE   O1216835   4.359   4.223  10.652  0.3280 -0.2807  0.0263
  152SAPE   O1116836   4.287   4.453  10.586 -0.0409  0.4836 -0.1671
  152SAPE    C116837   4.195   4.560  10.593 -0.2193  0.3130 -0.3520
  152SAPE    HA16838   4.124   4.563  10.679 -2.7731  1.7509 -2.3577
  152SAPE    HB16839   4.255   4.651  10.612  0.5064 -0.4897  1.4717
  152SAPE    C216840   4.107   4.571  10.468  0.2392 -0.7088  0.4444
  152SAPE    HS16841   4.045   4.479  10.472 -0.6629 -0.0853  2.6280
  152SAPE   O2116842   4.200   4.580  10.360 -0.5826 -0.6834 -0.5071
  152SAPE   C2116843   4.169   4.519  10.248 -0.0327  0.4946 -0.4231
  152SAPE   O2216844   4.073   4.442  10.237  0.5138  0.0490  0.1474
  152SAPE   C2216845   4.276   4.549  10.134  0.0676 -0.1890  0.2839
  152SAPE   H2R16846   4.326   4.648  10.141 -0.3011 -0.0217  0.6371
  152SAPE   H2S16847   4.357   4.476  10.157  0.5001  1.0935  3.2733
  152SAPE    C316848   4.005   4.690  10.472 -0.3455 -0.0267 -0.2321
  152SAPE    HX16849   4.066   4.783  10.480 -1.3978  0.9071 -2.2877
  152SAPE    HY16850   3.936   4.681  10.559 -0.6589 -2.6246 -0.6751
  152SAPE   O3116851   3.916   4.688  10.360  0.1789  0.2396  0.3397
  152SAPE   C3116852   3.828   4.595  10.351  0.9375  0.3161 -0.5020
  152SAPE   O3216853   3.804   4.502  10.433  0.5085  0.3512 -0.0904
  152SAPE   C3216854   3.754   4.610  10.217  0.2754  0.5948  0.2453
  152SAPE   H2X16855   3.685   4.697  10.221  0.1264  0.6503 -2.0527
  152SAPE   H2Y16856   3.706   4.510  10.209  2.4035 -0.3676 -1.5784
  152SAPE   C2316857   4.213   4.524   9.989  0.5500 -0.2096 -0.1029
  152SAPE   H3R16858   4.172   4.625   9.965  0.5670  0.9844  4.0818
  152SAPE   H3S16859   4.134   4.447   9.984 -1.3326  1.6858 -0.8876
  152SAPE   C2416860   4.317   4.495   9.880  0.1413  0.0325  0.3794
  152SAPE   H4R16861   4.380   4.407   9.907  0.3271 -0.0947 -0.4254
  152SAPE   H4S16862   4.388   4.581   9.876 -0.4151  0.5188  0.8282
  152SAPE   C2516863   4.272   4.477   9.736 -0.2804  0.4748 -0.4720
  152SAPE   H5R16864   4.184   4.540   9.719 -1.0567 -1.1039 -2.8222
  152SAPE   C2616865   4.328   4.398   9.639 -0.5055 -0.3936 -0.3966
  152SAPE   H6R16866   4.277   4.391   9.542  1.0079  2.1069 -1.4827
  152SAPE   C2716867   4.447   4.315   9.657 -0.5115  0.7405 -0.6327
  152SAPE   H7R16868   4.462   4.299   9.766 -0.0334  1.0074 -0.6592
  152SAPE   H7S16869   4.537   4.367   9.618  0.7892 -0.8320  0.1285
  152SAPE   C2816870   4.428   4.178   9.601 -0.3780 -0.6531 -0.3253
  152SAPE   H8R16871   4.371   4.107   9.663  0.3240 -1.1983 -0.2856
  152SAPE   C2916872   4.473   4.127   9.485  0.0734  0.0118 -0.2404
  152SAPE   H9R16873   4.458   4.021   9.462  2.5044 -0.4897  0.2878
  152SAPE  C21016874   4.550   4.203   9.378  0.2501  0.8287 -0.3376
  152SAPE  H10R16875   4.655   4.196   9.413 -0.0861 -1.6134  0.3832
  152SAPE  H10S16876   4.523   4.311   9.378 -2.2750  0.3373  2.5391
  152SAPE  C21116877   4.538   4.140   9.240 -0.1181  0.4452  0.4134
  152SAPE  H11R16878   4.511   4.033   9.243  1.1446  0.0723 -0.6225
  152SAPE  C21216879   4.562   4.202   9.121 -0.5581  0.9202 -0.4560
  152SAPE  H12R16880   4.561   4.147   9.025 -0.2419 -0.9561  0.5609
  152SAPE  C21316881   4.594   4.344   9.092  0.4674  0.8102  0.3899
  152SAPE  H13R16882   4.594   4.410   9.181  1.4223  0.5136  0.6184
  152SAPE  H13S16883   4.504   4.382   9.038  0.4494 -0.6610 -0.6657
  152SAPE  C21416884   4.724   4.361   9.011  0.3230 -0.9262 -0.1026
  152SAPE  H14R16885   4.814   4.383   9.070 -0.8720 -0.6391  1.6992
  152SAPE  C21516886   4.735   4.346   8.876  0.6730  0.3792 -0.4946
  152SAPE  H15R16887   4.834   4.373   8.837  1.4539  1.5619  2.1242
  152SAPE  C21616888   4.630   4.296   8.781 -0.6384 -0.7087  0.1965
  152SAPE  H16R16889   4.555   4.234   8.833  0.6983 -1.5597  1.1828
  152SAPE  H16S16890   4.685   4.237   8.704  0.0761 -1.9804  1.6536
  152SAPE  C21716891   4.553   4.416   8.716 -0.7763  0.2035 -0.3647
  152SAPE  H17R16892   4.629   4.478   8.664  1.6679 -2.4872 -0.2218
  152SAPE  H17S16893   4.499   4.478   8.791  1.0444  1.7690 -0.2623
  152SAPE  C21816894   4.454   4.376   8.609 -0.3776  0.1146  0.5298
  152SAPE  H18R16895   4.409   4.464   8.559 -1.4567 -0.8843 -0.3274
  152SAPE  H18S16896   4.377   4.312   8.659 -1.0165  0.1934 -0.3286
  152SAPE  C21916897   4.520   4.295   8.490 -0.6226  0.6526 -0.3029
  152SAPE  H19R16898   4.515   4.188   8.522 -3.6096  1.3765  2.1348
  152SAPE  H19S16899   4.625   4.330   8.485 -0.8303  1.8419  2.2576
  152SAPE  C22016900   4.455   4.317   8.355 -0.1973  1.6299  0.2207
  152SAPE  H20R16901   4.346   4.320   8.374 -0.5845 -0.4158 -1.3872
  152SAPE  H20S16902   4.502   4.252   8.278 -0.0820  0.6058  1.1235
  152SAPE  H20T16903   4.468   4.416   8.305 -3.2067  1.0397 -2.0056
  152SAPE   C3316904   3.854   4.630  10.102  0.2549  0.1570  0.0953
  152SAPE   H3X16905   3.922   4.543  10.089  0.1163  0.1589 -0.7031
  152SAPE   H3Y16906   3.910   4.724  10.119  0.7317  0.4053 -2.3813
  152SAPE   C3416907   3.784   4.636   9.966 -0.1573  0.2470  0.0294
  152SAPE   H4X16908   3.703   4.713   9.962 -1.1784 -0.8081 -0.1601
  152SAPE   H4Y16909   3.730   4.539   9.964 -1.5272  0.9740  0.0789
  152SAPE   C3516910   3.872   4.655   9.845  0.4077  0.2624  0.0562
  152SAPE   H5X16911   3.958   4.586   9.861  0.4074  0.1630 -0.3392
  152SAPE   H5Y16912   3.918   4.756   9.844  1.2548 -0.0870  1.4778
  152SAPE   C3616913   3.799   4.617   9.717 -0.0361 -0.2217  0.9067
  152SAPE   H6X16914   3.709   4.680   9.700 -0.6536 -1.1942  0.5265
  152SAPE   H6Y16915   3.775   4.509   9.715 -0.6119 -0.0873 -0.3535
  152SAPE   C3716916   3.889   4.627   9.586  0.6389 -0.0516 -0.2572
  152SAPE   H7X16917   3.961   4.545   9.606 -0.5582 -1.0380  0.0956
  152SAPE   H7Y16918   3.935   4.728   9.590 -2.0058  1.2694 -0.9735
  152SAPE   C3816919   3.805   4.612   9.454  0.2447  0.0219  0.1269
  152SAPE   H8X16920   3.717   4.678   9.469  0.4553  0.2221  0.4969
  152SAPE   H8Y16921   3.773   4.506   9.471 -0.0091  0.3654  2.0021
  152SAPE   C3916922   3.875   4.647   9.324  0.1496  0.3104 -0.1593
  152SAPE   H9X16923   3.968   4.587   9.317  0.4823  0.3648  2.6969
  152SAPE   H9Y16924   3.904   4.754   9.326 -1.3720  0.7354  0.9602
  152SAPE  C31016925   3.791   4.628   9.202  0.1229 -0.1962 -0.3445
  152SAPE  H10X16926   3.713   4.706   9.210 -1.0167 -1.3959  0.6190
  152SAPE  H10Y16927   3.740   4.530   9.193  4.3025 -2.6579 -0.1670
  152SAPE  C31116928   3.860   4.659   9.069  0.1460  0.5533  0.0190
  152SAPE  H11X16929   3.942   4.587   9.046  1.0018  1.7567 -0.8410
  152SAPE  H11Y16930   3.907   4.759   9.077 -0.8320  1.0100  0.1930
  152SAPE  C31216931   3.777   4.668   8.939  0.0484 -0.3589  0.4845
  152SAPE  H12X16932   3.705   4.752   8.953  0.8632  0.6162 -0.8798
  152SAPE  H12Y16933   3.715   4.577   8.927 -2.2193  1.3708 -2.1574
  152SAPE  C31316934   3.870   4.693   8.816  0.7848 -0.6599  0.1002
  152SAPE  H13X16935   3.933   4.603   8.797  0.1460 -1.0752 -0.0761
  152SAPE  H13Y16936   3.920   4.790   8.834  2.4710 -0.6415 -3.6618
  152SAPE  C31416937   3.784   4.711   8.684  0.1495 -0.7223  0.2425
  152SAPE  H14X16938   3.707   4.631   8.685 -1.4406  0.7383  1.4214
  152SAPE  H14Y16939   3.829   4.700   8.583 -2.2627 -0.6028 -0.9298
  152SAPE  C31516940   3.712   4.848   8.689 -0.2829  0.5227  0.7434
  152SAPE  H15X16941   3.786   4.929   8.670 -0.9745  0.7877 -0.9852
  152SAPE  H15Y16942   3.661   4.868   8.786 -2.2480 -1.1432  0.1128
  152SAPE  C31616943   3.608   4.875   8.579 -0.3744  0.4276 -0.7637
  152SAPE  H16X16944   3.535   4.795   8.604  2.4541 -2.1909 -0.2208
  152SAPE  H16Y16945   3.653   4.875   8.477 -0.6766  0.9149 -0.8995
  152SAPE  C31716946   3.527   4.999   8.607  0.2670 -0.5336  0.3555
  152SAPE  H17X16947   3.586   5.093   8.614  1.2920 -1.2202  1.0633
  152SAPE  H17Y16948   3.480   4.984   8.707  1.0305 -0.1794  0.7739
  152SAPE  C31816949   3.427   5.031   8.498  0.5613  0.4152  0.9631
  152SAPE  H18X16950   3.471   5.035   8.396 -0.0795  0.5127  0.6871
  152SAPE  H18Y16951   3.374   5.128   8.513  1.1089  1.0110 -0.7589
  152SAPE  H18Z16952   3.354   4.948   8.484  0.9425  0.2598 -0.2165
  153SAPE     N16953   3.490   6.496  10.952 -0.9740 -0.5253  0.0249
  153SAPE   HN116954   3.528   6.585  10.989  0.0223 -0.2018 -1.6511
  153SAPE   HN216955   3.393   6.486  10.989 -0.2324  0.5168  2.4498
  153SAPE   HN316956   3.540   6.421  11.003 -0.6441 -1.2876 -1.3611
  153SAPE   C1216957   3.504   6.481  10.801  0.4352  0.0714 -0.0602
  153SAPE  H12A16958   3.589   6.545  10.771  0.0095  1.8940  2.3374
  153SAPE  H12B16959   3.413   6.512  10.745  0.6261  1.0314  0.1452
  153SAPE   C1116960   3.526   6.338  10.769 -0.4725  0.2339 -0.2244
  153SAPE  H11A16961   3.628   6.313  10.806  0.0515  0.2420 -1.6250
  153SAPE  H11B16962   3.538   6.319  10.660  0.2948  2.4374 -0.5680
  153SAPE     P16963   3.435   6.100  10.829  0.2635  0.1186  0.0837
  153SAPE   O1316964   3.564   6.055  10.881 -0.1663 -0.2366  0.1982
  153SAPE   O1416965   3.324   6.060  10.915 -0.0380  0.8650 -0.0328
  153SAPE   O1216966   3.425   6.259  10.834 -0.2919  0.2637  0.2603
  153SAPE   O1116967   3.413   6.055  10.678  0.0410 -0.4641  0.0349
  153SAPE    C116968   3.290   6.092  10.605 -0.5689  0.6226  0.8565
  153SAPE    HA16969   3.207   6.099  10.679 -1.6280  2.0843 -0.4092
  153SAPE    HB16970   3.293   6.197  10.569  2.9747  0.4754  0.4433
  153SAPE    C216971   3.248   5.992  10.495  0.3626  0.2317  0.2666
  153SAPE    HS16972   3.295   5.898  10.530 -0.2621 -0.6961 -1.2998
  153SAPE   O2116973   3.311   6.024  10.371  0.1813  0.0891 -0.0814
  153SAPE   C2116974   3.337   5.925  10.288  0.1940 -0.2081  0.8562
  153SAPE   O2216975   3.310   5.805  10.304 -0.4738 -0.1726 -0.0983
  153SAPE   C2216976   3.410   5.992  10.174  0.7493  0.1455  0.7559
  153SAPE   H2R16977   3.379   6.098  10.165 -2.9663 -0.8680 -0.0306
  153SAPE   H2S16978   3.513   6.000  10.216  1.6161 -0.0448 -1.1719
  153SAPE    C316979   3.097   5.976  10.480 -0.2957  0.0886  0.2604
  153SAPE    HX16980   3.063   6.081  10.472 -0.4282 -0.0599 -1.4319
  153SAPE    HY16981   3.055   5.940  10.576 -0.3970 -0.4208  0.0292
  153SAPE   O3116982   3.057   5.894  10.362 -0.2066 -0.0490 -0.1454
  153SAPE   C3116983   3.000   5.770  10.397 -0.7289  0.5397  0.2780
  153SAPE   O3216984   2.981   5.733  10.511 -0.6496 -0.0314  0.1524
  153SAPE   C3216985   2.983   5.683  10.271 -0.5831  0.2606 -0.1128
  153SAPE   H2X16986   3.076   5.692  10.211 -1.9005  1.5715 -2.0790
  153SAPE   H2Y16987   2.899   5.732  10.216  0.5177  1.9668 -0.3493
  153SAPE   C2316988   3.411   5.926  10.030  0.7442  0.1853 -0.7030
  153SAPE   H3R16989   3.305   5.945  10.002 -0.7072 -2.4826  2.3177
  153SAPE   H3S16990   3.427   5.818  10.051  0.0335  0.2831  0.4370
  153SAPE   C2416991   3.517   5.982   9.935 -0.1531 -0.1812 -0.3067
  153SAPE   H4R16992   3.614   5.978   9.989  0.2072 -1.1973 -0.9919
  153SAPE   H4S16993   3.500   6.088   9.905  1.1945 -0.2257 -1.3494
  153SAPE   C2516994   3.542   5.895   9.812 -0.3707  0.1097 -0.5816
  153SAPE   H5R16995   3.632   5.832   9.823 -0.5207  0.0202  0.2553
  153SAPE   C2616996   3.463   5.878   9.707 -0.2664  0.1404 -0.3202
  153SAPE   H6R16997   3.488   5.799   9.634 -0.7513 -1.5121  1.2373
  153SAPE   C2716998   3.334   5.937   9.690 -0.5496  0.2794  0.0771
  153SAPE   H7R16999   3.326   5.988   9.591  1.5440 -1.3807 -1.0115
  153SAPE   H7S17000   3.327   6.020   9.763  0.8388 -0.2202  0.8080
  153SAPE   C2817001   3.223   5.847   9.729  0.4783  0.2663 -0.6217
  153SAPE   H8R17002   3.181   5.869   9.828  0.0732 -1.2606 -0.4335
  153SAPE   C2917003   3.147   5.764   9.650 -0.0222  0.2246 -0.1988
  153SAPE   H9R17004   3.069   5.698   9.692 -0.1540  0.4162 -0.1400
  153SAPE  C21017005   3.174   5.735   9.500 -0.0835 -0.0226 -0.4614
  153SAPE  H10R17006   3.170   5.625   9.482  1.0537 -0.0082 -0.8892
  153SAPE  H10S17007   3.279   5.761   9.473  0.3468  1.0937  2.0480
  153SAPE  C21117008   3.067   5.801   9.420  0.0194  0.1938  0.3248
  153SAPE  H11R17009   3.034   5.896   9.465 -0.4935  0.4371 -0.5548
  153SAPE  C21217010   3.009   5.761   9.302  0.0792  0.8037 -0.7436
  153SAPE  H12R17011   2.938   5.827   9.251  0.5371  1.1235 -0.9673
  153SAPE  C21317012   3.045   5.632   9.229  0.4835 -1.0666 -0.0559
  153SAPE  H13R17013   2.966   5.621   9.152 -2.0553  2.4976  1.7398
  153SAPE  H13S17014   3.021   5.551   9.301 -3.9890  0.0550  0.0166
  153SAPE  C21417015   3.184   5.629   9.166  0.6165 -0.0494 -0.5341
  153SAPE  H14R17016   3.265   5.663   9.231 -1.2542  0.1640  1.8478
  153SAPE  C21517017   3.223   5.595   9.044 -0.0954 -0.2085  1.4983
  153SAPE  H15R17018   3.328   5.609   9.012 -1.2081 -0.5141 -3.0286
  153SAPE  C21617019   3.132   5.546   8.926 -0.8503  0.2381 -0.7951
  153SAPE  H16R17020   3.024   5.552   8.951 -0.3649  1.6493  1.1573
  153SAPE  H16S17021   3.156   5.438   8.933  1.8966  0.8619  2.0986
  153SAPE  C21717022   3.168   5.601   8.788 -0.7456  0.4904 -0.1296
  153SAPE  H17R17023   3.276   5.582   8.771 -0.4227  1.9269  0.1323
  153SAPE  H17S17024   3.144   5.710   8.786 -2.7819  0.1484  1.9620
  153SAPE  C21817025   3.105   5.521   8.679  0.1446 -0.2854  0.1928
  153SAPE  H18R17026   2.997   5.507   8.700 -0.2848  1.1017 -0.9607
  153SAPE  H18S17027   3.153   5.420   8.673  0.8995 -0.0078  1.2355
  153SAPE  C21917028   3.126   5.592   8.543 -0.0191  0.3960  0.1870
  153SAPE  H19R17029   3.233   5.577   8.516 -1.0819 -1.9303 -3.5084
  153SAPE  H19S17030   3.103   5.701   8.538 -1.8361  0.0382  0.2267
  153SAPE  C22017031   3.040   5.535   8.430 -0.8488 -0.1567  0.7686
  153SAPE  H20R17032   2.951   5.601   8.420  1.0833  2.2880 -1.8987
  153SAPE  H20S17033   3.018   5.428   8.451 -1.6948 -0.4291 -1.1663
  153SAPE  H20T17034   3.085   5.540   8.328 -3.2477  2.1750 -0.3103
  153SAPE   C3317035   2.956   5.534  10.308 -0.2077 -0.4023 -0.1202
  153SAPE   H3X17036   2.847   5.523  10.322 -0.1320  1.0709  2.0551
  153SAPE   H3Y17037   3.016   5.492  10.392  2.0584 -0.3152 -1.5915
  153SAPE   C3417038   3.007   5.436  10.199 -0.0588  0.0475 -0.0270
  153SAPE   H4X17039   3.007   5.330  10.232 -3.4071 -0.8718 -2.3886
  153SAPE   H4Y17040   3.115   5.452  10.180  0.5261 -1.9752  1.2910
  153SAPE   C3517041   2.943   5.459  10.057 -0.1794  0.4582 -0.0192
  153SAPE   H5X17042   2.961   5.565  10.031  1.3076 -0.4692 -3.2983
  153SAPE   H5Y17043   2.836   5.432  10.062 -0.2167  0.2247 -1.5948
  153SAPE   C3617044   3.019   5.375   9.951  0.2971 -0.5242  0.8089
  153SAPE   H6X17045   3.009   5.267   9.974 -0.1326 -0.7179 -0.2408
  153SAPE   H6Y17046   3.124   5.410   9.951 -0.0887  0.7735 -0.7039
  153SAPE   C3717047   2.970   5.375   9.804 -0.5324  0.0646  0.6074
  153SAPE   H7X17048   2.977   5.473   9.751 -0.4410  0.5807  1.5495
  153SAPE   H7Y17049   2.864   5.343   9.804  0.0665 -2.1477  1.9999
  153SAPE   C3817050   3.047   5.276   9.710 -0.4627 -0.5577 -0.2393
  153SAPE   H8X17051   3.022   5.175   9.749 -0.8366 -0.6388 -0.6895
  153SAPE   H8Y17052   3.157   5.287   9.720 -0.6252  0.6250  0.5406
  153SAPE   C3917053   3.010   5.278   9.564 -0.2839 -0.1163 -0.4481
  153SAPE   H9X17054   3.014   5.384   9.529 -0.6572 -0.0845 -0.3951
  153SAPE   H9Y17055   2.902   5.253   9.565 -0.1161 -0.8669 -0.5560
  153SAPE  C31017056   3.097   5.186   9.479  0.4524  0.1534  0.4950
  153SAPE  H10X17057   3.083   5.079   9.507  0.9001  0.4067  1.7817
  153SAPE  H10Y17058   3.200   5.227   9.492  0.0071  2.3121 -1.9440
  153SAPE  C31117059   3.065   5.210   9.331  0.5054 -0.0137  0.2714
  153SAPE  H11X17060   3.037   5.316   9.319 -2.2739 -0.5089  1.4356
  153SAPE  H11Y17061   2.971   5.158   9.302  0.6945  0.8727 -2.1039
  153SAPE  C31217062   3.179   5.168   9.233  0.2555 -0.3875 -1.3275
  153SAPE  H12X17063   3.198   5.061   9.255 -1.4773 -0.7400 -1.4573
  153SAPE  H12Y17064   3.262   5.228   9.277  0.0542 -1.3845  0.4936
  153SAPE  C31317065   3.139   5.197   9.082  0.2785 -0.4059 -0.0342
  153SAPE  H13X17066   3.227   5.212   9.016 -0.2073 -0.5268 -0.7253
  153SAPE  H13Y17067   3.080   5.289   9.098 -1.3367 -1.3352 -0.4428
  153SAPE  C31417068   3.053   5.083   9.028  0.3857 -0.3301 -0.4646
  153SAPE  H14X17069   2.972   5.076   9.103  0.4411  3.0044  0.0930
  153SAPE  H14Y17070   3.110   4.989   9.021 -0.5931 -0.9794  0.1255
  153SAPE  C31517071   2.991   5.141   8.896  0.1182 -0.6634 -0.1798
  153SAPE  H15X17072   3.066   5.151   8.814  0.5438 -0.9720  0.1685
  153SAPE  H15Y17073   2.936   5.234   8.919  0.3101  0.2774 -3.1156
  153SAPE  C31617074   2.873   5.052   8.846 -1.1343  0.3047  0.3485
  153SAPE  H16X17075   2.806   5.103   8.773 -0.5495 -0.2690 -0.6195
  153SAPE  H16Y17076   2.817   5.010   8.932 -1.4684 -1.8220 -0.8268
  153SAPE  C31717077   2.929   4.938   8.756 -0.1142  0.3131 -0.1730
  153SAPE  H17X17078   3.024   4.911   8.806 -1.2719  0.4562  2.2892
  153SAPE  H17Y17079   2.952   4.972   8.653  0.4167 -0.3259 -0.2679
  153SAPE  C31817080   2.841   4.815   8.756  0.6186 -0.2564  0.3344
  153SAPE  H18X17081   2.812   4.786   8.859  3.2251 -0.5041  1.0915
  153SAPE  H18Y17082   2.895   4.725   8.717  0.1429 -1.0128  1.3843
  153SAPE  H18Z17083   2.758   4.830   8.684  0.6365 -0.8420  0.1852
  154SAPE     N17084   3.408   4.311  10.604  1.0430  0.3543 -0.2833
  154SAPE   HN117085   3.438   4.228  10.659 -1.0138 -0.3143 -0.0715
  154SAPE   HN217086   3.344   4.370  10.660  0.6459 -0.9655  0.6928
  154SAPE   HN317087   3.352   4.281  10.521  0.5257 -0.5646  0.3801
  154SAPE   C1217088   3.508   4.407  10.562 -0.2389  0.1093 -0.5352
  154SAPE  H12A17089   3.465   4.484  10.493  2.4248  1.1419 -1.1547
  154SAPE  H12B17090   3.595   4.363  10.509 -0.0827 -0.7671  0.4407
  154SAPE   C1117091   3.549   4.485  10.690 -0.1913  0.4833 -0.3901
  154SAPE  H11A17092   3.606   4.574  10.656  0.5216 -0.5429 -1.9783
  154SAPE  H11B17093   3.613   4.412  10.744 -1.3159 -0.4597 -0.3126
  154SAPE     P17094   3.458   4.623  10.894  0.4872  0.2713 -0.0451
  154SAPE   O1317095   3.337   4.621  10.983  0.2589  0.1497 -0.4248
  154SAPE   O1417096   3.589   4.592  10.960 -0.0856  0.4783  0.5853
  154SAPE   O1217097   3.435   4.521  10.775  0.1552 -0.3360 -0.0348
  154SAPE   O1117098   3.472   4.762  10.823 -0.7738 -0.1803  0.2592
  154SAPE    C117099   3.360   4.813  10.753  0.3446 -0.3450  0.1945
  154SAPE    HA17100   3.265   4.760  10.775  0.1559 -0.6723 -1.2804
  154SAPE    HB17101   3.342   4.917  10.787 -0.9655 -1.3619  2.8583
  154SAPE    C217102   3.386   4.818  10.600  0.2132 -0.3308 -0.2367
  154SAPE    HS17103   3.436   4.721  10.583  0.6154 -0.3327  0.8951
  154SAPE   O2117104   3.481   4.924  10.580  0.8207  0.1485  0.3730
  154SAPE   C2117105   3.581   4.901  10.497  0.6592  0.1745 -0.2876
  154SAPE   O2217106   3.587   4.800  10.432 -0.3473  0.4702 -0.1761
  154SAPE   C2217107   3.668   5.024  10.493 -0.5896 -0.0199 -0.0481
  154SAPE   H2R17108   3.612   5.110  10.452 -1.7307  0.4248  2.2902
  154SAPE   H2S17109   3.700   5.047  10.597 -0.8678 -2.3999  0.6341
  154SAPE    C317110   3.263   4.846  10.514  0.6246 -0.6160  0.3702
  154SAPE    HX17111   3.239   4.953  10.534  2.4713  0.1877 -1.4014
  154SAPE    HY17112   3.175   4.781  10.534  0.4959 -1.3533 -2.2588
  154SAPE   O3117113   3.290   4.844  10.371  0.3879  0.7296 -0.6197
  154SAPE   C3117114   3.293   4.725  10.317 -0.0445  0.6899 -0.5523
  154SAPE   O3217115   3.295   4.618  10.375  0.2373 -0.0729  0.4679
  154SAPE   C3217116   3.295   4.741  10.168  0.3200 -0.1602  0.2524
  154SAPE   H2X17117   3.379   4.809  10.142  0.2957  0.0387  0.6801
  154SAPE   H2Y17118   3.196   4.785  10.142  0.3068 -1.4452 -2.0709
  154SAPE   C2317119   3.804   4.995  10.416  0.2097  0.0305  0.0821
  154SAPE   H3R17120   3.847   4.894  10.432 -0.8840 -0.4868 -0.1364
  154SAPE   H3S17121   3.871   5.077  10.447  1.6761 -0.6356 -1.1622
  154SAPE   C2417122   3.771   5.017  10.269 -0.6637 -0.0814  0.6452
  154SAPE   H4R17123   3.729   5.120  10.262 -1.2546 -0.0970  3.1371
  154SAPE   H4S17124   3.690   4.947  10.238  2.5291 -2.8913 -2.1048
  154SAPE   C2517125   3.886   5.001  10.178  0.0573  0.6091 -0.4731
  154SAPE   H5R17126   3.981   4.976  10.229 -0.7866 -1.2432  0.2775
  154SAPE   C2617127   3.888   5.005  10.045 -0.4720  0.8018  0.1075
  154SAPE   H6R17128   3.981   4.981   9.991 -0.7665  2.0089 -0.9971
  154SAPE   C2717129   3.771   5.032   9.945  0.2406  0.4264 -0.0955
  154SAPE   H7R17130   3.676   5.062   9.994  0.8474  1.7839  0.3078
  154SAPE   H7S17131   3.742   4.943   9.886 -2.7227  0.5810  0.9647
  154SAPE   C2817132   3.813   5.146   9.850 -0.1260 -0.3475 -0.8463
  154SAPE   H8R17133   3.859   5.234   9.898  1.6558 -2.1620  0.9893
  154SAPE   C2917134   3.817   5.156   9.715  0.2278 -0.2099 -0.2379
  154SAPE   H9R17135   3.848   5.250   9.669  1.0664 -1.6543 -2.8088
  154SAPE  C21017136   3.773   5.046   9.619  0.5578  0.2913  0.8062
  154SAPE  H10R17137   3.678   5.084   9.575  1.1440  1.2724  0.3461
  154SAPE  H10S17138   3.743   4.953   9.672 -3.0110  1.3366  0.9075
  154SAPE  C21117139   3.880   5.020   9.512  0.0657  0.2416  0.7445
  154SAPE  H11R17140   3.975   4.985   9.556  0.5977  2.0662  1.1412
  154SAPE  C21217141   3.842   5.030   9.378 -0.4447  0.2630  0.4718
  154SAPE  H12R17142   3.917   5.007   9.301  0.5377  2.3991  0.7086
  154SAPE  C21317143   3.708   5.076   9.334 -0.1264  0.0938 -0.3541
  154SAPE  H13R17144   3.695   5.186   9.346  1.0715  0.1009  1.4201
  154SAPE  H13S17145   3.626   5.026   9.390  1.0999  1.6990  3.1756
  154SAPE  C21417146   3.697   5.028   9.191 -0.4055  0.8985  0.2508
  154SAPE  H14R17147   3.733   4.926   9.174 -1.5738  0.2298  1.5437
  154SAPE  C21517148   3.655   5.081   9.076 -0.0987 -0.1318  0.1680
  154SAPE  H15R17149   3.669   5.020   8.986 -0.2263  1.2180 -0.7903
  154SAPE  C21617150   3.606   5.223   9.050  0.2891  0.6579 -0.9257
  154SAPE  H16R17151   3.588   5.274   9.147 -0.3371 -1.4704  0.1496
  154SAPE  H16S17152   3.503   5.209   9.009  0.5382  0.7208 -1.5851
  154SAPE  C21717153   3.687   5.310   8.951  0.0701  0.0940  0.1600
  154SAPE  H17R17154   3.698   5.257   8.854  0.1412  1.1509 -0.4172
  154SAPE  H17S17155   3.786   5.330   8.997  0.3591 -0.2510 -0.2963
  154SAPE  C21817156   3.607   5.439   8.913 -0.0490  0.3729 -0.0240
  154SAPE  H18R17157   3.613   5.520   8.989  0.9395  0.1696  0.1301
  154SAPE  H18S17158   3.499   5.414   8.900  0.0535 -0.1078  0.0265
  154SAPE  C21917159   3.672   5.486   8.784  0.1356  0.4963  0.2638
  154SAPE  H19R17160   3.647   5.406   8.711 -1.4188 -0.5479  1.8429
  154SAPE  H19S17161   3.781   5.501   8.800  0.3289  3.6099 -2.8391
  154SAPE  C22017162   3.621   5.620   8.736  0.1493 -0.3664  0.2370
  154SAPE  H20R17163   3.620   5.686   8.826 -0.6060 -0.8954  0.6320
  154SAPE  H20S17164   3.519   5.602   8.696  0.7282 -0.2479 -1.3718
  154SAPE  H20T17165   3.694   5.662   8.664  1.0791 -1.2400  0.6317
  154SAPE   C3317166   3.296   4.611  10.085  0.1766 -0.0110 -0.0300
  154SAPE   H3X17167   3.271   4.637   9.980 -0.0137 -1.6099 -0.4176
  154SAPE   H3Y17168   3.229   4.545  10.144  0.6078 -1.0605 -0.6726
  154SAPE   C3417169   3.427   4.530  10.084 -0.5141 -0.1311 -0.1776
  154SAPE   H4X17170   3.450   4.503  10.189 -1.0585  1.6372  0.4144
  154SAPE   H4Y17171   3.515   4.589  10.049  1.4363 -1.5393  2.0677
  154SAPE   C3517172   3.417   4.406   9.988  0.0659 -0.5597 -0.9764
  154SAPE   H5X17173   3.334   4.334  10.006  0.0004 -0.0809  0.8654
  154SAPE   H5Y17174   3.511   4.350  10.009  0.1755  0.9393  3.7838
  154SAPE   C3617175   3.411   4.445   9.840 -0.3647  0.2159 -0.5483
  154SAPE   H6X17176   3.490   4.513   9.802 -1.1883  0.7238 -1.3717
  154SAPE   H6Y17177   3.313   4.496   9.828  0.1205  0.9696 -1.4450
  154SAPE   C3717178   3.420   4.324   9.744 -0.2887 -0.5755 -0.6068
  154SAPE   H7X17179   3.344   4.246   9.767 -1.8802  1.6890  2.4604
  154SAPE   H7Y17180   3.519   4.277   9.766  0.0390 -0.4740 -1.7908
  154SAPE   C3817181   3.418   4.366   9.602  0.0356  0.1989  0.3023
  154SAPE   H8X17182   3.469   4.461   9.575 -0.8748  0.2911 -1.1905
  154SAPE   H8Y17183   3.313   4.384   9.570  0.2078 -0.6477 -0.7642
  154SAPE   C3917184   3.460   4.254   9.508  0.4519  0.1264 -0.1382
  154SAPE   H9X17185   3.416   4.158   9.544 -0.6855  0.5419 -0.3864
  154SAPE   H9Y17186   3.570   4.255   9.517  0.4527  1.1040 -0.1693
  154SAPE  C31017187   3.413   4.279   9.359 -0.4197  0.0439 -1.2015
  154SAPE  H10X17188   3.470   4.368   9.325  1.5424 -0.3758  0.7520
  154SAPE  H10Y17189   3.306   4.308   9.362 -0.0588  1.4705 -1.1771
  154SAPE  C31117190   3.437   4.157   9.277 -1.2521 -0.8704  0.4827
  154SAPE  H11X17191   3.397   4.165   9.174 -0.7581 -3.9552 -0.0598
  154SAPE  H11Y17192   3.374   4.078   9.323 -2.5986 -1.1352 -1.6760
  154SAPE  C31217193   3.578   4.095   9.271  0.1352  0.2834  0.1845
  154SAPE  H12X17194   3.612   4.067   9.373  0.1225  0.9620  0.3819
  154SAPE  H12Y17195   3.644   4.180   9.244 -0.5411  0.4902 -0.8655
  154SAPE  C31317196   3.587   3.977   9.174 -0.4182  1.3665 -0.1298
  154SAPE  H13X17197   3.490   3.950   9.127  0.9820 -1.9712 -1.4196
  154SAPE  H13Y17198   3.625   3.896   9.239  0.4430  2.1191  0.3386
  154SAPE  C31417199   3.700   3.988   9.064  0.8676  0.3954  0.2080
  154SAPE  H14X17200   3.710   3.886   9.022  1.3854  0.7902 -0.6648
  154SAPE  H14Y17201   3.800   4.011   9.107  0.8534  2.1774 -0.6066
  154SAPE  C31517202   3.662   4.101   8.961 -0.4365 -1.2197 -0.3892
  154SAPE  H15X17203   3.668   4.204   9.002  0.3540 -1.1866 -0.5744
  154SAPE  H15Y17204   3.562   4.084   8.916 -1.7852  0.7911  1.6494
  154SAPE  C31617205   3.775   4.113   8.855 -0.3800 -0.3137 -0.3157
  154SAPE  H16X17206   3.779   4.014   8.805  2.2524 -0.5036  0.1287
  154SAPE  H16Y17207   3.865   4.118   8.919  0.2536 -0.6608 -1.1660
  154SAPE  C31717208   3.762   4.224   8.753 -0.5573  0.0949  0.2814
  154SAPE  H17X17209   3.851   4.220   8.686 -0.4548 -3.0626  0.4391
  154SAPE  H17Y17210   3.759   4.319   8.810 -1.6348  0.1271  0.1935
  154SAPE  C31817211   3.629   4.221   8.678  0.0319  0.5451  0.6334
  154SAPE  H18X17212   3.622   4.308   8.609 -0.2310  0.7380  0.8958
  154SAPE  H18Y17213   3.537   4.213   8.740 -0.0377 -1.9869  0.3172
  154SAPE  H18Z17214   3.622   4.126   8.622  0.4553  0.6566  0.3924
  155SAPE     N17215   5.024   0.970  10.982  0.0670 -0.6579  0.7409
  155SAPE   HN117216   4.938   1.021  10.953  2.2284  1.7629 -1.9777
  155SAPE   HN217217   5.049   1.035  11.059  0.4971  2.2068 -1.6452
  155SAPE   HN317218   5.095   0.982  10.908  0.7656 -0.8861  1.3574
  155SAPE   C1217219   5.007   0.823  11.019  0.6530 -0.7131 -0.2657
  155SAPE  H12A17220   4.948   0.811  11.112 -0.0158  0.2531 -0.5448
  155SAPE  H12B17221   5.103   0.767  11.016  1.6455  0.9129 -0.0367
  155SAPE   C1117222   4.927   0.756  10.910 -0.0737  0.3444 -0.3982
  155SAPE  H11A17223   4.955   0.771  10.804 -1.4570  0.1749 -0.8149
  155SAPE  H11B17224   4.823   0.794  10.923  0.9352  2.5837  2.2551
  155SAPE     P17225   4.869   0.502  10.845 -0.1137 -0.0942 -0.0601
  155SAPE   O1317226   4.921   0.365  10.882  0.1568 -0.4055  0.0147
  155SAPE   O1417227   4.725   0.511  10.849 -1.1713 -0.2511  0.0958
  155SAPE   O1217228   4.927   0.614  10.939  1.0099 -0.1890  0.1565
  155SAPE   O1117229   4.924   0.543  10.703  0.3200  0.0477 -0.0956
  155SAPE    C117230   5.060   0.561  10.673 -0.4076  0.4022 -0.6396
  155SAPE    HA17231   5.115   0.605  10.759 -0.7472 -0.8942  0.2812
  155SAPE    HB17232   5.106   0.463  10.649 -0.2650  1.1856 -3.9520
  155SAPE    C217233   5.063   0.641  10.544 -0.0805 -0.3521  0.5037
  155SAPE    HS17234   4.984   0.719  10.544  1.0328  0.8327 -0.6676
  155SAPE   O2117235   5.067   0.557  10.426 -0.9431 -0.3508 -0.0583
  155SAPE   C2117236   5.179   0.490  10.394 -0.3806 -0.3608  0.0790
  155SAPE   O2217237   5.279   0.474  10.465 -0.1976  0.0390  0.4296
  155SAPE   C2217238   5.154   0.427  10.250 -0.5920  0.2492 -0.1929
  155SAPE   H2R17239   5.082   0.343  10.260  1.4004 -1.5160 -0.2054
  155SAPE   H2S17240   5.105   0.501  10.183 -3.0522  1.0264  2.2236
  155SAPE    C317241   5.187   0.730  10.557  0.0562  0.1410 -0.2603
  155SAPE    HX17242   5.269   0.668  10.600  0.3060  0.5336 -0.1674
  155SAPE    HY17243   5.173   0.804  10.639 -1.8868  0.9681 -1.2687
  155SAPE   O3117244   5.235   0.806  10.445  0.2949 -0.1188  0.0930
  155SAPE   C3117245   5.156   0.910  10.411  0.4611 -0.0590  0.0530
  155SAPE   O3217246   5.073   0.956  10.483  0.0426  0.0952  0.7394
  155SAPE   C3217247   5.190   0.960  10.268  0.3852 -0.0877 -0.6989
  155SAPE   H2X17248   5.292   1.004  10.269 -0.3505  1.8998  2.3792
  155SAPE   H2Y17249   5.114   1.033  10.231 -0.4946 -1.1226 -0.9890
  155SAPE   C2317250   5.280   0.375  10.177  0.8872  0.3012  0.5556
  155SAPE   H3R17251   5.314   0.294  10.245  0.6573 -0.7165 -0.5211
  155SAPE   H3S17252   5.366   0.445  10.171  1.3264 -0.3615 -1.9087
  155SAPE   C2417253   5.254   0.313  10.040 -0.2122  0.3900 -0.0366
  155SAPE   H4R17254   5.353   0.277  10.003  0.3469 -0.2758  2.0118
  155SAPE   H4S17255   5.220   0.390   9.967 -1.9690  0.9610  1.3102
  155SAPE   C2517256   5.163   0.189  10.033 -0.4457 -0.4574 -0.2718
  155SAPE   H5R17257   5.189   0.094  10.081 -2.9639 -0.4173  1.3344
  155SAPE   C2617258   5.048   0.182   9.967 -0.4173 -0.0653 -0.6558
  155SAPE   H6R17259   5.009   0.081   9.944  0.5064 -0.2672 -1.3855
  155SAPE   C2717260   4.987   0.296   9.893 -0.3983 -0.0878  0.0036
  155SAPE   H7R17261   5.051   0.313   9.804  2.1104  0.4219  1.8066
  155SAPE   H7S17262   4.979   0.396   9.940  0.0691  0.1711 -0.4558
  155SAPE   C2817263   4.844   0.247   9.850  0.0184 -0.0967 -0.0567
  155SAPE   H8R17264   4.772   0.222   9.929 -0.0147  2.8409  0.9741
  155SAPE   C2917265   4.786   0.264   9.731  0.1068  0.1137  0.0012
  155SAPE   H9R17266   4.683   0.227   9.717  0.1512  0.0899 -0.2667
  155SAPE  C21017267   4.849   0.326   9.609 -0.3229  0.5070 -0.4244
  155SAPE  H10R17268   4.959   0.340   9.617 -0.3328  0.2879  0.1590
  155SAPE  H10S17269   4.797   0.423   9.591 -0.2698  0.6519  0.1705
  155SAPE  C21117270   4.832   0.230   9.494  0.7541 -0.1810 -0.2968
  155SAPE  H11R17271   4.897   0.141   9.489 -2.5581 -2.8909  0.8198
  155SAPE  C21217272   4.740   0.238   9.390 -0.2693  0.7533  0.2883
  155SAPE  H12R17273   4.768   0.178   9.302 -0.6912  0.0207  0.6418
  155SAPE  C21317274   4.639   0.342   9.369 -0.1921 -0.0163 -0.2747
  155SAPE  H13R17275   4.688   0.414   9.299  1.3780  0.3181  1.1048
  155SAPE  H13S17276   4.624   0.389   9.468 -1.4484 -0.0982 -0.4173
  155SAPE  C21417277   4.502   0.308   9.322 -0.2632 -0.6710 -0.5803
  155SAPE  H14R17278   4.431   0.285   9.403  0.6681  1.8400  1.0530
  155SAPE  C21517279   4.446   0.300   9.200 -0.3658  0.0700  0.2818
  155SAPE  H15R17280   4.340   0.273   9.192  0.0821 -1.5502 -0.7900
  155SAPE  C21617281   4.523   0.341   9.073  0.2605  0.9233 -0.4759
  155SAPE  H16R17282   4.517   0.261   8.996  2.1992  0.2406  0.0074
  155SAPE  H16S17283   4.633   0.333   9.091  0.0156  0.2529  0.8633
  155SAPE  C21717284   4.507   0.487   9.039 -0.1429 -0.3237 -0.2739
  155SAPE  H17R17285   4.595   0.515   8.978  1.0360  1.0883  1.9091
  155SAPE  H17S17286   4.533   0.544   9.131 -1.1160 -3.4273  2.1103
  155SAPE  C21817287   4.369   0.518   8.973  0.0036 -0.2983  0.0630
  155SAPE  H18R17288   4.286   0.526   9.047  0.5283 -2.1693  0.9209
  155SAPE  H18S17289   4.343   0.438   8.901  0.4843 -0.8114  0.4544
  155SAPE  C21917290   4.381   0.650   8.893 -0.6469 -0.5640 -0.5118
  155SAPE  H19R17291   4.475   0.654   8.835  0.9633  1.9114  2.0376
  155SAPE  H19S17292   4.397   0.730   8.968 -0.2429  0.4090 -1.6127
  155SAPE  C22017293   4.273   0.682   8.789 -0.9220 -0.3709  0.6789
  155SAPE  H20R17294   4.315   0.767   8.731 -0.2432 -1.1964 -0.0568
  155SAPE  H20S17295   4.178   0.716   8.835 -1.2862 -0.3277 -0.0941
  155SAPE  H20T17296   4.259   0.592   8.726  1.9147 -0.9162  0.7131
  155SAPE   C3317297   5.190   0.842  10.162 -0.7901  0.2798 -1.2838
  155SAPE   H3X17298   5.105   0.775  10.186 -0.5569  0.8356  1.5317
  155SAPE   H3Y17299   5.282   0.781  10.177 -0.9925  0.2839  0.1150
  155SAPE   C3417300   5.185   0.883  10.022 -0.7523  0.0578  0.0075
  155SAPE   H4X17301   5.288   0.909   9.992 -0.3522 -0.7542  0.6468
  155SAPE   H4Y17302   5.117   0.971  10.023  0.1931  0.8130 -0.6953
  155SAPE   C3517303   5.138   0.770   9.932  0.1451  0.9440 -0.1945
  155SAPE   H5X17304   5.028   0.765   9.940 -0.0587  1.7650 -2.0828
  155SAPE   H5Y17305   5.178   0.668   9.949  0.5126  0.4044 -3.6027
  155SAPE   C3617306   5.168   0.792   9.785  0.1322  0.2230 -0.0136
  155SAPE   H6X17307   5.275   0.804   9.761  0.0265  1.8185  0.2324
  155SAPE   H6Y17308   5.123   0.891   9.762 -0.9303  0.1185  1.4082
  155SAPE   C3717309   5.089   0.692   9.691  0.0652  0.1593 -0.1587
  155SAPE   H7X17310   4.981   0.698   9.715  0.0103 -0.9216 -0.1084
  155SAPE   H7Y17311   5.137   0.592   9.696  0.7121  0.5102  1.5311
  155SAPE   C3817312   5.093   0.741   9.553 -0.4115 -0.9660  0.0739
  155SAPE   H8X17313   5.191   0.718   9.504 -1.4373 -3.4594 -0.9686
  155SAPE   H8Y17314   5.058   0.844   9.533 -1.1845 -1.4021 -0.8912
  155SAPE   C3917315   4.999   0.656   9.468  0.4319  0.0980  0.7850
  155SAPE   H9X17316   4.897   0.685   9.502 -0.0899  1.1451 -1.5237
  155SAPE   H9Y17317   5.003   0.546   9.483  0.8800  0.1221  0.8612
  155SAPE  C31017318   5.014   0.690   9.321  0.4284 -0.4150 -0.6062
  155SAPE  H10X17319   5.121   0.686   9.288  0.7270  0.0041  0.2848
  155SAPE  H10Y17320   4.991   0.798   9.316 -0.8533 -0.6461  0.0171
  155SAPE  C31117321   4.932   0.595   9.232  0.0302 -1.1395 -0.8620
  155SAPE  H11X17322   4.825   0.604   9.260  0.4727 -0.7691  0.8233
  155SAPE  H11Y17323   4.953   0.489   9.254 -0.8806 -1.1772 -0.0855
  155SAPE  C31217324   4.962   0.611   9.084  0.1116  0.1162 -0.0555
  155SAPE  H12X17325   4.881   0.546   9.044 -0.6177  1.1829 -0.3351
  155SAPE  H12Y17326   5.061   0.566   9.062 -0.4908  0.1508 -3.3389
  155SAPE  C31317327   4.955   0.758   9.028  0.4368  1.2771 -0.1105
  155SAPE  H13X17328   5.033   0.827   9.069  0.8789  0.6299  0.1614
  155SAPE  H13Y17329   4.857   0.793   9.067 -0.7245 -3.3537  1.7633
  155SAPE  C31417330   4.950   0.748   8.874 -0.0106  0.1378 -0.7712
  155SAPE  H14X17331   4.857   0.698   8.840  0.3708 -1.2079  0.0845
  155SAPE  H14Y17332   5.040   0.684   8.858  0.1023 -0.1405  0.7970
  155SAPE  C31517333   4.956   0.891   8.807  0.5450 -0.1681 -0.2262
  155SAPE  H15X17334   5.017   0.957   8.872 -2.3117  0.6320  1.8098
  155SAPE  H15Y17335   4.854   0.934   8.811  1.3111  1.6407  1.2571
  155SAPE  C31617336   5.019   0.886   8.673 -0.1006 -0.3451  0.0729
  155SAPE  H16X17337   5.115   0.830   8.678 -1.1162 -2.0807  1.5505
  155SAPE  H16Y17338   5.037   0.988   8.633 -0.2733 -0.0899  0.6321
  155SAPE  C31717339   4.927   0.809   8.573 -0.3869 -0.3785 -0.0169
  155SAPE  H17X17340   4.830   0.863   8.573  0.0291  0.4628 -1.8750
  155SAPE  H17Y17341   4.912   0.706   8.610 -1.7449 -0.5019 -0.8471
  155SAPE  C31817342   4.985   0.799   8.430  0.1441  0.1001 -0.7910
  155SAPE  H18X17343   5.075   0.735   8.418  0.8692  1.1719 -1.2486
  155SAPE  H18Y17344   4.997   0.901   8.388 -0.1995  0.2687 -0.4834
  155SAPE  H18Z17345   4.905   0.757   8.365  1.2651 -1.8227 -0.9927
  156SAPE     N17346   2.393   3.972  10.763 -0.5515 -0.5954 -0.1327
  156SAPE   HN117347   2.344   4.051  10.716 -2.4624 -0.8015  1.3731
  156SAPE   HN217348   2.414   3.885  10.710  2.4823 -1.9908  2.9673
  156SAPE   HN317349   2.338   3.952  10.849  2.0338  1.8118  2.2788
  156SAPE   C1217350   2.526   4.035  10.810 -0.2252  0.1772 -0.1001
  156SAPE  H12A17351   2.578   3.960  10.873 -0.4075 -0.1865 -0.3785
  156SAPE  H12B17352   2.497   4.106  10.891  0.0067 -1.4790  1.4988
  156SAPE   C1117353   2.613   4.089  10.697 -0.0501 -0.4670 -0.4185
  156SAPE  H11A17354   2.717   4.117  10.727 -0.7041  1.0388  0.5533
  156SAPE  H11B17355   2.578   4.192  10.678 -0.2487  0.4324  3.7698
  156SAPE     P17356   2.716   3.923  10.526  0.0233 -0.4248  0.1912
  156SAPE   O1317357   2.845   3.973  10.575  0.3099  0.4698  0.2637
  156SAPE   O1417358   2.674   3.787  10.560 -0.0516  0.2518  0.1770
  156SAPE   O1217359   2.604   4.023  10.570  0.5258 -0.3798  0.3632
  156SAPE   O1117360   2.706   3.951  10.370  1.0014  0.1865  0.0328
  156SAPE    C117361   2.711   3.838  10.285  0.5362  0.4102  0.5600
  156SAPE    HA17362   2.633   3.764  10.313  0.5792  0.4318  0.7376
  156SAPE    HB17363   2.675   3.875  10.187 -2.0332 -1.9009  0.5239
  156SAPE    C217364   2.851   3.777  10.273  0.0655  0.4306 -1.1310
  156SAPE    HS17365   2.863   3.724  10.370  1.4303  1.2040 -0.8467
  156SAPE   O2117366   2.953   3.877  10.263 -0.0228 -0.0140  0.3390
  156SAPE   C2117367   3.073   3.833  10.291  0.5294 -0.0620  0.2701
  156SAPE   O2217368   3.099   3.725  10.338 -0.6947 -0.3758 -0.4744
  156SAPE   C2217369   3.175   3.942  10.266  0.0012  0.1526  0.0300
  156SAPE   H2R17370   3.147   3.994  10.172  1.0833 -0.5484 -0.7105
  156SAPE   H2S17371   3.171   4.021  10.343 -0.1590 -0.1785  0.3618
  156SAPE    C317372   2.856   3.665  10.161 -0.3710 -0.9876 -0.6474
  156SAPE    HX17373   2.788   3.584  10.196 -0.0335 -0.7336  0.6348
  156SAPE    HY17374   2.962   3.635  10.152  0.3112  1.5117 -1.7392
  156SAPE   O3117375   2.815   3.729  10.036  0.6922 -0.2056  0.3389
  156SAPE   C3117376   2.913   3.752   9.948  0.8680 -0.2849  0.3338
  156SAPE   O3217377   3.028   3.722   9.961  0.3621  0.1396  0.2864
  156SAPE   C3217378   2.861   3.824   9.817 -0.1663 -0.0180 -0.1252
  156SAPE   H2X17379   2.946   3.812   9.746  1.0279 -0.1500  1.2804
  156SAPE   H2Y17380   2.837   3.931   9.837  0.0217  0.0807 -0.4166
  156SAPE   C2317381   3.315   3.883  10.250 -0.7211  0.1025 -0.3802
  156SAPE   H3R17382   3.351   3.823  10.337  0.1267  0.3502 -0.5520
  156SAPE   H3S17383   3.385   3.968  10.237  0.0889 -0.3063  1.0976
  156SAPE   C2417384   3.329   3.809  10.121 -0.3072  0.7923 -0.2290
  156SAPE   H4R17385   3.284   3.867  10.038  2.9902  1.4247 -1.7535
  156SAPE   H4S17386   3.271   3.715  10.129 -2.0131  1.9059  1.2481
  156SAPE   C2517387   3.473   3.770  10.093  0.4098  0.4118 -0.0578
  156SAPE   H5R17388   3.520   3.724  10.181  2.3742  0.4111 -1.0634
  156SAPE   C2617389   3.534   3.765   9.973 -0.1315 -0.2347 -0.0692
  156SAPE   H6R17390   3.640   3.737   9.969 -0.4599 -1.4556 -0.5576
  156SAPE   C2717391   3.474   3.827   9.845  0.0043 -0.3995 -0.0023
  156SAPE   H7R17392   3.495   3.936   9.858 -0.8946 -0.1260 -0.7145
  156SAPE   H7S17393   3.363   3.825   9.841  0.0038  0.7798 -1.2924
  156SAPE   C2817394   3.522   3.778   9.711 -0.3712  0.2441 -0.1569
  156SAPE   H8R17395   3.609   3.831   9.670 -0.1600  0.6722  0.8146
  156SAPE   C2917396   3.467   3.681   9.632  0.3438 -0.4874 -1.0595
  156SAPE   H9R17397   3.521   3.666   9.538  3.0413  0.6995  0.1996
  156SAPE  C21017398   3.339   3.600   9.652 -0.0324  0.2475  0.1370
  156SAPE  H10R17399   3.336   3.568   9.758 -1.3718 -1.1502 -0.3055
  156SAPE  H10S17400   3.336   3.508   9.590  1.0683  1.9741 -2.7460
  156SAPE  C21117401   3.214   3.676   9.626 -1.2910  1.0649  0.2614
  156SAPE  H11R17402   3.173   3.719   9.718 -1.1875  2.2669 -0.2346
  156SAPE  C21217403   3.152   3.701   9.507 -0.0824  0.3439 -0.0320
  156SAPE  H12R17404   3.071   3.775   9.511  0.8252  1.6983 -3.5557
  156SAPE  C21317405   3.199   3.660   9.370 -0.3193 -0.2911  0.0951
  156SAPE  H13R17406   3.122   3.591   9.328 -0.8149  0.4515 -0.2434
  156SAPE  H13S17407   3.295   3.604   9.373  0.4038  0.6575 -2.3334
  156SAPE  C21417408   3.217   3.784   9.280  0.2246 -0.1838 -0.0922
  156SAPE  H14R17409   3.254   3.874   9.330  1.0483 -0.4877 -0.1400
  156SAPE  C21517410   3.189   3.796   9.153 -0.0639  0.2457  0.0133
  156SAPE  H15R17411   3.219   3.888   9.102 -0.9852  0.0546 -0.9110
  156SAPE  C21617412   3.121   3.685   9.063 -0.9722 -0.2368 -0.3191
  156SAPE  H16R17413   3.117   3.587   9.116 -2.8242 -0.2251 -0.3717
  156SAPE  H16S17414   3.194   3.661   8.982 -1.8045 -0.3398 -1.0567
  156SAPE  C21717415   2.987   3.712   9.003  1.0890 -0.4459 -0.1752
  156SAPE  H17R17416   2.922   3.751   9.084  0.8953  0.6450 -0.8297
  156SAPE  H17S17417   2.954   3.614   8.964  3.2129 -0.8813 -1.0351
  156SAPE  C21817418   2.975   3.819   8.890  0.0523  0.0064 -0.1512
  156SAPE  H18R17419   3.044   3.797   8.806  1.3084  2.3794  0.2037
  156SAPE  H18S17420   3.006   3.922   8.914 -1.1502  0.8178 -1.8199
  156SAPE  C21917421   2.826   3.834   8.837 -0.0434  0.4026 -0.4383
  156SAPE  H19R17422   2.769   3.917   8.884  1.7827  0.9378  0.9027
  156SAPE  H19S17423   2.778   3.735   8.851  0.2728  0.2995 -0.0876
  156SAPE  C22017424   2.827   3.850   8.689 -0.6951  0.1316  0.5116
  156SAPE  H20R17425   2.886   3.768   8.642  0.6480  0.5741  1.3591
  156SAPE  H20S17426   2.883   3.942   8.661 -0.6353  0.2622  1.0609
  156SAPE  H20T17427   2.724   3.857   8.648 -0.2381  1.3202 -0.5030
  156SAPE   C3317428   2.739   3.758   9.750  0.1263  0.3494  0.0267
  156SAPE   H3X17429   2.696   3.826   9.674  1.2851  0.7269 -0.3166
  156SAPE   H3Y17430   2.660   3.763   9.828 -0.7930  1.4839 -0.9240
  156SAPE   C3417431   2.772   3.611   9.708  0.3179  0.6653 -0.0652
  156SAPE   H4X17432   2.802   3.559   9.801 -1.4891 -0.3963 -0.0142
  156SAPE   H4Y17433   2.867   3.622   9.651  0.9088 -0.5487  0.6536
  156SAPE   C3517434   2.665   3.547   9.620 -0.7437 -0.0832 -0.5549
  156SAPE   H5X17435   2.560   3.554   9.653 -1.1670 -0.0190 -1.8683
  156SAPE   H5Y17436   2.701   3.443   9.607  0.8162  0.2410  0.7167
  156SAPE   C3617437   2.666   3.615   9.474  0.7001 -0.7740 -0.3180
  156SAPE   H6X17438   2.772   3.618   9.443  0.4689  3.6124 -1.2864
  156SAPE   H6Y17439   2.630   3.720   9.476  0.8116 -0.7403  1.1101
  156SAPE   C3717440   2.576   3.535   9.378  0.1486 -0.6064  0.9114
  156SAPE   H7X17441   2.472   3.547   9.418 -2.0883 -0.7031 -4.1300
  156SAPE   H7Y17442   2.593   3.426   9.375 -3.2175 -1.2076 -0.6102
  156SAPE   C3817443   2.586   3.577   9.227  0.0643 -0.0000  0.0650
  156SAPE   H8X17444   2.581   3.688   9.221 -0.8000  0.0175  0.9893
  156SAPE   H8Y17445   2.496   3.538   9.174 -0.0614  1.0077 -0.5074
  156SAPE   C3917446   2.706   3.524   9.152 -1.1498  0.1421  0.5356
  156SAPE   H9X17447   2.802   3.566   9.189 -1.3108  3.1405 -2.0462
  156SAPE   H9Y17448   2.689   3.556   9.047 -0.3868  0.5341  0.5181
  156SAPE  C31017449   2.735   3.373   9.143  0.7445 -0.1320  0.3443
  156SAPE  H10X17450   2.641   3.319   9.121  0.2706  1.0547 -0.6499
  156SAPE  H10Y17451   2.771   3.338   9.242  0.1365  0.0666  0.6380
  156SAPE  C31117452   2.838   3.330   9.030 -0.0002  0.2274  0.6137
  156SAPE  H11X17453   2.858   3.221   9.027  0.1725  0.2787 -0.4126
  156SAPE  H11Y17454   2.938   3.374   9.050  1.3351 -1.9535 -0.8395
  156SAPE  C31217455   2.797   3.367   8.886 -0.1205 -0.6213  0.5301
  156SAPE  H12X17456   2.883   3.351   8.818  0.9176  2.8956  0.8372
  156SAPE  H12Y17457   2.787   3.477   8.884 -2.2757 -0.7768  0.0410
  156SAPE  C31317458   2.667   3.304   8.838 -0.7671 -0.6556 -0.2260
  156SAPE  H13X17459   2.591   3.353   8.902  0.0813 -0.9428  1.0484
  156SAPE  H13Y17460   2.676   3.193   8.848  0.4761 -0.5937 -0.4926
  156SAPE  C31417461   2.642   3.328   8.695 -0.1815 -0.8294  0.2841
  156SAPE  H14X17462   2.587   3.245   8.646 -0.4367 -0.6286  0.2261
  156SAPE  H14Y17463   2.739   3.321   8.642 -1.0828 -0.8900 -1.4527
  156SAPE  C31517464   2.572   3.469   8.665 -0.1734  0.1132  0.1485
  156SAPE  H15X17465   2.577   3.492   8.556  0.0275 -1.0543 -0.1044
  156SAPE  H15Y17466   2.627   3.548   8.721 -1.8527  0.6538  1.0866
  156SAPE  C31617467   2.428   3.467   8.715 -1.0689  0.3356  0.2574
  156SAPE  H16X17468   2.427   3.440   8.822  1.9737  1.5461  0.6997
  156SAPE  H16Y17469   2.374   3.385   8.662  0.9410 -0.5485 -0.5310
  156SAPE  C31717470   2.366   3.603   8.712  0.7032 -0.3197  0.2076
  156SAPE  H17X17471   2.261   3.600   8.749  0.6343 -0.6829 -0.0153
  156SAPE  H17Y17472   2.355   3.629   8.604  0.0071 -2.6534 -0.3240
  156SAPE  C31817473   2.434   3.703   8.804 -0.9044 -0.5823 -0.1894
  156SAPE  H18X17474   2.463   3.641   8.892  2.6637  1.1258 -0.0027
  156SAPE  H18Y17475   2.362   3.783   8.831 -1.2922 -0.0570 -2.5145
  156SAPE  H18Z17476   2.525   3.743   8.754 -2.1342 -0.0592 -2.1116
  157SAPE     N17477   1.537   4.473  10.857 -0.8870 -0.0853  0.6097
  157SAPE   HN117478   1.596   4.445  10.776  0.4038 -1.0579  1.8484
  157SAPE   HN217479   1.455   4.410  10.868  0.1546 -1.6541 -0.1502
  157SAPE   HN317480   1.497   4.569  10.852  0.9092  0.7490  1.3090
  157SAPE   C1217481   1.642   4.470  10.971  0.7471  0.2717  0.4927
  157SAPE  H12A17482   1.595   4.477  11.071  1.9183 -0.4898  1.1279
  157SAPE  H12B17483   1.711   4.558  10.968  0.0001  0.8694  0.5975
  157SAPE   C1117484   1.733   4.348  10.972  0.7227  0.0495  0.0738
  157SAPE  H11A17485   1.672   4.257  10.991 -0.9255  1.0582 -0.1599
  157SAPE  H11B17486   1.792   4.372  11.063  0.2718  1.0158  0.1214
  157SAPE     P17487   1.933   4.233  10.847 -0.4202  0.0436  0.3356
  157SAPE   O1317488   2.040   4.269  10.936 -0.9237  0.1372 -0.9095
  157SAPE   O1417489   1.874   4.096  10.854  0.3512 -0.1915  0.0410
  157SAPE   O1217490   1.816   4.343  10.857  0.1769 -0.5035 -0.4906
  157SAPE   O1117491   1.987   4.258  10.699  0.2957 -0.4717 -0.1540
  157SAPE    C117492   1.894   4.264  10.586 -0.9536  1.1605  0.1573
  157SAPE    HA17493   1.802   4.322  10.612  0.4548  3.0740  1.1005
  157SAPE    HB17494   1.942   4.326  10.508 -0.1362 -2.6243 -2.6512
  157SAPE    C217495   1.877   4.116  10.525 -0.2959 -0.4791 -0.0780
  157SAPE    HS17496   1.838   4.051  10.606 -0.3866 -1.1525 -0.6512
  157SAPE   O2117497   1.999   4.074  10.458  0.0041  0.1519  0.0966
  157SAPE   C2117498   2.050   3.964  10.499 -0.1653  0.2087  0.6875
  157SAPE   O2217499   2.003   3.882  10.577  0.3785  0.0655 -0.7444
  157SAPE   C2217500   2.185   3.942  10.422  0.3568  0.6635  0.0866
  157SAPE   H2R17501   2.242   4.036  10.408  2.5758 -0.7214 -0.7488
  157SAPE   H2S17502   2.244   3.871  10.484  2.4059  2.0290 -0.1990
  157SAPE    C317503   1.770   4.107  10.422  0.9327 -0.2101  0.5714
  157SAPE    HX17504   1.796   4.165  10.332  0.3916  0.1729  0.6603
  157SAPE    HY17505   1.680   4.158  10.464  2.4322  1.6101  1.7193
  157SAPE   O3117506   1.754   3.977  10.381 -0.1513 -0.0222  0.4446
  157SAPE   C3117507   1.681   3.899  10.456  0.5478  0.4095  0.4338
  157SAPE   O3217508   1.597   3.934  10.539  0.1306  0.6820  0.2130
  157SAPE   C3217509   1.711   3.753  10.417  0.1939 -0.5160  0.1550
  157SAPE   H2X17510   1.612   3.706  10.400 -0.1395 -0.3969  1.6196
  157SAPE   H2Y17511   1.763   3.712  10.505  0.0576  0.5922  0.7689
  157SAPE   C2317512   2.163   3.881  10.280 -0.7415 -0.1116 -0.7175
  157SAPE   H3R17513   2.090   3.942  10.224  0.8386  0.2702 -2.4792
  157SAPE   H3S17514   2.124   3.778  10.295  1.1774 -1.1878 -2.5460
  157SAPE   C2417515   2.296   3.872  10.205 -0.3447  0.1112  0.4426
  157SAPE   H4R17516   2.287   3.804  10.118 -1.2830  2.7803 -1.6874
  157SAPE   H4S17517   2.363   3.811  10.269  0.2483 -1.4505 -1.5514
  157SAPE   C2517518   2.362   4.005  10.155  0.1406  0.9356 -0.0264
  157SAPE   H5R17519   2.408   4.073  10.228  3.0078  0.0942 -0.9332
  157SAPE   C2617520   2.349   4.038  10.026 -0.1745 -0.2216  0.0352
  157SAPE   H6R17521   2.388   4.135   9.992  0.9801 -1.2569 -1.7810
  157SAPE   C2717522   2.280   3.960   9.918 -0.5720 -0.0963 -0.2030
  157SAPE   H7R17523   2.208   4.031   9.871  2.0616  2.9735  0.0010
  157SAPE   H7S17524   2.216   3.881   9.962 -1.4190  1.1242  0.8346
  157SAPE   C2817525   2.366   3.868   9.830  0.6251 -0.3811  0.3393
  157SAPE   H8R17526   2.451   3.824   9.884  0.0353  1.1499  2.7260
  157SAPE   C2917527   2.348   3.836   9.694 -0.0583  0.0811 -0.2126
  157SAPE   H9R17528   2.419   3.765   9.649  2.4322  2.3842 -0.2135
  157SAPE  C21017529   2.230   3.882   9.614 -0.0083  0.2622  0.3765
  157SAPE  H10R17530   2.146   3.922   9.675 -2.7856 -3.0216 -0.9683
  157SAPE  H10S17531   2.179   3.786   9.592  0.2371  0.4717 -1.2404
  157SAPE  C21117532   2.257   3.963   9.487 -0.3253  0.3683  0.6521
  157SAPE  H11R17533   2.336   4.039   9.496 -2.1817  2.3333  1.0786
  157SAPE  C21217534   2.196   3.965   9.367  0.5417 -0.3181 -0.5269
  157SAPE  H12R17535   2.235   4.022   9.282 -1.3689  0.0682 -1.1890
  157SAPE  C21317536   2.077   3.887   9.331 -1.2683  0.8163  0.0408
  157SAPE  H13R17537   1.999   3.959   9.298 -1.8519  1.2741  2.2339
  157SAPE  H13S17538   2.028   3.844   9.421 -1.3243 -1.1569 -0.8731
  157SAPE  C21417539   2.092   3.774   9.226 -0.2506 -0.0283  0.5492
  157SAPE  H14R17540   2.196   3.745   9.203  0.3290  2.9702 -1.1381
  157SAPE  C21517541   1.985   3.701   9.185  0.2949  0.1106  0.4073
  157SAPE  H15R17542   1.993   3.625   9.106 -0.1675 -1.3444  1.7028
  157SAPE  C21617543   1.839   3.726   9.222 -0.0796 -0.1024 -0.6558
  157SAPE  H16R17544   1.838   3.780   9.319  1.4475  1.2921 -1.3719
  157SAPE  H16S17545   1.791   3.626   9.230  0.7029 -0.4617 -0.3136
  157SAPE  C21717546   1.760   3.820   9.128 -0.0790 -0.1587 -0.2164
  157SAPE  H17R17547   1.809   3.820   9.028 -1.2192  2.0730 -0.8570
  157SAPE  H17S17548   1.766   3.920   9.176 -1.6077  0.0430 -0.3915
  157SAPE  C21817549   1.615   3.773   9.126  0.4512  0.2123  0.2811
  157SAPE  H18R17550   1.571   3.748   9.226 -0.4746 -0.5808 -0.3029
  157SAPE  H18S17551   1.614   3.672   9.079 -0.0237  0.4337 -0.1912
  157SAPE  C21917552   1.511   3.867   9.065  0.0323 -0.3738 -0.0686
  157SAPE  H19R17553   1.508   3.859   8.954 -0.5580  2.4255 -0.3242
  157SAPE  H19S17554   1.536   3.971   9.096 -0.9737 -0.3726  0.8055
  157SAPE  C22017555   1.372   3.841   9.122  0.5683  0.2726 -0.3072
  157SAPE  H20R17556   1.302   3.918   9.083 -0.4296 -0.2856  0.3529
  157SAPE  H20S17557   1.367   3.845   9.233 -0.4268 -0.5162 -0.3100
  157SAPE  H20T17558   1.321   3.748   9.088 -0.3040 -0.9204  3.7683
  157SAPE   C3317559   1.810   3.739  10.291 -0.3061 -0.1015 -0.7910
  157SAPE   H3X17560   1.832   3.631  10.284 -1.1043 -0.3315  0.0879
  157SAPE   H3Y17561   1.909   3.783  10.314 -0.4888 -0.3701  0.5754
  157SAPE   C3417562   1.748   3.792  10.162  0.6357 -0.1068 -0.5248
  157SAPE   H4X17563   1.717   3.898  10.174 -2.4754 -0.8043 -1.5350
  157SAPE   H4Y17564   1.659   3.728  10.146  1.1698 -1.0236  0.0995
  157SAPE   C3517565   1.823   3.761  10.037 -0.4305  0.3186 -0.0050
  157SAPE   H5X17566   1.842   3.651  10.036 -1.3156  0.1533 -0.5646
  157SAPE   H5Y17567   1.919   3.816  10.044  0.3745 -1.2859  2.9022
  157SAPE   C3617568   1.765   3.801   9.903  0.2989  0.3941 -0.3887
  157SAPE   H6X17569   1.742   3.908   9.921  0.6538  0.3543  0.3096
  157SAPE   H6Y17570   1.669   3.754   9.871  0.8038  0.2957 -1.8768
  157SAPE   C3717571   1.862   3.789   9.788 -0.1613  0.3048  1.0729
  157SAPE   H7X17572   1.884   3.683   9.761 -0.6386  0.8222 -1.6763
  157SAPE   H7Y17573   1.958   3.839   9.814  0.2843 -0.0845  0.2428
  157SAPE   C3817574   1.827   3.862   9.652  0.8271 -0.2346  0.2753
  157SAPE   H8X17575   1.733   3.819   9.613  0.8626  1.0237 -1.3086
  157SAPE   H8Y17576   1.908   3.849   9.577  1.0358 -3.5684  0.9510
  157SAPE   C3917577   1.797   4.010   9.672  0.5540 -0.0104  0.1326
  157SAPE   H9X17578   1.880   4.045   9.737  0.6160  0.3718 -0.1503
  157SAPE   H9Y17579   1.694   4.016   9.713 -0.6603 -0.2524 -2.6339
  157SAPE  C31017580   1.785   4.094   9.542  0.8554 -0.6703 -0.5602
  157SAPE  H10X17581   1.873   4.089   9.474 -0.2152  0.2975 -2.0868
  157SAPE  H10Y17582   1.782   4.199   9.578  1.3286 -0.9934  0.4730
  157SAPE  C31117583   1.669   4.056   9.456 -0.8565  0.5037  0.0343
  157SAPE  H11X17584   1.581   4.062   9.524 -0.3603 -0.3051  0.7888
  157SAPE  H11Y17585   1.693   3.949   9.437 -0.2007  0.6329  0.1251
  157SAPE  C31217586   1.655   4.142   9.333 -0.3628 -0.2085  0.3250
  157SAPE  H12X17587   1.588   4.097   9.256  2.8357 -0.2476 -2.7059
  157SAPE  H12Y17588   1.755   4.141   9.284  0.1757 -0.0219  1.4058
  157SAPE  C31317589   1.617   4.287   9.378  0.2902  0.6764 -0.8203
  157SAPE  H13X17590   1.714   4.324   9.416  1.4871 -2.5761 -0.3851
  157SAPE  H13Y17591   1.544   4.281   9.461 -1.9613  1.1846 -2.6657
  157SAPE  C31417592   1.560   4.370   9.260  0.3312 -0.0973  0.0094
  157SAPE  H14X17593   1.456   4.337   9.236  0.9977 -0.9170 -1.9582
  157SAPE  H14Y17594   1.621   4.349   9.170 -0.8141 -1.0411 -0.5706
  157SAPE  C31517595   1.549   4.524   9.291 -0.2874  0.4079 -0.2971
  157SAPE  H15X17596   1.648   4.574   9.293  0.4876 -1.0125 -1.4182
  157SAPE  H15Y17597   1.493   4.525   9.387  1.7826 -0.5603  0.9861
  157SAPE  C31617598   1.478   4.603   9.175 -0.1513 -0.3427  0.1584
  157SAPE  H16X17599   1.380   4.555   9.152  0.8050 -2.6348  0.5396
  157SAPE  H16Y17600   1.547   4.588   9.089  0.2055  1.7789  0.0172
  157SAPE  C31717601   1.465   4.757   9.199 -0.3278 -0.2315 -0.6346
  157SAPE  H17X17602   1.455   4.812   9.104 -0.7322  0.6036 -0.1168
  157SAPE  H17Y17603   1.558   4.800   9.241 -1.1402 -0.2224  1.2570
  157SAPE  C31817604   1.355   4.789   9.294  0.2347 -0.0584  0.2740
  157SAPE  H18X17605   1.313   4.892   9.294  0.2033 -0.0696  0.6098
  157SAPE  H18Y17606   1.377   4.777   9.402  0.0699  0.6361  0.3907
  157SAPE  H18Z17607   1.278   4.714   9.268 -0.0216  0.6297 -1.0534
  158SAPE     N17608   2.208   5.193  10.681  0.1782 -0.2394 -0.3538
  158SAPE   HN117609   2.166   5.258  10.611  1.1031  0.5399 -0.2034
  158SAPE   HN217610   2.303   5.235  10.692 -0.8103  1.6486  1.9654
  158SAPE   HN317611   2.187   5.097  10.646 -1.9013  0.7141 -1.9718
  158SAPE   C1217612   2.143   5.206  10.814 -0.0356 -0.7505 -0.1674
  158SAPE  H12A17613   2.146   5.311  10.848  3.1993 -0.6908 -0.3735
  158SAPE  H12B17614   2.196   5.143  10.888  1.4646 -0.9392 -1.3656
  158SAPE   C1117615   2.002   5.156  10.802  0.0740  0.1470 -0.0493
  158SAPE  H11A17616   1.943   5.213  10.726 -2.3294 -2.8007 -0.6027
  158SAPE  H11B17617   1.953   5.171  10.900  0.6353  1.8151  0.0046
  158SAPE     P17618   1.962   4.904  10.860 -0.0955  0.7059 -0.1542
  158SAPE   O1317619   2.048   4.918  10.982 -0.3222  0.1142  0.6021
  158SAPE   O1417620   1.821   4.887  10.888 -0.8002  0.0685  0.2435
  158SAPE   O1217621   1.996   5.020  10.761 -0.3494 -0.4581  0.3434
  158SAPE   O1117622   2.009   4.779  10.784 -0.4393  0.0378 -0.5378
  158SAPE    C117623   2.127   4.760  10.705  0.0885 -0.9501 -0.1927
  158SAPE    HA17624   2.198   4.845  10.715 -0.9963  0.1795 -1.7191
  158SAPE    HB17625   2.178   4.668  10.742  0.6868 -0.7762 -0.5713
  158SAPE    C217626   2.110   4.726  10.557 -0.0714 -0.3870  0.1933
  158SAPE    HS17627   2.208   4.707  10.507 -1.3419 -1.3316 -2.0934
  158SAPE   O2117628   2.030   4.822  10.488 -0.0421  0.0323  0.7418
  158SAPE   C2117629   2.091   4.936  10.456  0.5118  0.1590  0.3806
  158SAPE   O2217630   2.200   4.978  10.492  0.8615 -0.4209 -0.1441
  158SAPE   C2217631   1.992   5.009  10.358  0.1468  0.7893 -0.0847
  158SAPE   H2R17632   1.900   5.026  10.418 -0.1758 -2.5022  0.5502
  158SAPE   H2S17633   2.044   5.103  10.328 -0.9178  1.4382  0.0518
  158SAPE    C317634   2.044   4.583  10.547 -0.1226 -0.8717  0.3811
  158SAPE    HX17635   1.955   4.572  10.614 -1.0625  1.2766 -0.4372
  158SAPE    HY17636   2.119   4.515  10.593 -0.5774 -1.3590  0.4213
  158SAPE   O3117637   1.995   4.558  10.412 -0.4263  0.0357  0.0221
  158SAPE   C3117638   2.086   4.483  10.339  0.3581  0.4565  0.0165
  158SAPE   O3217639   2.196   4.459  10.385  0.7338  0.4956  0.8450
  158SAPE   C3217640   2.029   4.437  10.208  0.2167 -0.2024 -0.1782
  158SAPE   H2X17641   2.106   4.476  10.138  1.1399  0.7147  1.2690
  158SAPE   H2Y17642   1.929   4.480  10.188  0.6343  0.2596 -1.3919
  158SAPE   C2317643   1.957   4.925  10.231 -0.0826 -0.8955  0.0310
  158SAPE   H3R17644   1.901   4.986  10.157  1.6819  1.9613  0.8918
  158SAPE   H3S17645   1.893   4.837  10.254  0.4790 -1.6539 -1.1563
  158SAPE   C2417646   2.081   4.869  10.154  0.2428 -0.3180 -0.0902
  158SAPE   H4R17647   2.136   4.799  10.220 -0.6799  0.5327  1.6686
  158SAPE   H4S17648   2.150   4.953  10.132  3.5097 -2.2872  1.8776
  158SAPE   C2517649   2.035   4.783  10.041 -0.7771 -0.0932  0.2469
  158SAPE   H5R17650   1.981   4.692  10.073 -1.5032 -0.7542 -2.6377
  158SAPE   C2617651   2.064   4.796   9.912 -0.5574  0.4308  0.0466
  158SAPE   H6R17652   2.009   4.726   9.847 -0.4633 -0.0506  0.4780
  158SAPE   C2717653   2.134   4.908   9.852 -1.0502 -0.0544 -0.2308
  158SAPE   H7R17654   2.101   4.995   9.913  2.3197  0.3973  1.1674
  158SAPE   H7S17655   2.109   4.920   9.744  1.2897  0.6691 -0.7489
  158SAPE   C2817656   2.281   4.904   9.868 -0.4218 -0.4084 -0.0897
  158SAPE   H8R17657   2.313   4.926   9.971  2.4351 -0.2732 -0.9151
  158SAPE   C2917658   2.369   4.873   9.771  0.2854  0.6021  0.3110
  158SAPE   H9R17659   2.477   4.884   9.788  0.7065  3.3034 -2.9380
  158SAPE  C21017660   2.329   4.833   9.629 -0.1281  0.7885  0.6288
  158SAPE  H10R17661   2.323   4.925   9.566  1.1986  1.1542  0.9994
  158SAPE  H10S17662   2.229   4.786   9.644  0.2097  0.8042  3.5228
  158SAPE  C21117663   2.423   4.726   9.575  0.5527 -0.2311  0.6273
  158SAPE  H11R17664   2.498   4.685   9.645  2.2622 -2.4464 -2.2632
  158SAPE  C21217665   2.437   4.680   9.451  0.0202 -0.7190  0.9874
  158SAPE  H12R17666   2.522   4.614   9.430  1.5644  1.1101  1.2023
  158SAPE  C21317667   2.363   4.727   9.326  0.7926  0.5906  0.2192
  158SAPE  H13R17668   2.309   4.821   9.347 -1.2008 -0.8351  1.7866
  158SAPE  H13S17669   2.281   4.658   9.297 -0.4167  2.7549 -1.8901
  158SAPE  C21417670   2.462   4.751   9.216 -0.2153 -0.1709 -0.4113
  158SAPE  H14R17671   2.555   4.804   9.239  0.1689 -0.8423 -0.3841
  158SAPE  C21517672   2.448   4.710   9.086  0.2189  0.1246 -0.1615
  158SAPE  H15R17673   2.534   4.740   9.024  2.2337  0.3253  2.5257
  158SAPE  C21617674   2.332   4.631   9.022  0.1406  0.0002  0.4504
  158SAPE  H16R17675   2.241   4.629   9.086  1.7130  0.3717  2.8307
  158SAPE  H16S17676   2.365   4.525   9.012 -2.6473 -1.0227  1.3046
  158SAPE  C21717677   2.285   4.658   8.875  0.3932  0.0271  0.3900
  158SAPE  H17R17678   2.370   4.675   8.806 -0.4969  1.9025 -0.3135
  158SAPE  H17S17679   2.231   4.755   8.878  0.6591  0.3024 -1.7852
  158SAPE  C21817680   2.204   4.537   8.824  0.2972 -0.1066 -0.4111
  158SAPE  H18R17681   2.130   4.516   8.904 -0.0310  0.9155 -0.4223
  158SAPE  H18S17682   2.259   4.443   8.808 -1.0466 -0.8462 -0.8555
  158SAPE  C21917683   2.130   4.562   8.702  0.8600  0.3359  0.5390
  158SAPE  H19R17684   2.202   4.588   8.621  3.4187  1.1858  2.9167
  158SAPE  H19S17685   2.066   4.651   8.716  1.1987  0.7059 -0.2493
  158SAPE  C22017686   2.043   4.447   8.654 -0.0376  0.0660 -0.3595
  158SAPE  H20R17687   2.105   4.357   8.631  0.3621 -0.0755  1.1654
  158SAPE  H20S17688   1.987   4.466   8.561 -2.1976 -2.0052  0.4080
  158SAPE  H20T17689   1.972   4.406   8.730  0.4667  1.2273  0.7687
  158SAPE   C3317690   2.020   4.287  10.193  0.0486  0.3842  0.0806
  158SAPE   H3X17691   1.965   4.224  10.266  0.5754 -0.5242 -0.2898
  158SAPE   H3Y17692   2.118   4.242  10.222 -0.8905 -0.5454  2.0281
  158SAPE   C3417693   1.976   4.241  10.059 -0.2738  0.1170 -1.0426
  158SAPE   H4X17694   2.007   4.135  10.044  1.1583  0.1314  1.3053
  158SAPE   H4Y17695   2.031   4.298   9.981 -2.2258 -0.1685 -2.6855
  158SAPE   C3517696   1.820   4.237  10.034  0.2218  0.7361 -0.9043
  158SAPE   H5X17697   1.778   4.307  10.109  1.1140  1.6963 -1.2727
  158SAPE   H5Y17698   1.786   4.135  10.060 -3.1216  2.6376  3.3851
  158SAPE   C3617699   1.778   4.287   9.899 -0.0471 -0.0913  0.0211
  158SAPE   H6X17700   1.672   4.256   9.891 -0.6250  1.7021  0.2730
  158SAPE   H6Y17701   1.836   4.230   9.822 -0.1770 -0.5888  0.2869
  158SAPE   C3717702   1.793   4.444   9.883 -0.7962 -0.1522  0.2291
  158SAPE   H7X17703   1.899   4.476   9.875 -0.2788 -2.1441 -1.4899
  158SAPE   H7Y17704   1.753   4.492   9.975  1.8113  1.7205  0.4990
  158SAPE   C3817705   1.717   4.490   9.762  0.3328  0.4702  0.2414
  158SAPE   H8X17706   1.613   4.471   9.795  0.8013 -1.8967  0.4810
  158SAPE   H8Y17707   1.744   4.435   9.669  1.8603  0.3519  0.7281
  158SAPE   C3917708   1.737   4.645   9.726  0.3932 -0.3641 -0.5219
  158SAPE   H9X17709   1.833   4.654   9.671  0.4524 -1.0547 -0.5511
  158SAPE   H9Y17710   1.756   4.699   9.821  1.0836 -0.4361 -0.6134
  158SAPE  C31017711   1.614   4.700   9.657 -0.0172  0.0658 -0.3754
  158SAPE  H10X17712   1.585   4.624   9.582 -2.5306  0.4172  0.1645
  158SAPE  H10Y17713   1.627   4.795   9.600  0.0218 -0.3876 -1.1442
  158SAPE  C31117714   1.493   4.725   9.751  0.8856  0.6669 -1.0632
  158SAPE  H11X17715   1.523   4.813   9.812  0.9771  0.8847 -1.4200
  158SAPE  H11Y17716   1.497   4.648   9.831  1.9396  1.7722 -0.0100
  158SAPE  C31217717   1.349   4.730   9.697 -0.0740  0.1934 -0.5198
  158SAPE  H12X17718   1.351   4.802   9.613  2.6815  1.2003  0.3025
  158SAPE  H12Y17719   1.275   4.756   9.776  1.8727  4.2181  0.1946
  158SAPE  C31317720   1.306   4.588   9.647  0.0400 -0.7309  1.2087
  158SAPE  H13X17721   1.299   4.516   9.731 -1.7870  0.2845  1.9970
  158SAPE  H13Y17722   1.397   4.559   9.590 -0.5221  1.0725 -0.7304
  158SAPE  C31417723   1.176   4.601   9.570  0.6465 -0.3263  0.2156
  158SAPE  H14X17724   1.195   4.680   9.494 -1.5102  2.1993  2.0855
  158SAPE  H14Y17725   1.086   4.621   9.633 -1.1705 -1.7136 -1.8167
  158SAPE  C31517726   1.149   4.481   9.479 -0.8231  0.8563 -1.0013
  158SAPE  H15X17727   1.101   4.395   9.529  2.6574 -0.2804  0.6405
  158SAPE  H15Y17728   1.249   4.446   9.444 -0.0584 -0.3393  2.0994
  158SAPE  C31617729   1.057   4.521   9.362  0.5280 -0.5068  0.2679
  158SAPE  H16X17730   1.083   4.613   9.306 -0.3081 -1.8880 -2.5818
  158SAPE  H16Y17731   0.960   4.548   9.407  0.5051  0.0173 -0.0852
  158SAPE  C31717732   1.036   4.407   9.255 -0.0163  0.4192 -0.2787
  158SAPE  H17X17733   1.135   4.389   9.210  0.0774 -1.2795  0.5349
  158SAPE  H17Y17734   0.975   4.445   9.170  1.8625 -0.0606 -1.8927
  158SAPE  C31817735   0.971   4.277   9.303  0.5743  0.9231  0.5539
  158SAPE  H18X17736   1.012   4.231   9.396 -0.3294 -0.8419  0.1390
  158SAPE  H18Y17737   0.974   4.199   9.224 -0.5939 -0.8485  2.1786
  158SAPE  H18Z17738   0.862   4.291   9.317  0.5020  1.5379 -0.5402
  159SAPE     N17739   2.953   2.781   6.360 -0.0870 -0.6229 -0.0130
  159SAPE   HN117740   3.017   2.822   6.289 -1.8246  0.9633 -0.7484
  159SAPE   HN217741   2.898   2.704   6.316 -0.4013 -0.1377 -0.4905
  159SAPE   HN317742   2.882   2.856   6.368  1.6578  1.5344 -2.6486
  159SAPE   C1217743   3.012   2.742   6.487 -0.0069  0.4729 -0.1528
  159SAPE  H12A17744   2.939   2.684   6.547  1.7047 -1.3937  0.1935
  159SAPE  H12B17745   3.033   2.832   6.548 -3.1404  1.1339  0.1457
  159SAPE   C1117746   3.126   2.649   6.452  0.0509  0.2927  0.0478
  159SAPE  H11A17747   3.191   2.645   6.543  1.1664 -0.5303 -0.7545
  159SAPE  H11B17748   3.187   2.701   6.375 -1.7578  2.9328  0.2817
  159SAPE     P17749   3.074   2.395   6.477 -0.8409 -0.2093  0.0840
  159SAPE   O1317750   2.933   2.359   6.483 -0.3785 -0.4270  0.1174
  159SAPE   O1417751   3.163   2.298   6.410  0.0477 -0.2068 -0.1839
  159SAPE   O1217752   3.079   2.527   6.396 -0.4680  0.4350  0.2768
  159SAPE   O1117753   3.124   2.433   6.619  0.0532 -0.1265  0.2004
  159SAPE    C117754   3.035   2.485   6.716  0.8267  0.1669  0.2769
  159SAPE    HA17755   3.067   2.590   6.730 -0.4852  0.6395 -0.1204
  159SAPE    HB17756   2.931   2.496   6.679  0.4528  1.4797  1.6291
  159SAPE    C217757   3.042   2.406   6.846  0.3812 -0.8076  0.1721
  159SAPE    HS17758   2.971   2.452   6.919 -3.4081 -0.7282 -3.2639
  159SAPE   O2117759   3.175   2.404   6.906 -0.0341 -0.2568 -0.1391
  159SAPE   C2117760   3.216   2.514   6.976  0.1778  0.1078  1.1034
  159SAPE   O2217761   3.163   2.624   6.980 -0.0029 -0.2299 -0.9811
  159SAPE   C2217762   3.339   2.491   7.056 -0.5084  0.0098  0.3883
  159SAPE   H2R17763   3.333   2.399   7.117  2.9538 -1.4704 -1.2391
  159SAPE   H2S17764   3.432   2.478   6.996 -2.0122 -3.0032 -1.5334
  159SAPE    C317765   2.992   2.262   6.832 -0.7161 -0.1138  0.2793
  159SAPE    HX17766   3.049   2.202   6.759 -0.3020 -0.3418  0.7832
  159SAPE    HY17767   2.888   2.260   6.792 -0.0501  1.3628 -1.7168
  159SAPE   O3117768   2.997   2.204   6.967  0.3637  0.1761 -0.0230
  159SAPE   C3117769   2.892   2.227   7.041  0.0521 -0.1243  0.4638
  159SAPE   O3217770   2.785   2.263   6.998 -0.0363 -0.1416 -0.1785
  159SAPE   C3217771   2.922   2.201   7.188  0.4200  0.2830 -0.0503
  159SAPE   H2X17772   2.996   2.270   7.235  1.6099 -2.6699  2.7484
  159SAPE   H2Y17773   2.959   2.098   7.205  1.5573  0.8195  0.9078
  159SAPE   C2317774   3.378   2.616   7.144  0.8758 -0.7218  0.2752
  159SAPE   H3R17775   3.287   2.656   7.194  1.4110 -0.5394  1.1224
  159SAPE   H3S17776   3.419   2.698   7.082 -0.0433  0.9085  1.7444
  159SAPE   C2417777   3.471   2.573   7.257 -0.1891 -0.4680  0.0658
  159SAPE   H4R17778   3.556   2.523   7.206 -0.7105 -2.0625  0.6851
  159SAPE   H4S17779   3.425   2.500   7.327  0.1933 -2.0808 -1.3234
  159SAPE   C2517780   3.514   2.701   7.330  0.1833  0.9611  0.1323
  159SAPE   H5R17781   3.523   2.785   7.259  0.1167 -0.6317 -1.8472
  159SAPE   C2617782   3.531   2.728   7.459 -0.4433  0.6280 -0.5706
  159SAPE   H6R17783   3.547   2.836   7.475  0.9287  0.7154 -2.2671
  159SAPE   C2717784   3.515   2.638   7.579 -0.3809  0.5140 -0.3842
  159SAPE   H7R17785   3.498   2.537   7.536 -2.3036  0.8746 -0.5778
  159SAPE   H7S17786   3.424   2.679   7.629  0.2343  1.2268  0.1708
  159SAPE   C2817787   3.639   2.643   7.662 -0.1371 -0.5056 -0.0207
  159SAPE   H8R17788   3.737   2.650   7.612 -0.8601  0.8768 -1.3358
  159SAPE   C2917789   3.652   2.646   7.796  0.3323  0.4226  0.5066
  159SAPE   H9R17790   3.753   2.635   7.840  0.3393 -1.4985  0.0738
  159SAPE  C21017791   3.534   2.658   7.894 -0.2356 -0.4066 -0.9262
  159SAPE  H10R17792   3.543   2.589   7.980 -2.9017 -0.9958 -1.0260
  159SAPE  H10S17793   3.441   2.630   7.840 -1.2399  0.5532  0.2606
  159SAPE  C21117794   3.523   2.803   7.936 -0.0994  0.8678  0.4701
  159SAPE  H11R17795   3.570   2.877   7.869  0.3490  0.1903  0.0275
  159SAPE  C21217796   3.490   2.849   8.058 -0.2420 -0.5262 -0.0478
  159SAPE  H12R17797   3.470   2.956   8.071  0.3220 -0.2899 -1.0070
  159SAPE  C21317798   3.445   2.765   8.181 -0.1582 -0.6248 -0.6291
  159SAPE  H13R17799   3.426   2.660   8.149  1.8186 -1.4329  0.6418
  159SAPE  H13S17800   3.348   2.808   8.214 -0.2289 -0.1528 -1.4326
  159SAPE  C21417801   3.549   2.768   8.291 -0.2868  0.4378  0.5578
  159SAPE  H14R17802   3.633   2.699   8.269  1.8553  2.8731  0.6412
  159SAPE  C21517803   3.551   2.851   8.396  0.6121  0.1676  0.3868
  159SAPE  H15R17804   3.640   2.851   8.460 -0.1771 -1.0529  1.5400
  159SAPE  C21617805   3.444   2.949   8.427 -0.2464 -0.3200 -0.3571
  159SAPE  H16R17806   3.367   2.896   8.486 -0.5481 -1.0409 -1.3642
  159SAPE  H16S17807   3.398   2.997   8.339  0.9941  2.6476  0.5071
  159SAPE  C21717808   3.512   3.063   8.502  0.2808 -0.5080  0.1294
  159SAPE  H17R17809   3.540   3.028   8.604  0.0007 -1.6747 -0.1918
  159SAPE  H17S17810   3.439   3.144   8.523  0.6243  0.0392 -0.7030
  159SAPE  C21817811   3.636   3.128   8.437  0.0901  0.4743 -0.0615
  159SAPE  H18R17812   3.600   3.165   8.339 -1.8288 -0.1291  0.3573
  159SAPE  H18S17813   3.717   3.054   8.423  1.5208  2.0439 -0.3794
  159SAPE  C21917814   3.688   3.239   8.526 -0.2612  0.8608  0.4648
  159SAPE  H19R17815   3.597   3.297   8.551 -1.4577 -0.4689 -0.5903
  159SAPE  H19S17816   3.755   3.296   8.458  0.4498  0.5538  0.9011
  159SAPE  C22017817   3.755   3.193   8.649 -0.0263 -0.1237 -0.3168
  159SAPE  H20R17818   3.680   3.134   8.705  0.7732 -1.9382 -1.1068
  159SAPE  H20S17819   3.790   3.279   8.710  0.0617 -1.2200  1.2144
  159SAPE  H20T17820   3.849   3.135   8.639  0.1264  0.3791 -2.4373
  159SAPE   C3317821   2.797   2.225   7.286  0.2530  0.6714 -1.2419
  159SAPE   H3X17822   2.715   2.152   7.265 -0.7809  0.5946  2.3444
  159SAPE   H3Y17823   2.763   2.330   7.275 -0.6036  1.1035  3.5147
  159SAPE   C3417824   2.842   2.199   7.432 -0.0856  0.9068 -0.0526
  159SAPE   H4X17825   2.913   2.274   7.471  0.3087  0.8405 -0.6281
  159SAPE   H4Y17826   2.898   2.104   7.444 -3.3056 -1.0159  1.1155
  159SAPE   C3517827   2.717   2.177   7.525 -0.2190 -0.0219 -0.0060
  159SAPE   H5X17828   2.656   2.085   7.517  1.0273 -0.8540 -0.2733
  159SAPE   H5Y17829   2.647   2.260   7.503 -0.1726 -0.3308 -1.3990
  159SAPE   C3617830   2.751   2.195   7.671  0.1175 -0.1637  1.3411
  159SAPE   H6X17831   2.762   2.306   7.674 -0.3980 -0.0162 -0.5905
  159SAPE   H6Y17832   2.847   2.147   7.701 -0.8205 -2.0549  1.4236
  159SAPE   C3717833   2.635   2.166   7.772 -0.8440 -0.0787  0.2444
  159SAPE   H7X17834   2.574   2.080   7.737  0.3750  0.1235 -2.7235
  159SAPE   H7Y17835   2.564   2.252   7.772  0.8515  1.3971  0.2082
  159SAPE   C3817836   2.704   2.143   7.904 -0.0107 -0.1362  0.7524
  159SAPE   H8X17837   2.793   2.208   7.913  1.4242 -1.4747 -2.2221
  159SAPE   H8Y17838   2.741   2.039   7.897 -4.1879 -1.7389 -0.7015
  159SAPE   C3917839   2.612   2.178   8.020 -0.0479  0.2268  0.4207
  159SAPE   H9X17840   2.523   2.111   8.014  0.3108 -0.1346 -1.7445
  159SAPE   H9Y17841   2.588   2.286   8.009 -0.2953  0.0865 -0.5316
  159SAPE  C31017842   2.678   2.156   8.157 -0.4605  0.3616  0.1014
  159SAPE  H10X17843   2.765   2.225   8.159 -0.2043  0.0235  1.3512
  159SAPE  H10Y17844   2.721   2.053   8.164 -0.5642  0.0977 -2.2233
  159SAPE  C31117845   2.575   2.192   8.271  0.3043  0.6614  1.5835
  159SAPE  H11X17846   2.505   2.106   8.275  0.3381  0.4867 -0.5142
  159SAPE  H11Y17847   2.518   2.285   8.249  0.3415  0.7796  1.9791
  159SAPE  C31217848   2.641   2.201   8.406  0.1857  0.2399  0.2787
  159SAPE  H12X17849   2.556   2.196   8.478  1.2037 -2.0508  1.4176
  159SAPE  H12Y17850   2.691   2.299   8.421  0.2923  0.2930 -0.4025
  159SAPE  C31317851   2.737   2.097   8.455 -0.3646  1.0282  1.0582
  159SAPE  H13X17852   2.841   2.120   8.423 -0.5710  2.2500  1.2051
  159SAPE  H13Y17853   2.715   2.008   8.392  1.1141  1.7647 -0.5728
  159SAPE  C31417854   2.732   2.066   8.606  0.4910 -0.0989  0.3358
  159SAPE  H14X17855   2.739   2.164   8.659  2.3468  0.3378 -0.6510
  159SAPE  H14Y17856   2.832   2.020   8.618  1.0963  1.0961 -0.0574
  159SAPE  C31517857   2.608   1.982   8.650  0.5298 -0.5194  0.3348
  159SAPE  H15X17858   2.616   1.876   8.617 -0.7422  0.0693 -2.0885
  159SAPE  H15Y17859   2.515   2.028   8.611  2.1598  2.4808 -0.3183
  159SAPE  C31617860   2.600   1.991   8.803  0.1744  0.2345 -0.6659
  159SAPE  H16X17861   2.617   2.095   8.836 -2.6282  0.0150  1.9324
  159SAPE  H16Y17862   2.678   1.932   8.856  0.1790  1.2660  0.5355
  159SAPE  C31717863   2.460   1.963   8.864 -0.1572  0.0770  0.1813
  159SAPE  H17X17864   2.424   1.860   8.846 -0.9385 -0.1546  2.6950
  159SAPE  H17Y17865   2.396   2.035   8.809  0.2999  0.4705  0.1599
  159SAPE  C31817866   2.458   1.985   9.013 -0.2344 -0.4608 -0.7827
  159SAPE  H18X17867   2.539   1.925   9.060 -2.5411 -1.9947  1.5599
  159SAPE  H18Y17868   2.369   1.936   9.059  1.0229 -2.0438  0.0429
  159SAPE  H18Z17869   2.468   2.093   9.039  0.0218  0.1549 -3.2163
  160SAPE     N17870   0.996   3.395   6.653  0.5042 -0.0137  0.6281
  160SAPE   HN117871   0.975   3.329   6.730 -0.0971  0.3157  0.7589
  160SAPE   HN217872   1.008   3.490   6.695 -1.5883  0.7270 -0.2534
  160SAPE   HN317873   0.910   3.385   6.595  2.5893 -1.6877 -2.3918
  160SAPE   C1217874   1.109   3.354   6.566 -0.2334  0.3510 -0.5473
  160SAPE  H12A17875   1.070   3.280   6.493  1.4709  1.1451 -2.3550
  160SAPE  H12B17876   1.192   3.305   6.621  0.1768 -0.0168 -1.4758
  160SAPE   C1117877   1.175   3.470   6.482 -0.3943 -0.0138 -0.7545
  160SAPE  H11A17878   1.089   3.521   6.435 -0.6333 -0.2175 -0.5361
  160SAPE  H11B17879   1.243   3.431   6.403 -0.7089 -2.0467 -0.1023
  160SAPE     P17880   1.342   3.668   6.502 -0.3387 -0.1221  0.2312
  160SAPE   O1317881   1.425   3.598   6.409  0.2606 -0.5638  0.7407
  160SAPE   O1417882   1.270   3.785   6.453  0.8029  0.1629  0.5923
  160SAPE   O1217883   1.239   3.568   6.564  0.5754 -1.0176 -0.3619
  160SAPE   O1117884   1.426   3.703   6.629 -0.3567 -0.1571 -0.3238
  160SAPE    C117885   1.427   3.618   6.745  0.2178  0.2420  0.0870
  160SAPE    HA17886   1.383   3.517   6.732  0.3859  0.2412 -0.5063
  160SAPE    HB17887   1.536   3.603   6.765  0.4810  2.5563  0.6299
  160SAPE    C217888   1.356   3.674   6.875 -0.1667  0.3457  0.3915
  160SAPE    HS17889   1.250   3.690   6.849  0.2570  0.3619 -1.4619
  160SAPE   O2117890   1.424   3.782   6.930  0.2927  0.1636 -0.1737
  160SAPE   C2117891   1.358   3.845   7.028  0.4346 -0.3881  0.0130
  160SAPE   O2217892   1.245   3.817   7.063  0.6788 -0.3678  0.4681
  160SAPE   C2217893   1.447   3.949   7.098 -0.4144  0.3854  0.1951
  160SAPE   H2R17894   1.518   3.887   7.156 -2.7588 -1.7458  1.0090
  160SAPE   H2S17895   1.509   4.000   7.022 -0.4657 -0.3155 -0.3363
  160SAPE    C317896   1.364   3.561   6.983 -0.0402 -0.4348  0.1060
  160SAPE    HX17897   1.320   3.470   6.938  1.0214  0.5191 -3.1283
  160SAPE    HY17898   1.295   3.589   7.066 -0.8870 -3.7982  0.6723
  160SAPE   O3117899   1.504   3.548   7.023 -0.5543 -0.1857 -0.2934
  160SAPE   C3117900   1.561   3.420   7.015 -0.3470 -0.2497 -0.5426
  160SAPE   O3217901   1.517   3.319   6.959 -0.3359 -0.5703 -0.2663
  160SAPE   C3217902   1.705   3.424   7.073 -1.0635  0.4198 -0.7350
  160SAPE   H2X17903   1.683   3.467   7.173 -1.3256 -1.8309  0.2178
  160SAPE   H2Y17904   1.762   3.493   7.007 -0.9674  0.1362 -0.9455
  160SAPE   C2317905   1.394   4.046   7.203  0.2409 -0.3296  0.0528
  160SAPE   H3R17906   1.292   4.080   7.175 -0.3115 -0.8583  1.3452
  160SAPE   H3S17907   1.451   4.140   7.219 -1.3302  0.3306  2.2733
  160SAPE   C2417908   1.394   3.983   7.346 -0.9845 -0.5723  0.1651
  160SAPE   H4R17909   1.500   3.960   7.371 -0.9630 -1.5009 -0.7085
  160SAPE   H4S17910   1.350   3.881   7.337 -0.1676 -0.7890 -2.0076
  160SAPE   C2517911   1.336   4.069   7.455  0.2621  0.3662 -0.6497
  160SAPE   H5R17912   1.311   4.165   7.408 -2.1992 -0.8325 -1.9664
  160SAPE   C2617913   1.306   4.034   7.577  0.5980 -0.0244  0.1905
  160SAPE   H6R17914   1.265   4.122   7.629  0.8392  1.3812 -1.8875
  160SAPE   C2717915   1.318   3.906   7.650 -0.3372  0.0006 -0.0885
  160SAPE   H7R17916   1.396   3.916   7.728  0.3980  0.2071 -0.8285
  160SAPE   H7S17917   1.346   3.825   7.579 -0.2576 -2.6086  2.7206
  160SAPE   C2817918   1.176   3.872   7.697 -0.0534 -0.3747  0.4527
  160SAPE   H8R17919   1.110   3.837   7.616 -1.4711 -1.3790  1.9918
  160SAPE   C2917920   1.138   3.871   7.826  0.3875 -0.0394 -0.3810
  160SAPE   H9R17921   1.039   3.839   7.862  0.6806 -0.1086  0.3805
  160SAPE  C21017922   1.229   3.908   7.942  0.1040 -0.3467 -0.4852
  160SAPE  H10R17923   1.322   3.852   7.919 -1.3206 -1.9548 -2.7961
  160SAPE  H10S17924   1.192   3.863   8.036 -2.0057 -0.1944 -1.1954
  160SAPE  C21117925   1.253   4.055   7.944 -0.7135 -0.3799  0.7646
  160SAPE  H11R17926   1.217   4.110   7.856  1.0857  0.4254  0.4928
  160SAPE  C21217927   1.319   4.125   8.036  0.5474  0.4478 -0.0091
  160SAPE  H12R17928   1.317   4.235   8.034  2.8789  0.5441  0.6302
  160SAPE  C21317929   1.376   4.061   8.164  0.1058 -0.2934 -0.2675
  160SAPE  H13R17930   1.482   4.092   8.166 -0.5738  2.2820  1.0090
  160SAPE  H13S17931   1.367   3.951   8.156  0.2293 -0.3655  0.5649
  160SAPE  C21417932   1.305   4.111   8.284  0.1918 -0.5849 -0.2918
  160SAPE  H14R17933   1.216   4.048   8.300  1.5212 -2.5560 -0.2800
  160SAPE  C21517934   1.337   4.221   8.356  0.6437  0.1247 -0.1485
  160SAPE  H15R17935   1.266   4.251   8.435 -1.3596  1.3738 -2.3151
  160SAPE  C21617936   1.455   4.311   8.331  0.3438  0.2261  0.0498
  160SAPE  H16R17937   1.412   4.403   8.286  1.5162  0.4557 -0.6334
  160SAPE  H16S17938   1.520   4.277   8.248  0.4459 -0.6012  0.4602
  160SAPE  C21717939   1.538   4.361   8.452 -0.0498 -0.1502 -0.1471
  160SAPE  H17R17940   1.618   4.432   8.421 -1.5506  1.3569 -0.7384
  160SAPE  H17S17941   1.589   4.276   8.502  1.2891 -0.2074 -1.5306
  160SAPE  C21817942   1.447   4.427   8.561 -0.5418  0.8100  0.8235
  160SAPE  H18R17943   1.396   4.345   8.615  1.1412  0.5364  2.0811
  160SAPE  H18S17944   1.366   4.494   8.523  0.6122  1.3959 -0.6901
  160SAPE  C21917945   1.510   4.502   8.674 -0.5923 -0.2576 -0.5011
  160SAPE  H19R17946   1.429   4.557   8.726  1.3497 -0.3428  2.8584
  160SAPE  H19S17947   1.587   4.570   8.631 -0.5609  0.2473  0.3442
  160SAPE  C22017948   1.596   4.430   8.774  0.2337  0.3569  0.1688
  160SAPE  H20R17949   1.677   4.375   8.720  1.3992  0.0015  2.1762
  160SAPE  H20S17950   1.538   4.352   8.827 -1.3021 -0.0334 -1.9173
  160SAPE  H20T17951   1.652   4.498   8.841  1.0411  0.7989 -0.9189
  160SAPE   C3317952   1.776   3.292   7.078 -0.4542  0.6820  0.7082
  160SAPE   H3X17953   1.883   3.320   7.089  0.2262 -2.0138  1.5391
  160SAPE   H3Y17954   1.757   3.246   6.979  0.7889  2.8404 -0.6078
  160SAPE   C3417955   1.748   3.191   7.189  0.1232  0.3949  0.0484
  160SAPE   H4X17956   1.814   3.103   7.176  0.0778 -0.1704  3.0047
  160SAPE   H4Y17957   1.641   3.169   7.212  0.6079 -1.5047  0.6373
  160SAPE   C3517958   1.784   3.241   7.326 -0.6532 -0.7419 -0.8067
  160SAPE   H5X17959   1.786   3.352   7.329  0.6005 -0.6840 -2.3067
  160SAPE   H5Y17960   1.882   3.202   7.362 -0.5543 -0.0886 -0.3530
  160SAPE   C3617961   1.689   3.193   7.424 -0.8422  0.2717  0.2118
  160SAPE   H6X17962   1.680   3.082   7.417 -0.1500  0.1311  1.2945
  160SAPE   H6Y17963   1.590   3.241   7.411  0.1873  2.9695  1.6030
  160SAPE   C3717964   1.738   3.202   7.567 -0.4709  0.0657  0.0393
  160SAPE   H7X17965   1.836   3.149   7.573 -0.2580  0.5430  1.1350
  160SAPE   H7Y17966   1.656   3.167   7.633 -1.3101  2.1528  0.1969
  160SAPE   C3817967   1.776   3.340   7.616  0.2693  0.1898 -0.3852
  160SAPE   H8X17968   1.689   3.409   7.622 -0.1577 -0.4439  1.2825
  160SAPE   H8Y17969   1.858   3.383   7.555 -0.3715 -0.3250 -1.6508
  160SAPE   C3917970   1.840   3.356   7.758 -0.2484 -0.4463 -0.2329
  160SAPE   H9X17971   1.851   3.462   7.790 -0.7478 -0.6510  0.6436
  160SAPE   H9Y17972   1.944   3.318   7.749 -0.2268 -1.3982  2.7684
  160SAPE  C31017973   1.765   3.271   7.857  0.0851 -0.0050 -0.2543
  160SAPE  H10X17974   1.786   3.165   7.832  0.7781 -0.4401  1.8946
  160SAPE  H10Y17975   1.654   3.276   7.852 -0.2055 -3.4872  0.2919
  160SAPE  C31117976   1.789   3.286   8.011  0.3899  0.2057 -0.1362
  160SAPE  H11X17977   1.885   3.253   8.056  0.9159 -1.3955 -2.2464
  160SAPE  H11Y17978   1.712   3.222   8.057  0.3740  0.8454  0.7430
  160SAPE  C31217979   1.749   3.426   8.060 -0.6882  0.7739 -0.2693
  160SAPE  H12X17980   1.640   3.430   8.038 -1.2463 -0.6970  1.9503
  160SAPE  H12Y17981   1.802   3.505   8.002 -2.1378  1.3777 -0.8225
  160SAPE  C31317982   1.752   3.452   8.213 -0.6695  0.0901 -0.1786
  160SAPE  H13X17983   1.764   3.357   8.268 -2.5864 -1.0148 -1.5292
  160SAPE  H13Y17984   1.655   3.498   8.241  0.1261 -0.6808  4.6895
  160SAPE  C31417985   1.873   3.541   8.249 -0.0022  0.3370 -0.4260
  160SAPE  H14X17986   1.848   3.646   8.224  0.3590  0.9755  1.6864
  160SAPE  H14Y17987   1.968   3.515   8.197  0.7581  1.3185  0.4470
  160SAPE  C31517988   1.884   3.559   8.403 -0.2196  0.0349  0.3945
  160SAPE  H15X17989   1.963   3.635   8.416  0.2536 -0.4124  0.1756
  160SAPE  H15Y17990   1.913   3.469   8.461 -1.2259  0.2292  1.2386
  160SAPE  C31617991   1.753   3.606   8.465  0.3722  0.0920  0.3422
  160SAPE  H16X17992   1.667   3.539   8.450 -1.1121  1.6814  1.3214
  160SAPE  H16Y17993   1.740   3.703   8.412  0.6579  0.3677  0.7697
  160SAPE  C31717994   1.762   3.632   8.613 -0.4254  0.2465  0.0357
  160SAPE  H17X17995   1.852   3.692   8.640 -0.7896  0.9783 -0.3600
  160SAPE  H17Y17996   1.781   3.540   8.673 -0.3844  1.7579  2.4785
  160SAPE  C31817997   1.635   3.694   8.671 -0.8280 -0.0735  0.8783
  160SAPE  H18X17998   1.612   3.793   8.627 -0.5018  0.4887  1.9249
  160SAPE  H18Y17999   1.653   3.700   8.781  2.5865 -0.0485  0.4336
  160SAPE  H18Z18000   1.551   3.629   8.638 -1.1271  0.5342  0.4352
  161SAPE     N18001   3.422   0.475   6.690 -0.3119 -0.3931  0.4453
  161SAPE   HN118002   3.343   0.408   6.700 -1.0153  0.5450  1.5325
  161SAPE   HN218003   3.441   0.485   6.589 -1.3582  1.4885  0.3722
  161SAPE   HN318004   3.498   0.430   6.745  1.2668 -0.3341 -1.6095
  161SAPE   C1218005   3.377   0.607   6.737  0.1694 -0.6431  0.2636
  161SAPE  H12A18006   3.353   0.599   6.846 -0.5727  0.5670  0.2086
  161SAPE  H12B18007   3.280   0.629   6.688  0.1643  0.6821  0.8312
  161SAPE   C1118008   3.483   0.711   6.703 -0.2119 -0.0917 -0.4914
  161SAPE  H11A18009   3.579   0.687   6.753 -0.1541  0.4266 -0.3510
  161SAPE  H11B18010   3.448   0.809   6.742  0.1983 -0.2757  0.3587
  161SAPE     P18011   3.608   0.824   6.514 -0.0659  0.2484 -0.1986
  161SAPE   O1318012   3.718   0.755   6.444  0.0957 -0.3215 -0.4310
  161SAPE   O1418013   3.534   0.935   6.444 -0.4813  0.0374  0.2874
  161SAPE   O1218014   3.508   0.709   6.561  0.5064  0.0503  0.1674
  161SAPE   O1118015   3.676   0.862   6.650  0.0565 -0.2588  0.2695
  161SAPE    C118016   3.740   0.994   6.678  0.4212  0.5827 -0.2750
  161SAPE    HA18017   3.843   0.990   6.718  1.6719  1.4002 -3.1474
  161SAPE    HB18018   3.740   1.062   6.590  0.0394 -1.4996 -1.9858
  161SAPE    C218019   3.666   1.068   6.791 -0.1090 -0.0627 -0.1598
  161SAPE    HS18020   3.719   1.161   6.821 -1.4663  0.5684  0.3486
  161SAPE   O2118021   3.631   0.974   6.897  0.5911 -0.0140  0.0737
  161SAPE   C2118022   3.729   0.902   6.955 -0.2618 -0.1532 -0.9280
  161SAPE   O2218023   3.848   0.926   6.945 -0.2731  0.2734 -0.1231
  161SAPE   C2218024   3.669   0.780   7.030  0.2534 -0.0604  0.1002
  161SAPE   H2R18025   3.568   0.816   7.062  0.9400  0.6469  1.5731
  161SAPE   H2S18026   3.658   0.690   6.967  1.5902  0.1460 -0.4716
  161SAPE    C318027   3.535   1.121   6.732  0.4195  0.1258  0.2038
  161SAPE    HX18028   3.475   1.038   6.689 -0.3837 -0.2130  1.8941
  161SAPE    HY18029   3.560   1.183   6.643 -0.5101  0.6440  0.2914
  161SAPE   O3118030   3.445   1.183   6.822 -0.2799 -0.3062  0.1945
  161SAPE   C3118031   3.486   1.308   6.853  0.1990  0.2655 -0.6969
  161SAPE   O3218032   3.585   1.362   6.810  1.1261 -0.1476 -0.0412
  161SAPE   C3218033   3.374   1.368   6.924  0.5633 -0.4550 -0.0986
  161SAPE   H2X18034   3.367   1.316   7.023  0.7209  1.7617  1.1302
  161SAPE   H2Y18035   3.283   1.336   6.869  0.6367 -1.0020  0.0820
  161SAPE   C2318036   3.750   0.725   7.159  0.5437  0.0545  0.2593
  161SAPE   H3R18037   3.788   0.811   7.218  0.8358 -0.3312  0.6356
  161SAPE   H3S18038   3.839   0.666   7.128  0.2104 -0.2622 -0.1030
  161SAPE   C2418039   3.668   0.626   7.251 -0.1061  0.4723 -0.2249
  161SAPE   H4R18040   3.739   0.566   7.312 -0.7031  0.6767  0.6738
  161SAPE   H4S18041   3.611   0.560   7.183 -0.1431 -0.1129  0.3733
  161SAPE   C2518042   3.570   0.700   7.344 -0.2001  0.4292 -0.2099
  161SAPE   H5R18043   3.509   0.779   7.297 -0.7000  0.3949  0.3621
  161SAPE   C2618044   3.568   0.702   7.481 -0.3222 -0.2217  0.2038
  161SAPE   H6R18045   3.512   0.787   7.524 -0.8266 -1.3895  1.9485
  161SAPE   C2718046   3.652   0.623   7.582  0.4010 -0.6467 -0.1187
  161SAPE   H7R18047   3.732   0.579   7.520  0.7870  0.3717 -0.3575
  161SAPE   H7S18048   3.585   0.555   7.639 -0.2321  0.3126  0.3240
  161SAPE   C2818049   3.723   0.721   7.677 -0.5242  0.2963  0.4401
  161SAPE   H8R18050   3.720   0.828   7.653 -2.0313  0.8232  2.6982
  161SAPE   C2918051   3.772   0.683   7.803  0.0251 -0.4962 -0.8332
  161SAPE   H9R18052   3.806   0.763   7.872  1.0725 -1.1212 -0.5929
  161SAPE  C21018053   3.782   0.548   7.872 -0.3089 -0.2648 -0.2748
  161SAPE  H10R18054   3.885   0.529   7.909 -1.4642 -2.2464  2.2503
  161SAPE  H10S18055   3.763   0.472   7.793 -1.1734 -0.2242 -0.1202
  161SAPE  C21118056   3.673   0.537   7.977 -0.4108  0.0379 -0.0473
  161SAPE  H11R18057   3.578   0.582   7.943 -0.4051  2.2888  2.5517
  161SAPE  C21218058   3.686   0.487   8.105 -0.2427  0.9765  0.2198
  161SAPE  H12R18059   3.601   0.486   8.175  0.6808  1.0387  1.3936
  161SAPE  C21318060   3.814   0.419   8.154  0.3438  0.5885  0.6973
  161SAPE  H13R18061   3.892   0.496   8.168 -0.5959  1.6044  0.4805
  161SAPE  H13S18062   3.852   0.360   8.068 -1.1535  3.5771 -2.2173
  161SAPE  C21418063   3.791   0.322   8.274 -0.3989  0.1485  0.5940
  161SAPE  H14R18064   3.688   0.284   8.278 -1.5222  2.9344  0.1347
  161SAPE  C21518065   3.863   0.313   8.383  0.0398 -1.0541  0.0537
  161SAPE  H15R18066   3.832   0.236   8.455 -2.3931 -0.2841 -0.0785
  161SAPE  C21618067   3.988   0.392   8.418  0.5852 -0.2480 -0.1857
  161SAPE  H16R18068   4.033   0.455   8.339 -0.4670 -0.0071 -0.6017
  161SAPE  H16S18069   4.066   0.319   8.450  1.3873  0.5122 -0.3478
  161SAPE  C21718070   3.956   0.477   8.544  0.5534 -0.4914  0.0410
  161SAPE  H17R18071   4.050   0.515   8.588  1.4008 -1.1657 -1.1382
  161SAPE  H17S18072   3.912   0.416   8.626 -0.5283  0.1042 -0.0799
  161SAPE  C21818073   3.859   0.596   8.516  0.3206  0.1356 -0.4035
  161SAPE  H18R18074   3.759   0.571   8.475  0.0178 -0.9665  0.9380
  161SAPE  H18S18075   3.904   0.660   8.437 -0.3790 -1.7528 -2.4239
  161SAPE  C21918076   3.812   0.666   8.649 -0.0562  0.1784 -0.0385
  161SAPE  H19R18077   3.778   0.767   8.619 -0.3174  0.0732 -0.0968
  161SAPE  H19S18078   3.899   0.669   8.718  0.3871 -2.4211 -0.3789
  161SAPE  C22018079   3.706   0.602   8.741 -0.2398 -0.0686  0.0076
  161SAPE  H20R18080   3.760   0.510   8.771  2.4109  1.3214 -0.2244
  161SAPE  H20S18081   3.610   0.597   8.686 -0.1976  0.6394 -0.1498
  161SAPE  H20T18082   3.677   0.665   8.828  1.2157  3.3272 -1.7375
  161SAPE   C3318083   3.393   1.523   6.951  0.5278  0.1996  0.6714
  161SAPE   H3X18084   3.354   1.584   6.867  1.4074 -0.6086 -0.3478
  161SAPE   H3Y18085   3.497   1.554   6.975  1.0215 -0.4706 -0.5447
  161SAPE   C3418086   3.313   1.568   7.077  0.8765  0.6514  0.0616
  161SAPE   H4X18087   3.215   1.516   7.065  0.5614  1.3579 -0.5543
  161SAPE   H4Y18088   3.277   1.673   7.075 -3.2332 -0.5289 -3.7419
  161SAPE   C3518089   3.405   1.542   7.196  0.6527 -0.0304  0.6463
  161SAPE   H5X18090   3.490   1.614   7.191 -2.1345  3.6198  1.2832
  161SAPE   H5Y18091   3.446   1.439   7.199 -1.8042 -1.2278 -2.0678
  161SAPE   C3618092   3.344   1.574   7.336 -0.6536  0.7717  0.3434
  161SAPE   H6X18093   3.256   1.506   7.345  0.8189 -1.1259  0.9641
  161SAPE   H6Y18094   3.304   1.677   7.335 -2.0202  0.3790 -3.7511
  161SAPE   C3718095   3.455   1.538   7.445 -0.6761 -0.3827 -0.3412
  161SAPE   H7X18096   3.502   1.636   7.472 -1.2678 -0.0990 -0.3315
  161SAPE   H7Y18097   3.536   1.482   7.394  0.6622  0.1962  1.0606
  161SAPE   C3818098   3.403   1.462   7.568  0.4832 -0.4158  0.3867
  161SAPE   H8X18099   3.487   1.428   7.632  1.7714 -0.6018 -1.3443
  161SAPE   H8Y18100   3.346   1.373   7.532 -1.3355  0.6894  0.4049
  161SAPE   C3918101   3.301   1.543   7.647 -0.5022  0.3559  0.4078
  161SAPE   H9X18102   3.205   1.549   7.591 -0.0350 -0.2272 -0.5016
  161SAPE   H9Y18103   3.334   1.649   7.646  0.0331  0.2265  2.0385
  161SAPE  C31018104   3.314   1.497   7.793 -0.5863  0.1470 -0.2104
  161SAPE  H10X18105   3.421   1.505   7.822  0.7483 -1.8032 -4.0158
  161SAPE  H10Y18106   3.284   1.390   7.797  0.5545 -0.1800  2.8184
  161SAPE  C31118107   3.230   1.575   7.890  0.3927 -0.6972 -0.5538
  161SAPE  H11X18108   3.125   1.576   7.853 -0.2429 -0.8361  1.1511
  161SAPE  H11Y18109   3.261   1.682   7.891  0.0478 -0.4765  3.0728
  161SAPE  C31218110   3.220   1.520   8.037 -0.2747 -0.3803  0.2482
  161SAPE  H12X18111   3.154   1.431   8.026  0.4675 -0.8580 -0.4902
  161SAPE  H12Y18112   3.165   1.586   8.106  1.4039  0.2599  1.0410
  161SAPE  C31318113   3.358   1.481   8.101 -0.2612  0.4379  0.0466
  161SAPE  H13X18114   3.426   1.568   8.097 -0.5061  0.6314  0.0536
  161SAPE  H13Y18115   3.403   1.400   8.040 -0.3899  0.0246  0.4923
  161SAPE  C31418116   3.346   1.434   8.244 -0.8023 -0.3681  0.1301
  161SAPE  H14X18117   3.307   1.514   8.311  0.9521 -1.3606  2.4864
  161SAPE  H14Y18118   3.445   1.403   8.283 -0.8684 -0.6785  0.0520
  161SAPE  C31518119   3.256   1.314   8.277 -0.1211  0.2657 -0.1838
  161SAPE  H15X18120   3.304   1.226   8.227  0.0167 -0.0062  0.4221
  161SAPE  H15Y18121   3.152   1.337   8.248  0.5063  1.7628 -1.4162
  161SAPE  C31618122   3.253   1.279   8.429  0.1295  0.5225 -0.7598
  161SAPE  H16X18123   3.208   1.360   8.490  1.7798 -1.9511  4.3740
  161SAPE  H16Y18124   3.357   1.275   8.469 -0.0571  0.6164 -0.2608
  161SAPE  C31718125   3.168   1.156   8.459 -0.4154  0.3357 -0.4893
  161SAPE  H17X18126   3.195   1.064   8.403 -3.1997  0.5658 -2.4443
  161SAPE  H17Y18127   3.060   1.178   8.444 -0.6729 -0.6084 -0.0830
  161SAPE  C31818128   3.172   1.112   8.607  0.0570 -0.9958 -0.2887
  161SAPE  H18X18129   3.121   1.014   8.620 -1.0445 -0.3848  0.1449
  161SAPE  H18Y18130   3.114   1.191   8.658 -1.1243 -0.8618 -1.7778
  161SAPE  H18Z18131   3.278   1.114   8.641  0.7909  1.5769 -2.3881
  162SAPE     N18132   2.715   3.511   6.279 -0.0801 -0.0894  0.6545
  162SAPE   HN118133   2.682   3.609   6.266  1.8211  0.2690 -2.7810
  162SAPE   HN218134   2.645   3.456   6.333  0.8053 -1.6036  0.3306
  162SAPE   HN318135   2.806   3.514   6.328  0.0078 -2.6005  0.7752
  162SAPE   C1218136   2.732   3.442   6.144  0.1014 -0.6465 -0.3489
  162SAPE  H12A18137   2.813   3.479   6.077 -0.3832  2.0430  0.4276
  162SAPE  H12B18138   2.634   3.451   6.093  0.5462 -0.4711 -1.1972
  162SAPE   C1118139   2.763   3.289   6.162  0.4609 -0.6526  0.8298
  162SAPE  H11A18140   2.801   3.255   6.063 -2.9504  0.8928 -1.1798
  162SAPE  H11B18141   2.669   3.234   6.185 -0.2348 -0.8145 -2.1194
  162SAPE     P18142   2.997   3.248   6.236 -0.0687 -0.2494 -0.0195
  162SAPE   O1318143   3.019   3.138   6.150  0.4155  0.3302  0.0031
  162SAPE   O1418144   3.046   3.378   6.184  0.2415  0.1595  0.2834
  162SAPE   O1218145   2.844   3.253   6.269 -0.1635 -0.2847  0.0283
  162SAPE   O1118146   3.058   3.223   6.378  0.2984  0.0069 -0.6034
  162SAPE    C118147   3.006   3.129   6.466  0.4860 -0.4284  0.7638
  162SAPE    HA18148   2.957   3.039   6.422  2.9272 -1.9374  0.9058
  162SAPE    HB18149   3.090   3.101   6.534  2.6695 -0.2305 -1.7204
  162SAPE    C218150   2.897   3.186   6.561 -0.0016  0.1640  0.0273
  162SAPE    HS18151   2.815   3.202   6.488  1.0320 -1.2021 -1.5269
  162SAPE   O2118152   2.938   3.305   6.622  0.3276 -0.5738 -0.2837
  162SAPE   C2118153   2.838   3.374   6.679 -0.3599 -0.5258  0.1364
  162SAPE   O2218154   2.720   3.345   6.677  0.1011  0.2600 -0.1138
  162SAPE   C2218155   2.884   3.498   6.763  0.1819 -0.6363  0.1583
  162SAPE   H2R18156   2.977   3.460   6.811  1.3264  1.8579  0.0609
  162SAPE   H2S18157   2.904   3.581   6.693 -3.4934 -0.7450 -1.2159
  162SAPE    C318158   2.859   3.072   6.657  0.5912  0.7862  0.1407
  162SAPE    HX18159   2.819   2.987   6.598 -0.3099 -0.0393  1.8591
  162SAPE    HY18160   2.764   3.098   6.708  0.6482  5.0085 -1.5138
  162SAPE   O3118161   2.968   3.031   6.742  0.2175  0.2504  0.4225
  162SAPE   C3118162   2.973   3.085   6.864 -0.3686 -0.8411  0.1835
  162SAPE   O3218163   2.904   3.176   6.904  0.0844 -0.2405  0.9940
  162SAPE   C3218164   3.087   3.021   6.940  0.1007 -0.5488 -0.0407
  162SAPE   H2X18165   3.186   3.061   6.908  0.1366 -0.5366  0.0854
  162SAPE   H2Y18166   3.093   2.912   6.918  3.3476 -0.6446  0.7706
  162SAPE   C2318167   2.793   3.543   6.883 -0.7204  0.2275  0.6971
  162SAPE   H3R18168   2.753   3.456   6.941  2.3111 -0.5434  1.8103
  162SAPE   H3S18169   2.706   3.593   6.835  0.5480  0.4475 -1.4862
  162SAPE   C2418170   2.865   3.630   6.983 -0.3064 -0.6530 -0.6979
  162SAPE   H4R18171   2.779   3.687   7.026  1.8921  1.7155  0.9061
  162SAPE   H4S18172   2.924   3.707   6.929 -0.7867 -0.1282 -0.4862
  162SAPE   C2518173   2.962   3.557   7.072 -0.1383  0.0834  0.4838
  162SAPE   H5R18174   3.042   3.492   7.035 -0.0236  0.2778  0.3908
  162SAPE   C2618175   2.949   3.566   7.206  0.1714 -0.4289 -0.2076
  162SAPE   H6R18176   3.027   3.519   7.268 -0.2678 -0.1393  0.5772
  162SAPE   C2718177   2.847   3.644   7.288  0.7678  0.2825 -0.0470
  162SAPE   H7R18178   2.746   3.612   7.254 -0.9681  3.3814  1.7874
  162SAPE   H7S18179   2.842   3.752   7.263  1.6380  0.8403  1.9789
  162SAPE   C2818180   2.861   3.614   7.437 -0.0033 -0.3352  0.0804
  162SAPE   H8R18181   2.872   3.508   7.464 -1.5541 -0.2410  1.1815
  162SAPE   C2918182   2.850   3.699   7.544  0.2141 -0.2304  0.4614
  162SAPE   H9R18183   2.875   3.654   7.642 -1.7365 -0.7713  0.7628
  162SAPE  C21018184   2.838   3.851   7.557  0.5495  0.3458 -0.4777
  162SAPE  H10R18185   2.893   3.895   7.471  0.5248 -1.2210 -1.3318
  162SAPE  H10S18186   2.891   3.884   7.649  2.1942  1.7696 -1.8631
  162SAPE  C21118187   2.696   3.891   7.537  0.3704  0.7133  0.1347
  162SAPE  H11R18188   2.637   3.833   7.466 -0.7304  1.0522  0.7502
  162SAPE  C21218189   2.630   3.972   7.623  0.4613 -0.3370  0.0989
  162SAPE  H12R18190   2.529   4.003   7.593  0.1240 -1.4800 -0.0028
  162SAPE  C21318191   2.685   4.036   7.743  0.3054  0.2576 -0.4839
  162SAPE  H13R18192   2.641   4.137   7.755 -2.4213 -1.0847  2.0257
  162SAPE  H13S18193   2.791   4.059   7.721  0.3900 -0.5965 -1.0565
  162SAPE  C21418194   2.668   3.946   7.872 -0.4301 -0.9116  0.0892
  162SAPE  H14R18195   2.702   3.843   7.856 -1.3148 -0.6917 -4.7498
  162SAPE  C21518196   2.639   3.989   7.999  0.4442  0.2676  0.1992
  162SAPE  H15R18197   2.629   3.910   8.075  2.5513 -1.0977 -0.8483
  162SAPE  C21618198   2.609   4.129   8.042  0.1269 -0.3545 -0.2812
  162SAPE  H16R18199   2.549   4.117   8.135  1.3408  2.7566  1.0623
  162SAPE  H16S18200   2.561   4.196   7.967  3.9227  2.5487 -0.4308
  162SAPE  C21718201   2.728   4.212   8.086 -0.5000  0.4515 -0.5824
  162SAPE  H17R18202   2.676   4.309   8.099 -2.8047 -1.1312  3.6480
  162SAPE  H17S18203   2.810   4.226   8.011  1.5920  0.3478  1.5708
  162SAPE  C21818204   2.799   4.174   8.216  0.3778 -0.1273 -0.2876
  162SAPE  H18R18205   2.854   4.080   8.194 -1.7636 -1.4389 -0.3085
  162SAPE  H18S18206   2.730   4.162   8.302  0.5437  2.8397  0.3857
  162SAPE  C21918207   2.902   4.283   8.270  0.1723 -0.4219 -0.4989
  162SAPE  H19R18208   2.852   4.382   8.276 -1.7984 -1.4328  3.6987
  162SAPE  H19S18209   2.986   4.282   8.198  0.3745 -1.6322 -0.2682
  162SAPE  C22018210   2.950   4.258   8.409 -0.6699  0.0732  0.1901
  162SAPE  H20R18211   3.022   4.173   8.417  0.3751  0.8765 -0.4207
  162SAPE  H20S18212   2.869   4.252   8.484  0.0532  1.6606  1.1460
  162SAPE  H20T18213   3.000   4.346   8.455 -1.9737  1.1628 -0.4210
  162SAPE   C3318214   3.085   3.047   7.092  0.5027 -0.3245  0.2304
  162SAPE   H3X18215   2.993   3.016   7.147  0.2162 -3.7063 -1.8375
  162SAPE   H3Y18216   3.102   3.157   7.099  0.7083 -0.4132  1.2175
  162SAPE   C3418217   3.198   2.966   7.164 -0.2266  0.3331 -0.6444
  162SAPE   H4X18218   3.299   2.996   7.126 -1.1465  3.7720 -0.6725
  162SAPE   H4Y18219   3.179   2.858   7.146 -1.6443  0.7608 -1.8439
  162SAPE   C3518220   3.206   2.993   7.322 -0.3845  0.0801 -0.2894
  162SAPE   H5X18221   3.268   2.908   7.359 -1.8668 -1.4879 -1.2455
  162SAPE   H5Y18222   3.114   2.979   7.383  0.5746  3.1249  2.1162
  162SAPE   C3618223   3.277   3.117   7.354  0.0446 -0.1788 -0.0981
  162SAPE   H6X18224   3.232   3.205   7.303 -3.5246 -0.1313  2.6996
  162SAPE   H6Y18225   3.379   3.118   7.311 -0.4111  2.7586 -1.3201
  162SAPE   C3718226   3.291   3.135   7.498  1.0026  0.6913  0.3357
  162SAPE   H7X18227   3.348   3.049   7.538 -0.1734 -0.9485 -1.3340
  162SAPE   H7Y18228   3.191   3.135   7.547  0.4303 -2.3085 -0.6179
  162SAPE   C3818229   3.354   3.269   7.543 -0.4588  0.4649 -0.2484
  162SAPE   H8X18230   3.284   3.355   7.538 -0.4571  0.4483 -0.6216
  162SAPE   H8Y18231   3.440   3.284   7.474 -1.1904 -0.5735 -1.4333
  162SAPE   C3918232   3.413   3.262   7.686 -0.4176  1.1322  0.2690
  162SAPE   H9X18233   3.461   3.361   7.702  0.5496  0.8625 -0.8702
  162SAPE   H9Y18234   3.487   3.180   7.689  0.6748  2.1005  0.8574
  162SAPE  C31018235   3.297   3.242   7.793 -0.2705  0.4934  0.5254
  162SAPE  H10X18236   3.244   3.146   7.779 -1.9872  1.6568 -1.5350
  162SAPE  H10Y18237   3.227   3.325   7.769 -0.5831 -0.4177 -1.9903
  162SAPE  C31118238   3.361   3.254   7.937 -0.1735  0.3002 -0.1652
  162SAPE  H11X18239   3.419   3.348   7.947 -0.6169  0.5425  0.1064
  162SAPE  H11Y18240   3.428   3.171   7.970 -0.3916 -0.0910 -0.7007
  162SAPE  C31218241   3.252   3.251   8.050 -0.7547 -0.1297 -0.3217
  162SAPE  H12X18242   3.201   3.153   8.038  0.8452 -1.1566  0.8515
  162SAPE  H12Y18243   3.185   3.333   8.016  2.4503  2.6228 -0.3955
  162SAPE  C31318244   3.305   3.274   8.193 -0.1042  0.0771  0.6175
  162SAPE  H13X18245   3.382   3.198   8.218 -0.2064 -0.3553 -0.3231
  162SAPE  H13Y18246   3.212   3.256   8.251 -1.0522 -0.8434 -1.0902
  162SAPE  C31418247   3.348   3.418   8.225  0.7665 -0.1737  0.3038
  162SAPE  H14X18248   3.281   3.493   8.176 -1.8103 -1.8387  1.0660
  162SAPE  H14Y18249   3.448   3.437   8.181  0.8754 -1.0983  0.1430
  162SAPE  C31518250   3.359   3.427   8.377 -0.6300 -0.7130  0.1674
  162SAPE  H15X18251   3.424   3.513   8.405 -1.7108  0.1909 -0.0221
  162SAPE  H15Y18252   3.407   3.335   8.414 -1.5482 -2.0570 -1.7917
  162SAPE  C31618253   3.222   3.452   8.454 -0.1827  0.0346  0.5636
  162SAPE  H16X18254   3.150   3.373   8.422 -2.4364  2.6148 -1.3327
  162SAPE  H16Y18255   3.189   3.552   8.418  1.3277  0.4291  0.2450
  162SAPE  C31718256   3.241   3.461   8.610  0.9313 -0.4231 -0.0661
  162SAPE  H17X18257   3.302   3.552   8.634  1.4156 -1.0126  0.9997
  162SAPE  H17Y18258   3.288   3.370   8.652  0.8036 -0.1392  0.7064
  162SAPE  C31818259   3.100   3.477   8.682  0.0308  0.3596 -0.2027
  162SAPE  H18X18260   3.026   3.398   8.656 -1.1164 -0.0470  3.7250
  162SAPE  H18Y18261   3.056   3.577   8.663  0.3489  0.9943  2.1117
  162SAPE  H18Z18262   3.111   3.465   8.792  0.7507  2.6583  0.0351
  163SAPE     N18263   1.443   1.736   6.367 -0.0060 -0.5049  0.2629
  163SAPE   HN118264   1.351   1.743   6.317  0.4440 -0.5266 -0.5920
  163SAPE   HN218265   1.505   1.800   6.313 -0.4702 -1.4007 -1.3909
  163SAPE   HN318266   1.489   1.643   6.371  1.8307  0.3066 -1.0083
  163SAPE   C1218267   1.445   1.781   6.511  0.6888 -0.5397  0.0155
  163SAPE  H12A18268   1.546   1.827   6.526 -0.2698  1.1878  1.7291
  163SAPE  H12B18269   1.437   1.692   6.576  1.1145 -0.1064  0.6796
  163SAPE   C1118270   1.325   1.872   6.560 -0.3836 -0.2214 -0.2763
  163SAPE  H11A18271   1.321   1.969   6.506  0.3343  0.8802  1.5241
  163SAPE  H11B18272   1.343   1.894   6.668 -0.9312  0.1464 -0.2552
  163SAPE     P18273   1.111   1.765   6.670  0.0367 -0.3411 -0.4595
  163SAPE   O1318274   1.096   1.879   6.766  0.3680 -0.0282  0.0005
  163SAPE   O1418275   0.986   1.701   6.610 -0.4318 -0.9234 -0.4711
  163SAPE   O1218276   1.196   1.810   6.548  0.0953 -0.1392 -0.7013
  163SAPE   O1118277   1.202   1.654   6.736 -0.4980  0.7254 -0.0479
  163SAPE    C118278   1.270   1.670   6.857  0.7580 -0.2210 -0.5918
  163SAPE    HA18279   1.350   1.744   6.836 -0.4522  0.5649 -2.7170
  163SAPE    HB18280   1.200   1.697   6.938  1.4771 -0.3168  0.0704
  163SAPE    C218281   1.341   1.545   6.916 -0.4429  0.4872 -0.3585
  163SAPE    HS18282   1.356   1.472   6.833  0.5167 -0.7423  0.8370
  163SAPE   O2118283   1.273   1.483   7.030 -0.0946  0.0367 -0.4495
  163SAPE   C2118284   1.145   1.451   7.001  0.3884 -0.5105  0.9202
  163SAPE   O2218285   1.098   1.440   6.890 -0.6100  0.0818 -0.1871
  163SAPE   C2218286   1.072   1.422   7.130 -0.4012 -0.5393 -0.0253
  163SAPE   H2R18287   1.128   1.348   7.193  0.9264  0.0462 -0.4724
  163SAPE   H2S18288   1.078   1.511   7.196 -0.4322 -0.3477 -0.2806
  163SAPE    C318289   1.479   1.590   6.977  0.5857  0.2179  0.0921
  163SAPE    HX18290   1.539   1.643   6.900  0.7309  0.5951  0.4627
  163SAPE    HY18291   1.527   1.493   7.001  1.2524  0.7332  0.8842
  163SAPE   O3118292   1.453   1.680   7.085 -0.9158  0.7690 -0.0865
  163SAPE   C3118293   1.552   1.686   7.168  0.1145  0.1944 -0.5038
  163SAPE   O3218294   1.651   1.611   7.158  0.2342 -0.1259  0.2570
  163SAPE   C3218295   1.526   1.785   7.285 -0.1466 -0.7323  0.3826
  163SAPE   H2X18296   1.428   1.751   7.325  0.4371 -2.3434  0.5031
  163SAPE   H2Y18297   1.510   1.882   7.233  1.2383  0.5152  2.1299
  163SAPE   C2318298   0.925   1.385   7.102 -0.1219  0.1926  0.1498
  163SAPE   H3R18299   0.917   1.287   7.051 -2.5415  0.2374  0.2891
  163SAPE   H3S18300   0.884   1.471   7.044  1.4417  0.1356 -1.0954
  163SAPE   C2418301   0.831   1.395   7.227 -0.9521 -0.8132  0.7176
  163SAPE   H4R18302   0.724   1.395   7.197 -0.8353  2.5911 -0.0571
  163SAPE   H4S18303   0.846   1.499   7.261 -0.2254  1.0777 -4.4709
  163SAPE   C2518304   0.855   1.301   7.337  0.5571  0.4790 -0.4635
  163SAPE   H5R18305   0.862   1.195   7.308  0.5290  0.5130 -0.5951
  163SAPE   C2618306   0.882   1.333   7.467 -0.2629 -0.2361  0.1060
  163SAPE   H6R18307   0.905   1.248   7.533 -0.5605 -2.1747 -2.1400
  163SAPE   C2718308   0.899   1.473   7.520 -1.0400  0.2599 -0.3374
  163SAPE   H7R18309   0.811   1.535   7.492  0.2457  3.0726  1.3668
  163SAPE   H7S18310   0.994   1.514   7.482  0.1679 -0.6510  1.5552
  163SAPE   C2818311   0.909   1.498   7.671 -0.6159  0.1650  0.0707
  163SAPE   H8R18312   0.950   1.421   7.739 -0.7744  1.6712  1.9737
  163SAPE   C2918313   0.880   1.611   7.732  0.2355  0.3810 -0.2283
  163SAPE   H9R18314   0.886   1.623   7.842  0.5354  0.9000 -0.2990
  163SAPE  C21018315   0.812   1.729   7.669 -0.0884  0.4352 -0.3904
  163SAPE  H10R18316   0.848   1.736   7.564 -0.8464  0.5134 -0.6483
  163SAPE  H10S18317   0.852   1.811   7.732 -0.2751  0.5928 -0.4788
  163SAPE  C21118318   0.659   1.712   7.689  0.2695 -0.3630 -0.5267
  163SAPE  H11R18319   0.619   1.628   7.630 -0.0230 -0.7020  0.1491
  163SAPE  C21218320   0.571   1.789   7.759 -0.3070 -0.3791  0.0274
  163SAPE  H12R18321   0.470   1.745   7.766 -0.4592 -0.0757 -0.2718
  163SAPE  C21318322   0.591   1.918   7.842 -0.2332  0.4069 -0.0844
  163SAPE  H13R18323   0.513   1.992   7.812 -3.4352 -2.4731  0.5382
  163SAPE  H13S18324   0.685   1.973   7.823 -0.0871  0.6649  1.3064
  163SAPE  C21418325   0.564   1.912   7.994 -0.8444 -0.3189 -0.1646
  163SAPE  H14R18326   0.465   1.945   8.029 -1.3848 -0.1799 -1.7529
  163SAPE  C21518327   0.662   1.901   8.079 -0.7646  0.4195 -0.1148
  163SAPE  H15R18328   0.639   1.900   8.187  0.5288  0.9417  0.1816
  163SAPE  C21618329   0.813   1.887   8.048 -0.4889 -0.0980  0.0842
  163SAPE  H16R18330   0.823   1.834   7.951 -1.3412 -0.2486  0.0681
  163SAPE  H16S18331   0.853   1.827   8.133 -0.8764 -0.6021 -0.0778
  163SAPE  C21718332   0.897   2.017   8.021  0.6926  0.8841  0.0573
  163SAPE  H17R18333   0.835   2.092   7.967 -3.5223 -0.6041  2.3618
  163SAPE  H17S18334   0.985   1.994   7.957  0.5277  1.2644 -0.3131
  163SAPE  C21818335   0.959   2.071   8.155 -0.0525 -0.0122  0.3951
  163SAPE  H18R18336   1.002   1.978   8.199 -0.2823 -0.1573  0.3182
  163SAPE  H18S18337   0.876   2.111   8.217 -0.6220 -2.3565  1.2461
  163SAPE  C21918338   1.070   2.172   8.129  0.0242 -0.2682  0.1346
  163SAPE  H19R18339   1.023   2.267   8.097 -1.3857 -0.4536  1.4992
  163SAPE  H19S18340   1.144   2.129   8.058 -1.0292 -2.1214  0.0762
  163SAPE  C22018341   1.144   2.188   8.256 -0.7636  0.1631  0.3701
  163SAPE  H20R18342   1.253   2.206   8.244 -0.1123 -3.2824  0.2043
  163SAPE  H20S18343   1.136   2.086   8.300  1.0964 -0.9134 -1.5713
  163SAPE  H20T18344   1.101   2.269   8.319  0.6428  1.7684 -0.6469
  163SAPE   C3318345   1.646   1.792   7.379  0.5852 -0.2299 -0.6589
  163SAPE   H3X18346   1.633   1.886   7.436 -0.7908 -2.0178  2.1827
  163SAPE   H3Y18347   1.745   1.801   7.328  1.4892  0.2061  1.1210
  163SAPE   C3418348   1.640   1.674   7.479  0.2377 -0.2789  0.5881
  163SAPE   H4X18349   1.639   1.570   7.439  0.8700  0.0553 -0.3132
  163SAPE   H4Y18350   1.548   1.679   7.542 -0.5824  0.9025 -0.6405
  163SAPE   C3518351   1.759   1.656   7.584  0.0437 -0.3931  0.1482
  163SAPE   H5X18352   1.738   1.744   7.650 -2.7265 -0.8569  0.0103
  163SAPE   H5Y18353   1.850   1.683   7.527  0.0997 -0.6714  0.1078
  163SAPE   C3618354   1.779   1.524   7.657 -0.4439  0.9133 -0.0789
  163SAPE   H6X18355   1.816   1.442   7.592  1.8179  0.8097  1.2202
  163SAPE   H6Y18356   1.685   1.484   7.700 -1.5402 -0.6185 -3.5099
  163SAPE   C3718357   1.881   1.534   7.767 -0.0278 -0.5552  0.4896
  163SAPE   H7X18358   1.975   1.582   7.733  0.4131 -1.8280 -0.1368
  163SAPE   H7Y18359   1.897   1.429   7.799 -0.9902 -1.2939 -1.2993
  163SAPE   C3818360   1.833   1.602   7.893  0.6870 -0.4745  0.0717
  163SAPE   H8X18361   1.742   1.547   7.926  0.5254  0.0311  0.4771
  163SAPE   H8Y18362   1.806   1.708   7.876  0.2323 -1.0656 -3.6388
  163SAPE   C3918363   1.934   1.601   8.009  0.4976  0.0392 -0.4758
  163SAPE   H9X18364   2.027   1.655   7.980 -1.7723  3.0418 -2.9866
  163SAPE   H9Y18365   1.961   1.498   8.039 -0.0996 -0.7402 -2.4242
  163SAPE  C31018366   1.875   1.672   8.137 -0.1455  1.0253  0.6737
  163SAPE  H10X18367   1.831   1.770   8.107 -1.3309  0.5975  0.9688
  163SAPE  H10Y18368   1.964   1.696   8.199 -1.5466  1.1870  2.6994
  163SAPE  C31118369   1.763   1.610   8.218  0.0695 -0.2795 -0.4337
  163SAPE  H11X18370   1.667   1.604   8.163  1.3393  1.7340 -3.0907
  163SAPE  H11Y18371   1.739   1.679   8.302  0.4917 -1.7604  0.9352
  163SAPE  C31218372   1.805   1.470   8.270 -0.0895  0.1395 -0.1525
  163SAPE  H12X18373   1.914   1.482   8.291 -0.3679  3.4793 -0.0273
  163SAPE  H12Y18374   1.792   1.392   8.193 -0.1383  1.4649 -1.5355
  163SAPE  C31318375   1.736   1.442   8.404  0.2761  0.1770 -0.6831
  163SAPE  H13X18376   1.631   1.428   8.369  0.0085 -2.2407  0.8667
  163SAPE  H13Y18377   1.756   1.526   8.474  1.9342 -1.8566  1.4070
  163SAPE  C31418378   1.782   1.308   8.468  0.1064  0.1715  0.1291
  163SAPE  H14X18379   1.892   1.294   8.473 -0.3155 -4.0178  1.4605
  163SAPE  H14Y18380   1.742   1.230   8.399 -0.6670  0.3285  0.3866
  163SAPE  C31518381   1.723   1.270   8.599  0.4072  0.2840 -0.0733
  163SAPE  H15X18382   1.617   1.299   8.613 -0.1910 -0.7302 -2.1954
  163SAPE  H15Y18383   1.773   1.327   8.680 -2.3311  1.7116  0.7323
  163SAPE  C31618384   1.744   1.117   8.620  0.4647 -0.7939  0.1701
  163SAPE  H16X18385   1.853   1.114   8.644  0.2426 -0.0487  1.3100
  163SAPE  H16Y18386   1.710   1.056   8.534  0.4522  1.8042 -1.8204
  163SAPE  C31718387   1.684   1.056   8.746 -0.1462 -0.7739  0.7100
  163SAPE  H17X18388   1.726   1.111   8.832  0.4066  0.8157 -0.5135
  163SAPE  H17Y18389   1.710   0.948   8.755  0.8376 -0.5233  0.9778
  163SAPE  C31818390   1.535   1.072   8.760  0.4000  0.0805  0.1062
  163SAPE  H18X18391   1.499   1.034   8.859  1.7214  0.0849  0.6083
  163SAPE  H18Y18392   1.476   1.018   8.683 -0.5832  1.2398  0.0195
  163SAPE  H18Z18393   1.511   1.180   8.749 -1.0701 -0.3493 -1.1821
  164SAPE     N18394   2.569   5.328   5.925  0.2125 -0.8511  0.1519
  164SAPE   HN118395   2.482   5.344   5.980  0.7687  1.3019  0.4668
  164SAPE   HN218396   2.603   5.421   5.895 -0.2539 -0.7478 -0.0642
  164SAPE   HN318397   2.547   5.259   5.850  2.0414 -0.0228 -1.2311
  164SAPE   C1218398   2.681   5.292   6.015  0.4608 -0.2008  0.2335
  164SAPE  H12A18399   2.668   5.195   6.069 -1.0060 -0.1413  0.0265
  164SAPE  H12B18400   2.670   5.371   6.092  0.8241  1.5301 -1.4165
  164SAPE   C1118401   2.817   5.316   5.941 -0.0993 -0.5491  0.2537
  164SAPE  H11A18402   2.822   5.246   5.855 -0.6701  0.1345 -0.3423
  164SAPE  H11B18403   2.906   5.283   5.999  2.3696  2.4382 -1.5099
  164SAPE     P18404   2.915   5.566   5.966 -0.0565  0.1619 -0.4430
  164SAPE   O1318405   3.056   5.561   5.921  0.0683  0.1671  0.2476
  164SAPE   O1418406   2.836   5.694   5.943 -0.5149  0.1322  0.8370
  164SAPE   O1218407   2.833   5.457   5.897  0.9565  0.2425  0.1868
  164SAPE   O1118408   2.909   5.529   6.119 -0.0367  0.8661  0.0941
  164SAPE    C118409   2.867   5.621   6.212 -0.2289 -0.2001  0.4100
  164SAPE    HA18410   2.934   5.708   6.200  0.7304 -1.1477 -1.6777
  164SAPE    HB18411   2.761   5.645   6.188  0.1331 -0.4480 -1.6826
  164SAPE    C218412   2.876   5.573   6.360 -0.5355  0.5773 -0.8025
  164SAPE    HS18413   2.859   5.661   6.426 -0.7577  1.6791 -2.2691
  164SAPE   O2118414   3.002   5.503   6.397  0.0613 -0.0934  0.8300
  164SAPE   C2118415   3.110   5.569   6.382  0.3707  0.5714 -0.8025
  164SAPE   O2218416   3.120   5.684   6.338  0.3389 -0.1939 -0.0907
  164SAPE   C2218417   3.232   5.492   6.434  0.2208  0.2342  0.0402
  164SAPE   H2R18418   3.204   5.448   6.532 -1.1073 -1.3248 -0.9887
  164SAPE   H2S18419   3.242   5.405   6.366 -0.8120 -0.1587  0.3685
  164SAPE    C318420   2.762   5.485   6.399  0.1426 -0.1409  0.4339
  164SAPE    HX18421   2.768   5.390   6.342 -0.6195 -0.4614  0.8805
  164SAPE    HY18422   2.664   5.532   6.377 -0.4366 -1.4636  0.0398
  164SAPE   O3118423   2.768   5.445   6.540  0.0016  0.1449  0.0768
  164SAPE   C3118424   2.672   5.362   6.582  0.0722 -0.5188  0.0707
  164SAPE   O3218425   2.592   5.302   6.512  0.5420 -0.1921  0.4092
  164SAPE   C3218426   2.690   5.341   6.729 -0.4374 -0.8006 -0.0769
  164SAPE   H2X18427   2.761   5.418   6.767 -2.5531  1.3062 -0.1275
  164SAPE   H2Y18428   2.738   5.243   6.747  0.8548 -0.7315 -2.6325
  164SAPE   C2318429   3.361   5.577   6.454 -0.2104  0.4421 -0.4590
  164SAPE   H3R18430   3.335   5.659   6.525 -0.8937 -1.4169  1.5104
  164SAPE   H3S18431   3.406   5.620   6.361  0.2947  1.6373  0.3134
  164SAPE   C2418432   3.481   5.489   6.509  0.0752  0.5206 -0.0730
  164SAPE   H4R18433   3.454   5.443   6.607  0.9769  1.3545  0.5872
  164SAPE   H4S18434   3.555   5.571   6.519 -0.1701  0.9173 -1.4662
  164SAPE   C2518435   3.528   5.381   6.420 -0.1877 -0.5641 -0.4816
  164SAPE   H5R18436   3.444   5.318   6.386 -1.3591  1.2265 -1.0259
  164SAPE   C2618437   3.659   5.356   6.395  0.2872 -0.0760  0.8213
  164SAPE   H6R18438   3.689   5.265   6.341 -1.4627  0.4936 -1.2362
  164SAPE   C2718439   3.773   5.443   6.445 -0.4366 -0.5582 -0.0421
  164SAPE   H7R18440   3.752   5.499   6.539  0.7270 -0.2716  0.0565
  164SAPE   H7S18441   3.793   5.517   6.365  0.1683  0.3523  0.9254
  164SAPE   C2818442   3.904   5.361   6.464  0.3097 -0.1844  0.5780
  164SAPE   H8R18443   3.931   5.318   6.366  2.8160  0.7997  0.7606
  164SAPE   C2918444   3.989   5.342   6.566 -0.6253 -0.1369 -0.8609
  164SAPE   H9R18445   4.069   5.268   6.557 -1.9828 -1.4501 -2.9415
  164SAPE  C21018446   3.973   5.404   6.708 -0.4115  0.1234 -0.0175
  164SAPE  H10R18447   3.978   5.515   6.709 -0.0504  0.1182 -0.7041
  164SAPE  H10S18448   4.059   5.366   6.766 -0.6848  0.0001  0.3087
  164SAPE  C21118449   3.848   5.365   6.784 -0.7302  0.2094  0.4723
  164SAPE  H11R18450   3.767   5.318   6.726 -0.2285 -0.9473  0.6873
  164SAPE  C21218451   3.829   5.376   6.914  0.5439  0.1290 -0.1132
  164SAPE  H12R18452   3.737   5.341   6.962 -0.7829  1.6134 -1.4733
  164SAPE  C21318453   3.933   5.420   7.016  0.5779 -0.4219 -0.5334
  164SAPE  H13R18454   3.933   5.531   7.022 -1.0504 -0.4337  0.4545
  164SAPE  H13S18455   4.035   5.397   6.981  0.2405 -0.3636 -1.5875
  164SAPE  C21418456   3.918   5.366   7.158  0.2459 -0.1294  0.1311
  164SAPE  H14R18457   3.938   5.258   7.164 -0.7181 -0.2836  0.7260
  164SAPE  C21518458   3.904   5.426   7.274  0.4268  0.1839 -0.4063
  164SAPE  H15R18459   3.897   5.373   7.370  1.1887  3.2305  1.4638
  164SAPE  C21618460   3.893   5.575   7.295  0.2249  0.4655  0.1377
  164SAPE  H16R18461   3.914   5.643   7.209 -1.5972  0.4189 -0.3755
  164SAPE  H16S18462   3.974   5.604   7.366 -0.2750 -0.6430  1.1889
  164SAPE  C21718463   3.748   5.621   7.345  1.4293 -0.2371 -0.0264
  164SAPE  H17R18464   3.687   5.609   7.253 -0.3269 -0.0831  1.0691
  164SAPE  H17S18465   3.760   5.725   7.380  1.1948 -0.4430  0.6811
  164SAPE  C21818466   3.677   5.535   7.459 -0.4386 -0.2642  0.0520
  164SAPE  H18R18467   3.649   5.439   7.411  0.1111  0.4922 -1.8500
  164SAPE  H18S18468   3.590   5.592   7.496  0.9648  1.3223  1.0722
  164SAPE  C21918469   3.769   5.533   7.583  0.0095  0.2884  0.1902
  164SAPE  H19R18470   3.789   5.640   7.604 -2.1539  0.9200 -0.6386
  164SAPE  H19S18471   3.870   5.489   7.570 -0.6178 -1.6818  1.3725
  164SAPE  C22018472   3.690   5.479   7.708 -0.1991 -0.5567  0.2679
  164SAPE  H20R18473   3.668   5.370   7.695 -0.0920 -0.4046 -1.3233
  164SAPE  H20S18474   3.600   5.539   7.733 -1.0596 -1.8746  0.4847
  164SAPE  H20T18475   3.759   5.482   7.795  0.2450 -0.2525 -0.0908
  164SAPE   C3318476   2.554   5.347   6.804 -0.0739 -0.4586 -0.7369
  164SAPE   H3X18477   2.491   5.259   6.780 -2.0486  0.9806 -1.0671
  164SAPE   H3Y18478   2.488   5.434   6.786 -0.0173 -0.6197 -1.7609
  164SAPE   C3418479   2.570   5.345   6.954 -0.5096  0.1974 -0.0420
  164SAPE   H4X18480   2.636   5.431   6.979 -1.5175  0.6352  1.2297
  164SAPE   H4Y18481   2.630   5.256   6.979  1.0518  0.9351 -0.9982
  164SAPE   C3518482   2.445   5.346   7.034  0.4290 -0.2070  0.4022
  164SAPE   H5X18483   2.388   5.254   7.010 -1.8170  1.1364  0.3533
  164SAPE   H5Y18484   2.383   5.435   7.011  0.5070 -0.5594 -1.3257
  164SAPE   C3618485   2.478   5.358   7.184  0.0424 -0.3932 -0.1061
  164SAPE   H6X18486   2.500   5.458   7.228  1.2412 -1.3420  1.5540
  164SAPE   H6Y18487   2.564   5.291   7.210  1.4541  1.5145  0.3843
  164SAPE   C3718488   2.350   5.305   7.256  0.2040  0.9438  0.5165
  164SAPE   H7X18489   2.335   5.210   7.202 -0.4495  1.4759 -0.2647
  164SAPE   H7Y18490   2.266   5.377   7.243  0.7112  1.2657 -1.1944
  164SAPE   C3818491   2.368   5.294   7.406 -0.1303 -0.1993  0.8183
  164SAPE   H8X18492   2.273   5.299   7.464 -0.2674 -0.4812  0.6208
  164SAPE   H8Y18493   2.442   5.368   7.445  1.4586 -0.5372 -1.3399
  164SAPE   C3918494   2.421   5.149   7.433 -0.5848  0.0224 -0.3986
  164SAPE   H9X18495   2.512   5.132   7.372 -0.1928  0.6494  0.0023
  164SAPE   H9Y18496   2.338   5.079   7.410 -0.0228 -1.9895  2.9499
  164SAPE  C31018497   2.457   5.122   7.582 -0.1490 -0.1427 -0.9730
  164SAPE  H10X18498   2.526   5.207   7.602  0.2071  0.0311 -2.8226
  164SAPE  H10Y18499   2.503   5.023   7.599 -1.2866 -0.5301  0.0341
  164SAPE  C31118500   2.343   5.134   7.691 -0.1756  0.3727 -0.0476
  164SAPE  H11X18501   2.281   5.042   7.683  0.0600  0.0910  1.0851
  164SAPE  H11Y18502   2.280   5.224   7.674  0.6551  1.2561  1.3100
  164SAPE  C31218503   2.400   5.126   7.826 -0.6797  0.3089  0.8619
  164SAPE  H12X18504   2.477   5.203   7.850  0.2868 -0.8179  1.4706
  164SAPE  H12Y18505   2.452   5.028   7.831 -0.5599  0.3959  1.4204
  164SAPE  C31318506   2.300   5.148   7.928  0.7476 -0.1517  0.2441
  164SAPE  H13X18507   2.240   5.055   7.917 -0.5361  0.6638  0.1031
  164SAPE  H13Y18508   2.247   5.238   7.889  0.3002 -0.1987  0.7359
  164SAPE  C31418509   2.346   5.170   8.064  0.0307 -0.1454 -0.2903
  164SAPE  H14X18510   2.414   5.255   8.082  1.6618 -1.3365 -0.6224
  164SAPE  H14Y18511   2.392   5.078   8.108 -3.6257 -1.2145  1.7373
  164SAPE  C31518512   2.226   5.189   8.166 -0.1215  0.3044 -0.1540
  164SAPE  H15X18513   2.152   5.108   8.146 -0.5566 -0.3171  3.2651
  164SAPE  H15Y18514   2.181   5.289   8.147  2.0397  1.2480 -0.6440
  164SAPE  C31618515   2.256   5.171   8.314  0.4879 -0.2232 -0.2684
  164SAPE  H16X18516   2.348   5.225   8.344  0.5142  0.8715 -2.1804
  164SAPE  H16Y18517   2.255   5.061   8.332 -3.4376 -0.4896 -1.1307
  164SAPE  C31718518   2.151   5.246   8.402 -0.4280 -0.5111 -1.3015
  164SAPE  H17X18519   2.050   5.206   8.383 -0.2551 -0.9204 -1.3701
  164SAPE  H17Y18520   2.163   5.353   8.374  2.0575 -0.5345 -0.6260
  164SAPE  C31818521   2.193   5.248   8.553  0.1710  0.4862 -0.6529
  164SAPE  H18X18522   2.240   5.343   8.585 -1.2059  0.7502  0.7135
  164SAPE  H18Y18523   2.266   5.165   8.564 -0.5420 -0.0243  0.4091
  164SAPE  H18Z18524   2.105   5.227   8.618  1.2267  0.0031  0.6628
  165SAPE     N18525   4.563   0.991   6.414 -0.4827 -0.2227  0.9987
  165SAPE   HN118526   4.569   0.913   6.483 -1.5345 -1.2540 -0.0223
  165SAPE   HN218527   4.478   1.050   6.423  0.1536  0.6251  1.5889
  165SAPE   HN318528   4.551   0.950   6.319 -1.7535  0.7184  0.7304
  165SAPE   C1218529   4.683   1.077   6.419 -0.4859  0.4531 -0.5551
  165SAPE  H12A18530   4.767   1.019   6.376  1.0935  2.3789 -0.2238
  165SAPE  H12B18531   4.703   1.112   6.523 -1.0183 -0.9491  0.0464
  165SAPE   C1118532   4.661   1.202   6.328  0.5458  0.3252  0.3076
  165SAPE  H11A18533   4.586   1.180   6.248 -0.0684 -0.0297  0.9749
  165SAPE  H11B18534   4.760   1.226   6.282  0.0920 -1.1268 -1.5863
  165SAPE     P18535   4.464   1.338   6.414 -0.0829  0.1425  0.1090
  165SAPE   O1318536   4.426   1.427   6.304 -0.5003 -0.9937  0.0113
  165SAPE   O1418537   4.390   1.208   6.418  0.3818 -0.5290  0.0819
  165SAPE   O1218538   4.617   1.316   6.395  0.4575 -0.3687 -0.3822
  165SAPE   O1118539   4.456   1.408   6.553 -0.3533  0.3541  0.6919
  165SAPE    C118540   4.357   1.506   6.574  0.2135  0.4586 -0.3160
  165SAPE    HA18541   4.336   1.576   6.490 -0.4060  0.5808 -0.0643
  165SAPE    HB18542   4.256   1.463   6.591  1.1125 -2.2441 -1.2860
  165SAPE    C218543   4.400   1.593   6.698  0.1883  0.0181 -0.5944
  165SAPE    HS18544   4.499   1.636   6.672  0.8353 -0.8426  0.3424
  165SAPE   O2118545   4.390   1.511   6.812  0.3224 -0.5900  0.2246
  165SAPE   C2118546   4.494   1.522   6.899  0.0962 -0.0737 -0.4731
  165SAPE   O2218547   4.594   1.588   6.874  0.2442 -0.3001 -0.2572
  165SAPE   C2218548   4.471   1.434   7.029  0.0038 -0.1245  0.2668
  165SAPE   H2R18549   4.371   1.454   7.072  0.2442  1.2724  0.2360
  165SAPE   H2S18550   4.487   1.331   6.990  1.2497  0.1055  0.1145
  165SAPE    C318551   4.304   1.722   6.710  0.0397  0.3095  0.3219
  165SAPE    HX18552   4.199   1.689   6.700  0.4201 -0.9812  0.3709
  165SAPE    HY18553   4.317   1.776   6.614 -2.9830 -1.3994 -1.1948
  165SAPE   O3118554   4.316   1.787   6.834  0.4305  0.3407  0.7152
  165SAPE   C3118555   4.411   1.867   6.842 -0.5152 -0.0071 -1.2880
  165SAPE   O3218556   4.484   1.903   6.751  0.1568 -0.1541 -0.1722
  165SAPE   C3218557   4.426   1.918   6.983 -0.4426 -0.2991 -0.1641
  165SAPE   H2X18558   4.344   1.990   7.002  0.6867  1.5850 -2.0326
  165SAPE   H2Y18559   4.518   1.978   6.997 -1.2243  1.1307 -0.9678
  165SAPE   C2318560   4.586   1.452   7.138  0.4330  0.0786  0.3349
  165SAPE   H3R18561   4.564   1.552   7.182 -1.7515 -0.6967  1.1507
  165SAPE   H3S18562   4.685   1.452   7.088  0.3466  2.3930  0.0443
  165SAPE   C2418563   4.585   1.330   7.234 -0.5104 -1.0698 -0.4280
  165SAPE   H4R18564   4.661   1.359   7.310  0.5716 -2.2650 -1.0320
  165SAPE   H4S18565   4.638   1.245   7.186  1.4524 -0.2639  0.2061
  165SAPE   C2518566   4.450   1.300   7.288  0.0515  0.4946  0.2175
  165SAPE   H5R18567   4.384   1.254   7.213  0.0739  0.5658  0.1541
  165SAPE   C2618568   4.394   1.336   7.408 -0.6413  0.0821  0.2594
  165SAPE   H6R18569   4.290   1.304   7.419 -0.0753 -1.7550  0.5978
  165SAPE   C2718570   4.461   1.420   7.510 -0.7116  0.2523  0.3618
  165SAPE   H7R18571   4.396   1.507   7.532 -1.4758 -0.5528  1.4084
  165SAPE   H7S18572   4.552   1.473   7.473 -1.2646  0.1845 -1.1652
  165SAPE   C2818573   4.509   1.337   7.625  0.1646  0.2862  0.0943
  165SAPE   H8R18574   4.527   1.231   7.603 -0.1981 -0.6759  3.7360
  165SAPE   C2918575   4.514   1.375   7.753  0.5778 -0.3169 -0.2989
  165SAPE   H9R18576   4.537   1.300   7.830 -2.3563  1.2817  2.3677
  165SAPE  C21018577   4.457   1.507   7.799  0.0269  0.7080  0.3302
  165SAPE  H10R18578   4.346   1.498   7.809 -0.1650 -0.0391 -1.8621
  165SAPE  H10S18579   4.465   1.588   7.722 -0.4737  1.6060  1.1948
  165SAPE  C21118580   4.524   1.572   7.918  0.8859 -0.2628  0.1052
  165SAPE  H11R18581   4.619   1.617   7.887  0.6489  1.1117  1.2055
  165SAPE  C21218582   4.496   1.570   8.052 -1.1489 -0.9103  0.2303
  165SAPE  H12R18583   4.547   1.641   8.119  0.3454  1.4377 -3.0932
  165SAPE  C21318584   4.382   1.492   8.107 -0.7086  0.3415 -0.0821
  165SAPE  H13R18585   4.410   1.456   8.209 -3.2318 -0.8306  0.2801
  165SAPE  H13S18586   4.376   1.392   8.060  0.8129 -0.0141  0.4167
  165SAPE  C21418587   4.248   1.572   8.108 -0.7139 -0.3900  0.5110
  165SAPE  H14R18588   4.219   1.608   8.008 -1.1104 -0.0746  0.7345
  165SAPE  C21518589   4.162   1.568   8.209  0.3244 -0.1463  1.1007
  165SAPE  H15R18590   4.076   1.636   8.199  1.6889  1.3646 -1.2866
  165SAPE  C21618591   4.178   1.509   8.339  0.0288 -0.5597 -0.5602
  165SAPE  H16R18592   4.216   1.405   8.330  0.3603 -0.3709 -1.4095
  165SAPE  H16S18593   4.081   1.510   8.393  0.3010 -0.7429 -0.0627
  165SAPE  C21718594   4.273   1.592   8.436  0.7187 -0.1566  0.1481
  165SAPE  H17R18595   4.359   1.639   8.383 -1.6209  0.0842 -3.8217
  165SAPE  H17S18596   4.311   1.531   8.521 -0.1198  2.1541  2.2874
  165SAPE  C21818597   4.193   1.714   8.486 -0.1169  0.9090 -0.9084
  165SAPE  H18R18598   4.093   1.690   8.527 -0.0944  2.6311  0.2773
  165SAPE  H18S18599   4.182   1.793   8.408 -0.0323  1.8464  0.0079
  165SAPE  C21918600   4.278   1.780   8.603  1.1237  0.6188  0.2948
  165SAPE  H19R18601   4.362   1.835   8.557  1.6624 -1.0205 -0.7827
  165SAPE  H19S18602   4.331   1.714   8.675  1.4947  1.4289  0.7834
  165SAPE  C22018603   4.187   1.883   8.685 -0.7751  0.3074 -1.1812
  165SAPE  H20R18604   4.097   1.830   8.722 -0.0799 -1.0007 -1.2612
  165SAPE  H20S18605   4.154   1.957   8.609  1.4464 -0.0801 -2.6307
  165SAPE  H20T18606   4.227   1.931   8.777 -0.5708 -0.6081 -0.7752
  165SAPE   C3318607   4.424   1.798   7.081  0.8306 -0.3117  0.4837
  165SAPE   H3X18608   4.511   1.735   7.051  0.6171 -0.4804  0.2050
  165SAPE   H3Y18609   4.330   1.741   7.065  0.7118  0.3074 -1.2738
  165SAPE   C3418610   4.440   1.827   7.236  0.3254 -0.8397  0.1445
  165SAPE   H4X18611   4.380   1.748   7.286  1.6961 -1.9481  0.0924
  165SAPE   H4Y18612   4.400   1.930   7.249 -2.1855 -1.8976  1.4836
  165SAPE   C3518613   4.583   1.827   7.283 -0.1808  0.3215 -0.3125
  165SAPE   H5X18614   4.653   1.866   7.207 -0.2981 -2.2574 -1.8505
  165SAPE   H5Y18615   4.604   1.720   7.301 -0.1416  0.5504  1.0936
  165SAPE   C3618616   4.601   1.909   7.416  0.8252 -0.6099 -0.3950
  165SAPE   H6X18617   4.589   2.019   7.402  0.7398 -0.2141  2.3352
  165SAPE   H6Y18618   4.692   1.876   7.470  2.6097  1.5392 -1.8784
  165SAPE   C3718619   4.482   1.883   7.512  0.4102  0.4997  0.2195
  165SAPE   H7X18620   4.471   1.773   7.522  0.2372  0.2222 -2.4564
  165SAPE   H7Y18621   4.384   1.910   7.468 -1.2908 -1.3347  2.5817
  165SAPE   C3818622   4.504   1.948   7.648  0.5524 -0.7371  0.5364
  165SAPE   H8X18623   4.527   2.056   7.648  0.2942 -0.6750 -0.4116
  165SAPE   H8Y18624   4.590   1.895   7.694  1.3744 -2.0351 -2.2403
  165SAPE   C3918625   4.382   1.921   7.735 -0.0452 -0.0875  0.0361
  165SAPE   H9X18626   4.387   1.811   7.745  1.1116 -0.1884 -1.2996
  165SAPE   H9Y18627   4.292   1.940   7.673 -1.5378 -4.1507  0.6318
  165SAPE  C31018628   4.383   1.977   7.873  0.2161  0.1348  0.0897
  165SAPE  H10X18629   4.399   2.087   7.860 -0.0392  0.2388  0.6259
  165SAPE  H10Y18630   4.469   1.942   7.934 -0.4936  0.1147  1.1167
  165SAPE  C31118631   4.265   1.953   7.963  0.6264  0.4474  0.3143
  165SAPE  H11X18632   4.250   1.846   7.991  0.4661  0.7143  1.2716
  165SAPE  H11Y18633   4.165   1.980   7.924 -0.4596 -0.9409  1.9887
  165SAPE  C31218634   4.291   2.029   8.090  0.2614  0.8357  0.0723
  165SAPE  H12X18635   4.312   2.137   8.073 -0.0042  1.0781  1.2286
  165SAPE  H12Y18636   4.379   1.988   8.143 -1.1800  0.0539  2.0014
  165SAPE  C31318637   4.173   2.032   8.188 -0.1456 -0.1591  0.3055
  165SAPE  H13X18638   4.167   1.930   8.233  0.3139 -0.8442 -1.1463
  165SAPE  H13Y18639   4.081   2.058   8.132  0.9933  0.9614 -1.0959
  165SAPE  C31418640   4.202   2.145   8.295 -0.5216  0.3352 -0.0867
  165SAPE  H14X18641   4.242   2.239   8.250 -0.5451  0.0509 -0.7025
  165SAPE  H14Y18642   4.270   2.102   8.371  2.3536  2.2711 -1.3575
  165SAPE  C31518643   4.067   2.193   8.365  0.3203  0.3233 -0.1305
  165SAPE  H15X18644   4.011   2.106   8.405 -0.1754 -0.1665 -1.8058
  165SAPE  H15Y18645   4.003   2.233   8.283  0.1506 -1.4497 -0.9227
  165SAPE  C31618646   4.105   2.302   8.464 -1.0992  0.0280  0.1379
  165SAPE  H16X18647   4.171   2.364   8.400 -0.3189 -1.6073 -0.7059
  165SAPE  H16Y18648   4.154   2.268   8.559  0.8188 -1.5161 -1.3203
  165SAPE  C31718649   3.991   2.410   8.508 -0.5811  0.0534  0.1307
  165SAPE  H17X18650   3.897   2.356   8.530 -1.4745  0.3001 -2.6339
  165SAPE  H17Y18651   3.975   2.474   8.419  1.3331  1.1266  0.4997
  165SAPE  C31818652   4.035   2.496   8.629  0.0417  0.0805  0.0174
  165SAPE  H18X18653   4.101   2.575   8.588  1.0244 -0.0167  1.3516
  165SAPE  H18Y18654   4.097   2.440   8.702  1.1620 -1.1095 -1.7653
  165SAPE  H18Z18655   3.946   2.528   8.688 -0.0112 -0.1039  0.0376
  166SAPE     N18656   1.208   5.282   6.228 -0.3412 -0.4161 -0.1925
  166SAPE   HN118657   1.137   5.213   6.196  2.0756 -2.6686 -0.9819
  166SAPE   HN218658   1.175   5.337   6.310  1.6334  1.3940 -0.5357
  166SAPE   HN318659   1.225   5.353   6.154 -1.5349  0.0183 -0.0719
  166SAPE   C1218660   1.338   5.209   6.262  0.2047 -0.0393  0.0545
  166SAPE  H12A18661   1.324   5.142   6.350  1.7693  1.4452  1.5011
  166SAPE  H12B18662   1.409   5.288   6.293 -0.5005  1.3224 -1.6565
  166SAPE   C1118663   1.378   5.130   6.140  0.4067  0.0868 -0.7246
  166SAPE  H11A18664   1.302   5.049   6.124 -1.8172  2.1338 -1.1204
  166SAPE  H11B18665   1.468   5.067   6.156  0.6251  0.1472 -1.6502
  166SAPE     P18666   1.501   5.267   5.948  0.1978 -0.0157  0.1019
  166SAPE   O1318667   1.573   5.155   5.887  0.3245  0.1379  0.3271
  166SAPE   O1418668   1.455   5.378   5.865  0.4706  0.4114  0.3798
  166SAPE   O1218669   1.373   5.202   6.014  0.0427 -0.1312  0.1500
  166SAPE   O1118670   1.583   5.322   6.081  0.3362  0.2220 -0.5402
  166SAPE    C118671   1.730   5.315   6.077  0.2088  0.3080  0.4077
  166SAPE    HA18672   1.772   5.266   5.986  1.5959  1.1634  0.5538
  166SAPE    HB18673   1.785   5.412   6.083  1.3682 -0.2758 -0.3430
  166SAPE    C218674   1.794   5.231   6.194 -0.1176  0.4763 -0.2988
  166SAPE    HS18675   1.745   5.131   6.202 -1.6878  1.3073  0.8272
  166SAPE   O2118676   1.777   5.309   6.314 -0.1530 -0.3834 -0.1089
  166SAPE   C2118677   1.694   5.266   6.407 -0.4006  0.1958 -0.4808
  166SAPE   O2218678   1.621   5.171   6.391 -0.1293 -0.2813 -0.2159
  166SAPE   C2218679   1.691   5.381   6.525  0.0316  0.3568 -0.6605
  166SAPE   H2R18680   1.782   5.352   6.580 -0.1504  0.7814 -0.1275
  166SAPE   H2S18681   1.700   5.484   6.483  2.0590  0.2057 -0.6570
  166SAPE    C318682   1.946   5.203   6.166 -0.0709 -0.6690  0.3328
  166SAPE    HX18683   1.976   5.308   6.147 -2.6805  0.1737  0.4857
  166SAPE    HY18684   1.964   5.156   6.067  0.9832  0.2067  0.0898
  166SAPE   O3118685   2.022   5.138   6.270  0.0724  0.4169 -0.3649
  166SAPE   C3118686   2.137   5.198   6.314  0.9838 -0.2261 -0.7343
  166SAPE   O3218687   2.191   5.290   6.260  0.1932 -0.4553 -0.4188
  166SAPE   C3218688   2.175   5.138   6.447  0.1247 -0.4886 -0.1434
  166SAPE   H2X18689   2.284   5.117   6.457  0.5792  1.7997  0.2120
  166SAPE   H2Y18690   2.130   5.039   6.468  2.7789 -1.4522  1.5015
  166SAPE   C2318691   1.557   5.368   6.611  0.1602 -0.6848 -0.1368
  166SAPE   H3R18692   1.511   5.267   6.599 -0.4438 -0.5507  0.9740
  166SAPE   H3S18693   1.493   5.451   6.576  0.2068 -0.8797 -0.7002
  166SAPE   C2418694   1.586   5.390   6.766 -0.4812  0.3967  0.7864
  166SAPE   H4R18695   1.657   5.475   6.762  1.1095 -0.9137 -2.4500
  166SAPE   H4S18696   1.653   5.315   6.813  1.1847  1.3183 -0.0093
  166SAPE   C2518697   1.459   5.418   6.842 -0.1668 -0.3257 -0.0240
  166SAPE   H5R18698   1.384   5.480   6.791 -2.0545 -1.3929  1.3202
  166SAPE   C2618699   1.430   5.408   6.973 -0.3533 -0.3787 -1.0038
  166SAPE   H6R18700   1.326   5.429   7.004  0.3976 -0.2693  1.6855
  166SAPE   C2718701   1.532   5.354   7.076 -0.1599  0.0305  0.3927
  166SAPE   H7R18702   1.636   5.353   7.038 -0.7430 -2.2051 -1.4204
  166SAPE   H7S18703   1.496   5.250   7.096 -1.9079  0.4106 -0.5864
  166SAPE   C2818704   1.526   5.442   7.194  0.4148  0.1487 -0.7101
  166SAPE   H8R18705   1.532   5.549   7.171  2.7001  0.3790  0.6453
  166SAPE   C2918706   1.503   5.410   7.326 -0.1005  0.6654  0.3300
  166SAPE   H9R18707   1.478   5.481   7.406 -1.2700 -1.8211  2.2964
  166SAPE  C21018708   1.484   5.269   7.383 -0.6322 -0.1554 -0.2071
  166SAPE  H10R18709   1.529   5.201   7.307 -2.3448 -1.6572  0.0510
  166SAPE  H10S18710   1.375   5.254   7.370 -0.4569 -1.5998 -0.1907
  166SAPE  C21118711   1.534   5.220   7.513  0.3145 -0.6940 -0.9005
  166SAPE  H11R18712   1.623   5.156   7.510  0.8988 -0.2115  2.2577
  166SAPE  C21218713   1.468   5.245   7.631 -0.4362  0.1996  0.3875
  166SAPE  H12R18714   1.525   5.212   7.719  1.3329  2.1279  0.0554
  166SAPE  C21318715   1.346   5.320   7.671  0.1022  0.0558  0.5162
  166SAPE  H13R18716   1.283   5.326   7.580 -0.7992  2.4938  1.2174
  166SAPE  H13S18717   1.377   5.426   7.680 -0.5392  0.4504 -1.4720
  166SAPE  C21418718   1.258   5.263   7.773  0.5711  0.2573  0.3564
  166SAPE  H14R18719   1.179   5.197   7.734 -0.4430  1.9179 -0.5558
  166SAPE  C21518720   1.279   5.248   7.903  1.1479 -1.1035  0.6786
  166SAPE  H15R18721   1.192   5.223   7.965  0.3727  1.2356  0.6371
  166SAPE  C21618722   1.387   5.322   7.979 -0.0688 -0.1772  0.2042
  166SAPE  H16R18723   1.404   5.423   7.937 -1.1991 -0.3906 -0.8170
  166SAPE  H16S18724   1.480   5.262   7.966 -0.0525 -0.0669 -0.1968
  166SAPE  C21718725   1.354   5.329   8.135 -0.1794  0.4541  0.1915
  166SAPE  H17R18726   1.358   5.227   8.179 -1.6672 -0.0423 -0.7206
  166SAPE  H17S18727   1.251   5.367   8.155 -0.8638 -1.4362  0.5522
  166SAPE  C21818728   1.449   5.425   8.202 -0.4466 -0.2939  0.8577
  166SAPE  H18R18729   1.428   5.527   8.164 -1.3059 -0.9972 -0.6252
  166SAPE  H18S18730   1.552   5.401   8.168 -0.4570  2.0627 -1.1151
  166SAPE  C21918731   1.458   5.423   8.357 -0.7033 -0.1265 -0.8231
  166SAPE  H19R18732   1.521   5.510   8.384  1.1259 -2.0346  1.5407
  166SAPE  H19S18733   1.496   5.328   8.401  0.3513  0.8617  0.4591
  166SAPE  C22018734   1.326   5.441   8.430 -0.4666  0.2173 -0.1090
  166SAPE  H20R18735   1.268   5.532   8.402  0.5135  0.6693 -0.7420
  166SAPE  H20S18736   1.339   5.431   8.539  1.8809  0.3930 -0.3246
  166SAPE  H20T18737   1.266   5.351   8.402 -0.4903  0.3489 -0.4916
  166SAPE   C3318738   2.125   5.222   6.563 -0.0516 -0.4396  0.0103
  166SAPE   H3X18739   2.018   5.247   6.546  0.7534  2.4180 -1.5029
  166SAPE   H3Y18740   2.158   5.327   6.551 -1.0569 -0.2560 -1.4647
  166SAPE   C3418741   2.145   5.166   6.706  0.1626 -0.1749  0.8433
  166SAPE   H4X18742   2.254   5.154   6.724 -0.0012 -2.2814  0.7300
  166SAPE   H4Y18743   2.099   5.065   6.715  0.8831 -0.7623 -1.5337
  166SAPE   C3518744   2.089   5.259   6.808  0.1787 -0.3224  0.5562
  166SAPE   H5X18745   1.992   5.296   6.769  0.2612 -0.8341 -0.1471
  166SAPE   H5Y18746   2.149   5.352   6.818  0.2953 -0.4947  1.5344
  166SAPE   C3618747   2.079   5.194   6.946  0.1219  0.0350  0.0586
  166SAPE   H6X18748   2.184   5.175   6.976 -0.1237  1.1389  1.7704
  166SAPE   H6Y18749   2.025   5.097   6.941  2.5921 -1.4445  0.1782
  166SAPE   C3718750   2.030   5.272   7.067  0.5803 -0.7322  0.6867
  166SAPE   H7X18751   1.937   5.327   7.041  1.3616  1.2468  1.8163
  166SAPE   H7Y18752   2.094   5.363   7.071 -0.4366  0.3896 -3.6249
  166SAPE   C3818753   2.007   5.205   7.200  0.0103  0.0299  0.4472
  166SAPE   H8X18754   2.098   5.150   7.231  0.2917  0.5100  0.4784
  166SAPE   H8Y18755   1.929   5.125   7.204 -1.7081  1.6627  1.0961
  166SAPE   C3918756   1.976   5.304   7.312  0.2944  0.1049  0.3640
  166SAPE   H9X18757   1.886   5.358   7.276 -0.8263 -0.9368  1.4694
  166SAPE   H9Y18758   2.061   5.372   7.333  0.6251 -0.4182  0.7534
  166SAPE  C31018759   1.929   5.245   7.440 -0.5592  0.2160  0.0629
  166SAPE  H10X18760   1.987   5.154   7.466 -0.5787  0.1287 -0.1907
  166SAPE  H10Y18761   1.819   5.227   7.436 -0.4253 -0.8698  0.7088
  166SAPE  C31118762   1.949   5.346   7.554  0.4777 -0.0150  0.3056
  166SAPE  H11X18763   1.893   5.442   7.553  1.6363  0.7004  1.2026
  166SAPE  H11Y18764   2.054   5.382   7.559  0.6709 -0.5738  0.3434
  166SAPE  C31218765   1.918   5.287   7.697  0.3941 -0.1676  0.0750
  166SAPE  H12X18766   2.014   5.233   7.714 -0.1049 -1.0492  0.1209
  166SAPE  H12Y18767   1.833   5.218   7.681 -0.3478  1.0431 -1.5008
  166SAPE  C31318768   1.893   5.388   7.812  1.1244 -0.5755 -0.4089
  166SAPE  H13X18769   1.795   5.442   7.813  0.3888 -1.8625 -0.0370
  166SAPE  H13Y18770   1.961   5.474   7.801 -0.6582  0.6913 -2.2793
  166SAPE  C31418771   1.932   5.340   7.955 -0.7858  0.0662 -0.1565
  166SAPE  H14X18772   1.960   5.435   8.007  0.1543  0.0971 -0.7040
  166SAPE  H14Y18773   2.009   5.260   7.957 -1.6934 -0.8156  1.1232
  166SAPE  C31518774   1.809   5.270   8.017 -0.1101  0.6075 -0.9101
  166SAPE  H15X18775   1.771   5.198   7.943  0.7373 -0.4590 -0.3409
  166SAPE  H15Y18776   1.725   5.342   8.021  1.0103  1.9063  1.0481
  166SAPE  C31618777   1.846   5.215   8.155  0.6723  0.9074  0.0885
  166SAPE  H16X18778   1.871   5.293   8.229  0.7742 -0.6183  1.7517
  166SAPE  H16Y18779   1.935   5.150   8.147  0.2637  0.2513  0.7027
  166SAPE  C31718780   1.745   5.106   8.212  0.2101 -0.3891 -0.2195
  166SAPE  H17X18781   1.656   5.172   8.219  0.9678  0.5023  1.6908
  166SAPE  H17Y18782   1.786   5.082   8.312  1.9125  0.9921 -0.5420
  166SAPE  C31818783   1.723   4.986   8.116 -0.3826  0.4463  0.8367
  166SAPE  H18X18784   1.817   4.933   8.090 -0.3806  0.7469  0.2096
  166SAPE  H18Y18785   1.682   5.021   8.019  0.4253  0.5274  0.5138
  166SAPE  H18Z18786   1.653   4.915   8.164 -0.6907  1.2876  1.6586
  167SAPE     N18787   2.475   4.654   6.316 -0.6768  0.6397  0.1518
  167SAPE   HN118788   2.377   4.686   6.328 -1.5053 -1.4783 -0.4716
  167SAPE   HN218789   2.474   4.552   6.295 -0.1515  0.7679 -0.5356
  167SAPE   HN318790   2.540   4.665   6.397 -0.3832 -0.7911  0.1467
  167SAPE   C1218791   2.526   4.728   6.199  0.3299  0.8530  0.0890
  167SAPE  H12A18792   2.487   4.831   6.216  0.3733  0.6817  1.2530
  167SAPE  H12B18793   2.473   4.691   6.108  0.4721 -0.6078  0.5871
  167SAPE   C1118794   2.673   4.707   6.171  0.6066 -0.2302 -0.9570
  167SAPE  H11A18795   2.736   4.740   6.257 -1.4589  0.4929  0.3652
  167SAPE  H11B18796   2.703   4.771   6.085  1.0786  1.8932  0.6868
  167SAPE     P18797   2.823   4.488   6.154  0.0853 -0.3032 -0.0368
  167SAPE   O1318798   2.795   4.343   6.162 -0.0397  0.4250  0.4609
  167SAPE   O1418799   2.907   4.519   6.038 -0.3274  0.0025  0.4469
  167SAPE   O1218800   2.689   4.569   6.140  0.3265 -0.0094  0.4000
  167SAPE   O1118801   2.904   4.542   6.283 -0.2038 -0.3511  0.3060
  167SAPE    C118802   3.005   4.457   6.346 -0.3000 -1.3193  0.0607
  167SAPE    HA18803   2.986   4.350   6.321 -0.8474 -1.3956  0.7679
  167SAPE    HB18804   3.107   4.481   6.309  0.3359  0.7637  2.8177
  167SAPE    C218805   3.009   4.478   6.497  0.0265  0.6663  0.7373
  167SAPE    HS18806   3.076   4.407   6.548  0.2471  1.1326  1.1125
  167SAPE   O2118807   2.874   4.466   6.542  0.4417 -0.1827  0.3430
  167SAPE   C2118808   2.826   4.344   6.540 -0.7848  0.3964 -0.1838
  167SAPE   O2218809   2.888   4.242   6.520  0.7234  0.2338  0.2682
  167SAPE   C2218810   2.679   4.348   6.566 -0.4911  0.3656  0.3284
  167SAPE   H2R18811   2.630   4.434   6.516 -0.6050  0.7751  1.1189
  167SAPE   H2S18812   2.653   4.247   6.527  3.4592 -1.0325  0.9395
  167SAPE    C318813   3.065   4.619   6.533 -0.2037  0.7231 -0.3119
  167SAPE    HX18814   3.015   4.698   6.474  0.5056 -1.0390 -3.5403
  167SAPE    HY18815   3.168   4.612   6.490  0.4047 -0.3727  1.2229
  167SAPE   O3118816   3.075   4.643   6.675  0.1731  0.1635  0.2614
  167SAPE   C3118817   2.974   4.719   6.727  0.0697  0.1705 -0.3256
  167SAPE   O3218818   2.873   4.760   6.672 -0.2711  0.3751 -0.1602
  167SAPE   C3218819   2.998   4.736   6.877 -0.2634  0.0746  0.2352
  167SAPE   H2X18820   3.106   4.742   6.900  0.0354 -1.4950 -0.5981
  167SAPE   H2Y18821   2.956   4.646   6.927 -0.1871  0.1179  0.3765
  167SAPE   C2318822   2.643   4.367   6.717 -0.1163 -0.4493 -0.2314
  167SAPE   H3R18823   2.698   4.284   6.766  1.0227  0.3747 -0.0812
  167SAPE   H3S18824   2.536   4.349   6.741 -0.7074  1.7169 -1.0606
  167SAPE   C2418825   2.684   4.503   6.777  0.1554 -0.3404  1.0935
  167SAPE   H4R18826   2.630   4.576   6.713  0.0663  0.6500  2.2637
  167SAPE   H4S18827   2.794   4.512   6.768  0.1933 -2.3944 -3.5584
  167SAPE   C2518828   2.620   4.524   6.914 -0.0100  1.0192 -0.5999
  167SAPE   H5R18829   2.521   4.571   6.926 -0.5661 -0.4445  1.0772
  167SAPE   C2618830   2.664   4.474   7.031 -1.0875  0.5119  0.8331
  167SAPE   H6R18831   2.610   4.495   7.125 -0.4024  0.7068  1.1878
  167SAPE   C2718832   2.791   4.386   7.050 -0.4621 -0.0684  0.1222
  167SAPE   H7R18833   2.856   4.389   6.960  0.2424  2.3166  0.6405
  167SAPE   H7S18834   2.777   4.276   7.059  2.8371 -0.5955  0.1878
  167SAPE   C2818835   2.876   4.437   7.168  0.4766  0.9098 -0.0294
  167SAPE   H8R18836   2.971   4.489   7.150  1.2156 -1.2006 -3.0912
  167SAPE   C2918837   2.856   4.388   7.293 -0.0758  0.4399  0.4470
  167SAPE   H9R18838   2.934   4.401   7.369 -0.2755 -1.6798  1.0801
  167SAPE  C21018839   2.748   4.288   7.339 -0.5520 -0.2530 -0.3502
  167SAPE  H10R18840   2.778   4.193   7.291  2.7136  1.1101 -1.2801
  167SAPE  H10S18841   2.652   4.313   7.290  0.0806  0.4342 -1.2658
  167SAPE  C21118842   2.735   4.281   7.490 -0.2594 -0.0006  0.1214
  167SAPE  H11R18843   2.805   4.208   7.533  0.2281 -0.1878 -0.9364
  167SAPE  C21218844   2.656   4.358   7.563  0.1592  0.4714 -0.7538
  167SAPE  H12R18845   2.690   4.364   7.668 -0.2705 -0.7861 -0.5153
  167SAPE  C21318846   2.551   4.465   7.519  0.0190 -0.3990 -0.7875
  167SAPE  H13R18847   2.455   4.419   7.489 -0.6482  0.3335  0.1765
  167SAPE  H13S18848   2.580   4.508   7.421 -1.6441 -0.6888 -1.4350
  167SAPE  C21418849   2.532   4.578   7.617  0.6956 -0.5376  0.5197
  167SAPE  H14R18850   2.561   4.553   7.720 -1.7322  0.7885  1.6215
  167SAPE  C21518851   2.467   4.697   7.595  0.0878  0.5381  0.1981
  167SAPE  H15R18852   2.442   4.764   7.679 -1.6176 -0.6635  0.7058
  167SAPE  C21618853   2.397   4.731   7.465 -0.1601 -0.0895 -0.0308
  167SAPE  H16R18854   2.313   4.800   7.488 -0.1328  0.0158 -0.2405
  167SAPE  H16S18855   2.351   4.641   7.418  2.5195 -1.0762 -0.9426
  167SAPE  C21718856   2.499   4.784   7.370  0.0735 -0.3321  0.3299
  167SAPE  H17R18857   2.585   4.716   7.356  2.4419  2.4466  0.5680
  167SAPE  H17S18858   2.538   4.883   7.400 -2.8420  1.3391 -0.9691
  167SAPE  C21818859   2.438   4.806   7.239 -0.1023  0.2407 -0.2105
  167SAPE  H18R18860   2.358   4.883   7.245  0.0251  0.3599 -0.0365
  167SAPE  H18S18861   2.396   4.708   7.209  0.9246 -0.6425  1.1067
  167SAPE  C21918862   2.542   4.857   7.136 -0.0636 -0.4708 -0.7501
  167SAPE  H19R18863   2.622   4.781   7.133  0.4725  0.0014  0.5668
  167SAPE  H19S18864   2.601   4.941   7.179  1.9867 -2.5387  0.7012
  167SAPE  C22018865   2.490   4.885   6.991 -0.5924  0.2583  0.0721
  167SAPE  H20R18866   2.575   4.928   6.934  0.2778  0.3917  1.4231
  167SAPE  H20S18867   2.408   4.960   6.993  0.4893  1.4708  2.5457
  167SAPE  H20T18868   2.462   4.795   6.932  0.9830  0.3155 -0.8147
  167SAPE   C3318869   2.908   4.849   6.933 -0.3183  0.1331 -0.5325
  167SAPE   H3X18870   2.803   4.835   6.899 -1.1083 -1.0644  2.0845
  167SAPE   H3Y18871   2.944   4.948   6.897 -0.0347  0.8199  1.4688
  167SAPE   C3418872   2.923   4.844   7.093  0.1174 -0.4955 -0.5126
  167SAPE   H4X18873   2.915   4.736   7.118  3.0178 -0.4982  0.6736
  167SAPE   H4Y18874   2.853   4.915   7.142  0.4002 -0.8144  0.3638
  167SAPE   C3518875   3.064   4.875   7.151 -0.9407 -0.4395  0.1222
  167SAPE   H5X18876   3.102   4.975   7.120 -0.7444  0.1620  2.1116
  167SAPE   H5Y18877   3.140   4.805   7.111  3.7909  2.1549  3.5575
  167SAPE   C3618878   3.078   4.860   7.306 -0.4284 -0.2407 -0.4463
  167SAPE   H6X18879   3.006   4.927   7.357 -1.0050 -3.0529  2.8304
  167SAPE   H6Y18880   3.184   4.880   7.331 -0.1625 -1.3221 -0.6520
  167SAPE   C3718881   3.039   4.721   7.360 -0.2078 -0.5042  0.1374
  167SAPE   H7X18882   3.113   4.648   7.321 -0.0970  0.0371 -0.6832
  167SAPE   H7Y18883   2.935   4.696   7.330 -0.9026  1.9528  0.2948
  167SAPE   C3818884   3.045   4.720   7.511 -1.2755  0.0594 -0.3917
  167SAPE   H8X18885   2.975   4.799   7.547  0.9212  2.8646 -1.8762
  167SAPE   H8Y18886   3.142   4.768   7.537 -1.8707  1.3924 -0.5482
  167SAPE   C3918887   3.036   4.586   7.587  0.2238 -0.3552  0.4991
  167SAPE   H9X18888   3.120   4.522   7.550  0.5980  1.4971 -2.1094
  167SAPE   H9Y18889   2.947   4.530   7.551  1.5812 -1.7255 -0.9205
  167SAPE  C31018890   3.045   4.607   7.741  0.4236  0.4523  0.2515
  167SAPE  H10X18891   3.105   4.699   7.760  1.2134  0.1909 -0.8642
  167SAPE  H10Y18892   3.095   4.519   7.786  0.9207  1.3103  1.4463
  167SAPE  C31118893   2.905   4.633   7.792 -0.4851 -0.1366  0.5699
  167SAPE  H11X18894   2.847   4.538   7.786 -0.8814  0.1097  0.4552
  167SAPE  H11Y18895   2.841   4.699   7.730  0.1059 -0.3480 -0.2879
  167SAPE  C31218896   2.912   4.702   7.926 -0.8901 -0.0689  0.0751
  167SAPE  H12X18897   2.808   4.720   7.962 -1.4853  0.9032 -2.0033
  167SAPE  H12Y18898   2.952   4.804   7.907 -1.7870 -0.1336 -2.5177
  167SAPE  C31318899   2.989   4.642   8.039 -0.1674 -0.0011 -0.6478
  167SAPE  H13X18900   3.096   4.621   8.015 -0.7701 -1.5910 -2.1343
  167SAPE  H13Y18901   2.964   4.536   8.058  0.3942 -0.1671 -0.8180
  167SAPE  C31418902   2.978   4.708   8.176  0.3140 -0.2420  0.0827
  167SAPE  H14X18903   2.887   4.684   8.235  0.5783  1.3655  1.2170
  167SAPE  H14Y18904   2.988   4.819   8.176  1.0203 -0.2934 -0.8285
  167SAPE  C31518905   3.090   4.651   8.257 -0.8292  0.2467  0.0656
  167SAPE  H15X18906   3.190   4.672   8.214 -1.1951  2.6612  0.2642
  167SAPE  H15Y18907   3.087   4.541   8.242  2.5431  0.3070 -2.1446
  167SAPE  C31618908   3.098   4.698   8.396  0.5113 -0.4379  0.0342
  167SAPE  H16X18909   3.020   4.648   8.456  0.7735 -0.4340  0.3781
  167SAPE  H16Y18910   3.087   4.807   8.414  3.4627 -0.1738  0.7658
  167SAPE  C31718911   3.235   4.652   8.461 -0.7347 -0.0356  0.7070
  167SAPE  H17X18912   3.228   4.682   8.568  2.1558  2.7164  0.2901
  167SAPE  H17Y18913   3.317   4.720   8.428 -0.0836 -0.7077  0.9095
  167SAPE  C31818914   3.274   4.507   8.442  0.7820  0.0531 -0.5321
  167SAPE  H18X18915   3.368   4.477   8.493 -0.1797 -0.7775  0.8209
  167SAPE  H18Y18916   3.285   4.476   8.336  1.9750  1.9528 -1.0167
  167SAPE  H18Z18917   3.199   4.437   8.484  1.7796 -1.8288 -1.7645
  168SAPE     N18918   6.252   6.524   6.305 -0.1896  0.0655 -0.1151
  168SAPE   HN118919   6.220   6.426   6.291  2.3680 -0.8126 -0.3375
  168SAPE   HN218920   6.211   6.593   6.239 -2.2393 -2.3550 -1.5281
  168SAPE   HN318921   6.356   6.525   6.296  0.0794  0.9426  2.2893
  168SAPE   C1218922   6.225   6.550   6.454 -0.2218 -0.3123 -0.7233
  168SAPE  H12A18923   6.292   6.631   6.490  1.5451 -2.0620  0.1025
  168SAPE  H12B18924   6.266   6.459   6.502 -0.1769 -0.8529 -1.7561
  168SAPE   C1118925   6.075   6.586   6.476 -0.5721  0.2462 -0.6475
  168SAPE  H11A18926   6.067   6.608   6.585  0.6090 -2.3976  0.0659
  168SAPE  H11B18927   6.027   6.490   6.450  1.0002 -0.4557 -1.1165
  168SAPE     P18928   5.881   6.769   6.429  0.2744  0.0218 -0.5000
  168SAPE   O1318929   5.815   6.819   6.310  0.1163  0.1374 -0.6049
  168SAPE   O1418930   5.797   6.682   6.516  0.0034  0.1136  0.3456
  168SAPE   O1218931   6.020   6.690   6.397  0.0925  0.8116  0.0386
  168SAPE   O1118932   5.926   6.900   6.505  0.7032  0.3344 -0.3095
  168SAPE    C118933   6.061   6.933   6.544 -0.5004 -0.3761  0.1606
  168SAPE    HA18934   6.102   6.864   6.621 -1.2010 -1.6799 -0.5953
  168SAPE    HB18935   6.127   6.931   6.454  0.5727  0.5100  0.9024
  168SAPE    C218936   6.069   7.086   6.589  0.6344 -0.0799 -0.2466
  168SAPE    HS18937   6.173   7.101   6.624 -0.0673  1.0027  1.5718
  168SAPE   O2118938   5.973   7.116   6.695  0.4214 -0.3719  0.1738
  168SAPE   C2118939   6.009   7.048   6.807 -0.1292  0.4191  0.2222
  168SAPE   O2218940   6.114   6.989   6.822  0.3567  0.3396 -0.2808
  168SAPE   C2218941   5.903   7.057   6.914 -0.2217  0.0414  0.6835
  168SAPE   H2R18942   5.872   7.163   6.921  0.0585  0.0141  2.7380
  168SAPE   H2S18943   5.818   6.987   6.897 -0.0097  0.1103 -0.8323
  168SAPE    C318944   6.045   7.183   6.472 -0.7250  0.1545  0.1974
  168SAPE    HX18945   5.941   7.185   6.433 -0.4701  1.5213 -0.4587
  168SAPE    HY18946   6.105   7.146   6.386 -1.9154 -2.3675  0.3605
  168SAPE   O3118947   6.071   7.318   6.526  0.0928  0.4784  0.3468
  168SAPE   C3118948   6.198   7.347   6.527  0.0026 -0.6665  0.4014
  168SAPE   O3218949   6.283   7.268   6.483 -0.1879 -0.2480  0.0853
  168SAPE   C3218950   6.233   7.478   6.601  0.1734  0.8681  0.6669
  168SAPE   H2X18951   6.161   7.559   6.573  0.5183  0.4336 -1.7271
  168SAPE   H2Y18952   6.334   7.503   6.563  1.8048 -0.7011  3.6332
  168SAPE   C2318953   5.971   7.025   7.053 -0.3162 -0.0426  0.4037
  168SAPE   H3R18954   6.064   7.086   7.049 -0.6175  0.3517 -1.2933
  168SAPE   H3S18955   6.002   6.918   7.056  1.1823  0.3843  2.2280
  168SAPE   C2418956   5.884   7.049   7.180  0.0275 -0.7359  0.6469
  168SAPE   H4R18957   5.898   7.157   7.203  0.2999 -0.9102  1.3317
  168SAPE   H4S18958   5.935   6.991   7.259  1.8356 -0.1031  0.0039
  168SAPE   C2518959   5.742   7.009   7.154  0.0218 -0.2098 -0.1007
  168SAPE   H5R18960   5.741   6.925   7.083  0.9214  0.1380 -0.5410
  168SAPE   C2618961   5.628   7.057   7.210 -0.4227  0.5178  1.2787
  168SAPE   H6R18962   5.527   7.016   7.193  0.4020 -1.3089  0.4828
  168SAPE   C2718963   5.619   7.166   7.320  0.3295  0.5686  0.7205
  168SAPE   H7R18964   5.540   7.239   7.289  0.4385  0.2442 -0.3913
  168SAPE   H7S18965   5.719   7.213   7.329  0.5532  0.4286 -0.6919
  168SAPE   C2818966   5.585   7.102   7.452 -0.3965  0.3212  0.3165
  168SAPE   H8R18967   5.501   7.033   7.441  0.0475 -0.0056 -1.3402
  168SAPE   C2918968   5.649   7.114   7.574  0.3746  0.8233 -0.1408
  168SAPE   H9R18969   5.616   7.054   7.660 -0.2092 -0.0388 -0.9486
  168SAPE  C21018970   5.773   7.201   7.604  0.7318  1.0448  0.6107
  168SAPE  H10R18971   5.791   7.269   7.519 -0.7575 -1.1063 -1.5817
  168SAPE  H10S18972   5.869   7.144   7.609  0.1512 -0.0126  0.0852
  168SAPE  C21118973   5.781   7.264   7.742 -0.4685  0.7809 -0.2488
  168SAPE  H11R18974   5.769   7.374   7.744  1.6663  1.0446  0.7941
  168SAPE  C21218975   5.812   7.205   7.864  0.4619 -0.4063  0.2043
  168SAPE  H12R18976   5.817   7.268   7.954  2.5750 -0.7236  0.3577
  168SAPE  C21318977   5.833   7.052   7.885 -0.8755 -0.7279  0.2839
  168SAPE  H13R18978   5.865   7.014   7.785  0.1031  2.5328 -0.7775
  168SAPE  H13S18979   5.734   7.005   7.906 -0.3206 -1.4931  1.2602
  168SAPE  C21418980   5.935   7.005   7.986 -0.2575 -0.3767 -0.1302
  168SAPE  H14R18981   6.035   7.003   7.940 -0.7546 -3.0809 -1.3057
  168SAPE  C21518982   5.925   6.990   8.121 -0.0106 -0.0337  0.0721
  168SAPE  H15R18983   6.005   6.944   8.180  0.5857  3.4555  2.2759
  168SAPE  C21618984   5.800   7.019   8.195  0.6234  0.2523  0.4670
  168SAPE  H16R18985   5.759   6.924   8.234 -1.3931  1.4701  1.4762
  168SAPE  H16S18986   5.723   7.061   8.126  0.2158 -0.3486  0.5476
  168SAPE  C21718987   5.804   7.096   8.322  0.2822 -0.0772 -0.5743
  168SAPE  H17R18988   5.860   7.188   8.297 -1.1490  0.7683 -0.7333
  168SAPE  H17S18989   5.856   7.040   8.403 -2.2966 -0.0145  1.2379
  168SAPE  C21818990   5.669   7.134   8.376  0.4439 -0.4990 -0.0570
  168SAPE  H18R18991   5.620   7.185   8.291  1.2253  0.1608 -0.1311
  168SAPE  H18S18992   5.686   7.208   8.458 -0.1541  2.2839 -2.2886
  168SAPE  C21918993   5.589   7.016   8.434  0.2226 -0.2163 -0.7740
  168SAPE  H19R18994   5.655   6.985   8.518  0.0075  1.9826  0.2777
  168SAPE  H19S18995   5.582   6.930   8.365  0.9126  0.1919 -1.3661
  168SAPE  C22018996   5.458   7.045   8.507 -0.2155  0.5083 -0.2750
  168SAPE  H20R18997   5.479   7.112   8.593 -2.0765 -0.1538  0.7726
  168SAPE  H20S18998   5.420   6.944   8.534  0.4543  0.2140 -0.4304
  168SAPE  H20T18999   5.383   7.090   8.439  0.6088  0.3477 -1.3143
  168SAPE   C3319000   6.235   7.440   6.754  0.2223 -0.8273 -0.0740
  168SAPE   H3X19001   6.308   7.364   6.788 -0.7547 -1.8646 -0.2237
  168SAPE   H3Y19002   6.129   7.420   6.784  0.5072 -1.1827  0.7223
  168SAPE   C3419003   6.274   7.570   6.825 -0.8272  0.5433 -0.1737
  168SAPE   H4X19004   6.200   7.651   6.808  0.3113  2.0633  1.6195
  168SAPE   H4Y19005   6.373   7.606   6.790 -0.1929  0.4062  1.3791
  168SAPE   C3519006   6.283   7.555   6.980  0.1963  0.1529  0.1932
  168SAPE   H5X19007   6.211   7.473   7.003  0.4018 -0.3927 -1.0473
  168SAPE   H5Y19008   6.242   7.639   7.039  1.2025  0.0393  1.1041
  168SAPE   C3619009   6.424   7.519   7.033 -0.2998  0.1108  0.2593
  168SAPE   H6X19010   6.487   7.610   7.029  1.4930 -1.1017 -1.2927
  168SAPE   H6Y19011   6.474   7.453   6.959  0.7819  1.8078 -0.5934
  168SAPE   C3719012   6.434   7.451   7.163  0.6934 -0.3282  0.0018
  168SAPE   H7X19013   6.537   7.413   7.179  0.9072  0.2101 -0.0765
  168SAPE   H7Y19014   6.366   7.363   7.166  1.2124 -0.7206  0.4758
  168SAPE   C3819015   6.408   7.538   7.283 -0.2022 -0.1739  0.3079
  168SAPE   H8X19016   6.314   7.590   7.257 -0.2135  0.0698  0.8136
  168SAPE   H8Y19017   6.485   7.618   7.291  0.1408 -0.3529 -1.0077
  168SAPE   C3919018   6.401   7.469   7.419  0.3088 -0.4039  0.0862
  168SAPE   H9X19019   6.483   7.398   7.445  0.3382 -0.0406  1.0472
  168SAPE   H9Y19020   6.307   7.411   7.422 -0.2822  0.5648  1.5258
  168SAPE  C31019021   6.388   7.579   7.523  0.4575 -0.1584  0.2375
  168SAPE  H10X19022   6.308   7.646   7.486  0.4737 -0.1380  0.2392
  168SAPE  H10Y19023   6.483   7.637   7.518 -0.1172  0.6739 -1.8708
  168SAPE  C31119024   6.350   7.525   7.663 -0.0137 -1.0534  0.6215
  168SAPE  H11X19025   6.434   7.458   7.692  1.8010 -0.8015 -3.3108
  168SAPE  H11Y19026   6.256   7.467   7.655 -0.3340 -0.6668  1.4841
  168SAPE  C31219027   6.329   7.642   7.765  0.4515 -0.2644 -0.6220
  168SAPE  H12X19028   6.317   7.594   7.865  1.4948  2.1277  0.7500
  168SAPE  H12Y19029   6.234   7.695   7.745 -0.8696 -1.5123  1.8396
  168SAPE  C31319030   6.449   7.739   7.782  0.7451  0.0358 -0.0244
  168SAPE  H13X19031   6.490   7.761   7.681  0.9469  0.7517  0.2075
  168SAPE  H13Y19032   6.529   7.687   7.839  0.8033 -0.8035 -0.8420
  168SAPE  C31419033   6.394   7.866   7.849 -0.1795  0.8654 -0.3957
  168SAPE  H14X19034   6.328   7.827   7.929  0.5380 -0.5761 -0.4952
  168SAPE  H14Y19035   6.323   7.913   7.777 -1.1481 -1.7731 -1.2618
  168SAPE  C31519036   6.505   7.967   7.893 -0.1447  0.2459  0.5527
  168SAPE  H15X19037   6.555   7.996   7.798 -0.9886 -1.2791 -0.4027
  168SAPE  H15Y19038   6.573   7.909   7.959  0.4400 -1.0434 -1.1122
  168SAPE  C31619039   6.461   8.095   7.960  0.7710 -0.5171 -0.6474
  168SAPE  H16X19040   6.390   8.075   8.043  1.0691  2.2049  0.3504
  168SAPE  H16Y19041   6.414   8.171   7.894 -0.8597 -0.2428  0.7646
  168SAPE  C31719042   6.578   8.170   8.031 -0.4004  0.5164  0.1216
  168SAPE  H17X19043   6.665   8.171   7.963  0.0607  1.1602  0.7135
  168SAPE  H17Y19044   6.607   8.099   8.112 -1.0232  0.6434  0.4649
  168SAPE  C31819045   6.554   8.311   8.074  0.2418  0.1286 -0.8934
  168SAPE  H18X19046   6.637   8.359   8.130 -0.2272 -1.1909  1.0154
  168SAPE  H18Y19047   6.473   8.298   8.149  0.5165 -1.0954 -0.7913
  168SAPE  H18Z19048   6.511   8.374   7.993 -0.4654  0.1459 -0.5206
  169SAPE     N19049   3.929   0.080   6.433  0.5792 -0.4836 -0.0958
  169SAPE   HN119050   3.849   0.117   6.489  1.6025  1.3685  0.2475
  169SAPE   HN219051   3.946   0.143   6.352 -0.9480 -0.4210 -0.3833
  169SAPE   HN319052   3.888  -0.002   6.384 -1.1815 -0.2553  0.9203
  169SAPE   C1219053   4.049   0.034   6.513 -0.1195 -0.1211  0.2530
  169SAPE  H12A19054   4.118  -0.027   6.452 -2.9213 -0.7250 -2.5810
  169SAPE  H12B19055   4.010  -0.014   6.605  0.4006  2.6792  2.0727
  169SAPE   C1119056   4.144   0.151   6.563  0.4723  0.3734 -0.8820
  169SAPE  H11A19057   4.238   0.099   6.590  0.6554 -0.7086 -3.3323
  169SAPE  H11B19058   4.096   0.201   6.650 -0.0099 -0.0089 -0.9202
  169SAPE     P19059   4.183   0.392   6.466 -0.1957  0.0852  0.0468
  169SAPE   O1319060   4.280   0.443   6.368  0.1129  0.1392 -0.3130
  169SAPE   O1419061   4.052   0.447   6.439 -0.3903 -0.4220  0.3822
  169SAPE   O1219062   4.177   0.236   6.450  0.6204  0.5310  0.1661
  169SAPE   O1119063   4.232   0.437   6.614  0.3189 -0.1405 -0.3950
  169SAPE    C119064   4.348   0.379   6.661 -0.0162  0.1267 -0.4333
  169SAPE    HA19065   4.324   0.281   6.709  0.1133  1.1850  1.9590
  169SAPE    HB19066   4.433   0.361   6.592  1.7854 -0.1736  1.7422
  169SAPE    C219067   4.424   0.468   6.767  0.2569  0.1661  0.1345
  169SAPE    HS19068   4.517   0.422   6.805  0.7313  1.5294  0.6781
  169SAPE   O2119069   4.335   0.506   6.877 -0.1684  0.4814 -0.9363
  169SAPE   C2119070   4.289   0.414   6.954 -0.1430  0.6874 -0.3479
  169SAPE   O2219071   4.306   0.291   6.938 -0.2029  0.5440 -0.3089
  169SAPE   C2219072   4.213   0.481   7.069 -0.0719  1.0413 -0.8539
  169SAPE   H2R19073   4.217   0.592   7.060  1.3043  0.9595 -1.3827
  169SAPE   H2S19074   4.104   0.464   7.051 -0.1501 -1.6881  1.5328
  169SAPE    C319075   4.474   0.597   6.693  0.0777  0.3369 -0.1056
  169SAPE    HX19076   4.388   0.655   6.653  0.1335  2.1608  2.2346
  169SAPE    HY19077   4.541   0.568   6.609 -0.0771  1.5281 -0.6702
  169SAPE   O3119078   4.544   0.674   6.790 -0.3820  0.6477  0.0666
  169SAPE   C3119079   4.595   0.784   6.747  0.1948 -0.4121 -0.2317
  169SAPE   O3219080   4.591   0.821   6.628 -0.3311  0.2933 -0.5410
  169SAPE   C3219081   4.666   0.872   6.853 -0.5361 -0.0346  0.8736
  169SAPE   H2X19082   4.610   0.869   6.950 -0.6100  0.4600  0.8481
  169SAPE   H2Y19083   4.663   0.976   6.815 -3.4964  1.1977  3.8809
  169SAPE   C2319084   4.250   0.409   7.201 -0.4923  0.2141 -0.3765
  169SAPE   H3R19085   4.324   0.465   7.261 -0.5589 -0.4404  0.3471
  169SAPE   H3S19086   4.306   0.317   7.174 -0.6326  0.0570 -0.1385
  169SAPE   C2419087   4.133   0.373   7.294 -0.1790  0.1269 -0.4177
  169SAPE   H4R19088   4.038   0.347   7.242  0.2176 -0.6720 -0.7514
  169SAPE   H4S19089   4.120   0.468   7.350  0.4668  0.0481 -0.1316
  169SAPE   C2519090   4.162   0.251   7.386  0.2065 -0.4081  0.3444
  169SAPE   H5R19091   4.191   0.163   7.326  0.7286 -0.2018  0.2877
  169SAPE   C2619092   4.148   0.243   7.517  0.0563  0.8790  0.6234
  169SAPE   H6R19093   4.172   0.145   7.560  0.1373  0.4376 -0.4055
  169SAPE   C2719094   4.118   0.362   7.609  0.8754  0.9102  0.7715
  169SAPE   H7R19095   4.056   0.333   7.696 -1.0173 -1.8792 -1.3359
  169SAPE   H7S19096   4.061   0.439   7.552 -0.7466 -0.3176  0.6574
  169SAPE   C2819097   4.246   0.420   7.656  0.3327 -0.9163  1.0218
  169SAPE   H8R19098   4.320   0.425   7.574 -0.2697  2.6913  0.5188
  169SAPE   C2919099   4.264   0.480   7.775 -0.6454 -0.2366 -0.1371
  169SAPE   H9R19100   4.364   0.512   7.806 -0.3851 -1.8174  0.7469
  169SAPE  C21019101   4.162   0.506   7.889  0.0131  0.2649 -0.1253
  169SAPE  H10R19102   4.074   0.439   7.874  0.3663 -0.3402  0.4839
  169SAPE  H10S19103   4.118   0.608   7.877  0.0854  0.1896 -1.0715
  169SAPE  C21119104   4.224   0.500   8.030 -0.5825 -0.3849  0.1726
  169SAPE  H11R19105   4.199   0.597   8.076  0.7996  0.4448 -0.7781
  169SAPE  C21219106   4.262   0.398   8.113  0.2596  0.4341  0.3128
  169SAPE  H12R19107   4.298   0.411   8.216  0.5259  0.3923  0.2278
  169SAPE  C21319108   4.257   0.252   8.069  0.1122 -0.0830 -0.2551
  169SAPE  H13R19109   4.351   0.204   8.104 -0.3020 -0.8459 -0.1828
  169SAPE  H13S19110   4.255   0.248   7.958 -0.9639 -0.9596 -0.2167
  169SAPE  C21419111   4.147   0.173   8.139  0.8301  0.5047 -0.6362
  169SAPE  H14R19112   4.050   0.184   8.088  0.1156 -1.0697  0.2964
  169SAPE  C21519113   4.158   0.089   8.240 -0.2111  0.5496 -0.3962
  169SAPE  H15R19114   4.066   0.042   8.276  0.4354 -1.6125 -1.3861
  169SAPE  C21619115   4.280   0.068   8.322 -1.2088  0.7722 -0.3193
  169SAPE  H16R19116   4.355   0.148   8.307 -0.9897  0.7755  0.7221
  169SAPE  H16S19117   4.326  -0.027   8.289 -1.1112  1.0710 -1.0492
  169SAPE  C21719118   4.261   0.054   8.476 -0.0155 -0.6528  0.4416
  169SAPE  H17R19119   4.218  -0.046   8.498 -0.4635 -0.1812  1.8458
  169SAPE  H17S19120   4.183   0.129   8.504 -1.7743 -2.1807 -0.1394
  169SAPE  C21819121   4.391   0.073   8.559  0.1547 -0.1043 -0.0771
  169SAPE  H18R19122   4.421   0.180   8.555 -0.0944  0.0359  1.3168
  169SAPE  H18S19123   4.477   0.019   8.514  0.0592  0.1547 -0.5730
  169SAPE  C21919124   4.370   0.025   8.702 -0.3382  0.6497 -0.3040
  169SAPE  H19R19125   4.313  -0.069   8.718  0.0519  0.7598  2.0698
  169SAPE  H19S19126   4.306   0.093   8.763 -0.3270  1.3363 -1.0453
  169SAPE  C22019127   4.506   0.014   8.773  0.4853 -0.1418  0.4694
  169SAPE  H20R19128   4.495  -0.017   8.879  0.7219 -1.0175  0.2446
  169SAPE  H20S19129   4.553   0.115   8.768  2.2183 -0.9298 -3.2060
  169SAPE  H20T19130   4.576  -0.055   8.720  2.2575  1.5514  0.5196
  169SAPE   C3319131   4.816   0.836   6.863 -0.2033  0.2756  0.3991
  169SAPE   H3X19132   4.851   0.845   6.758 -2.2564  1.2122 -0.2530
  169SAPE   H3Y19133   4.833   0.731   6.894 -0.3257  0.8186  2.4981
  169SAPE   C3419134   4.889   0.933   6.952 -0.2560  0.3659 -0.0930
  169SAPE   H4X19135   4.884   1.032   6.902 -1.4787 -1.7356 -4.5632
  169SAPE   H4Y19136   4.993   0.895   6.962 -1.1858 -2.0092  1.4752
  169SAPE   C3519137   4.832   0.958   7.100  0.9090 -0.2463  0.5689
  169SAPE   H5X19138   4.816   0.854   7.134 -1.0127  0.5622  2.3667
  169SAPE   H5Y19139   4.734   1.005   7.079  1.1738 -0.4194 -1.2123
  169SAPE   C3619140   4.913   1.034   7.197 -0.1922 -0.1130 -0.4227
  169SAPE   H6X19141   4.922   1.141   7.170  0.1342 -0.3148 -1.1425
  169SAPE   H6Y19142   5.017   0.996   7.194  0.1979  0.7939  0.9541
  169SAPE   C3719143   4.860   1.014   7.336  0.1235 -0.0078  0.1242
  169SAPE   H7X19144   4.817   0.912   7.350 -3.1780  1.1200 -0.8646
  169SAPE   H7Y19145   4.776   1.086   7.347  1.0305  0.8324  1.8723
  169SAPE   C3819146   4.962   1.059   7.442 -0.1568 -0.6040 -0.6115
  169SAPE   H8X19147   5.003   1.161   7.427  0.3147 -0.6865  0.0316
  169SAPE   H8Y19148   5.052   0.994   7.436  2.3270  2.4714  0.7166
  169SAPE   C3919149   4.929   1.047   7.594  0.6424  0.4366  1.2462
  169SAPE   H9X19150   5.023   1.083   7.642  0.5954 -0.2423  1.8627
  169SAPE   H9Y19151   4.915   0.938   7.611  0.3225  0.4342  0.9767
  169SAPE  C31019152   4.814   1.134   7.637  0.6060  0.4162  0.0175
  169SAPE  H10X19153   4.730   1.110   7.568 -2.5254  3.4894  2.4184
  169SAPE  H10Y19154   4.830   1.244   7.630 -1.4919  0.6940 -0.9723
  169SAPE  C31119155   4.771   1.104   7.782 -0.4246 -0.1021  0.4723
  169SAPE  H11X19156   4.810   1.004   7.811 -0.3202 -0.4590 -0.8318
  169SAPE  H11Y19157   4.660   1.098   7.788 -0.3368 -0.3567  3.1465
  169SAPE  C31219158   4.825   1.209   7.879 -0.3606  0.5370  0.0617
  169SAPE  H12X19159   4.792   1.309   7.844 -1.0684  0.0392 -0.7539
  169SAPE  H12Y19160   4.936   1.216   7.884 -0.1699 -1.1676 -0.9035
  169SAPE  C31319161   4.768   1.175   8.018  0.1244  0.4462  0.3863
  169SAPE  H13X19162   4.822   1.089   8.064  2.5172  2.1495  0.9425
  169SAPE  H13Y19163   4.660   1.157   8.005  0.0510  0.8584  0.4313
  169SAPE  C31419164   4.766   1.298   8.106 -0.1349  0.2381  0.6140
  169SAPE  H14X19165   4.740   1.389   8.047  1.0968 -0.3520 -0.9334
  169SAPE  H14Y19166   4.868   1.309   8.149 -0.5325  0.4952  1.5029
  169SAPE  C31519167   4.665   1.288   8.220 -0.2681  0.2588 -0.2862
  169SAPE  H15X19168   4.563   1.294   8.177  0.2638  0.4743 -1.5437
  169SAPE  H15Y19169   4.674   1.370   8.295  0.0100 -1.4786  1.6646
  169SAPE  C31619170   4.688   1.165   8.311  0.2094  0.4343 -0.3114
  169SAPE  H16X19171   4.793   1.142   8.339  0.0478  0.8578  0.6838
  169SAPE  H16Y19172   4.641   1.077   8.262  1.0398 -0.7589  0.9482
  169SAPE  C31719173   4.595   1.175   8.437 -0.5675  0.0456  0.6417
  169SAPE  H17X19174   4.490   1.178   8.400  0.0317  0.8810 -1.1420
  169SAPE  H17Y19175   4.628   1.254   8.508 -0.1696 -0.1548  0.6813
  169SAPE  C31819176   4.612   1.035   8.520  0.0790 -0.5524  0.0852
  169SAPE  H18X19177   4.592   0.948   8.454 -1.2604 -1.0304  1.0710
  169SAPE  H18Y19178   4.542   1.038   8.606  0.8991  1.6093  0.7613
  169SAPE  H18Z19179   4.719   1.033   8.549  0.8060 -0.1857 -2.4032
  170SAPE     N19180   5.429   4.656   6.434  0.1033 -0.2547  0.0913
  170SAPE   HN119181   5.519   4.608   6.414  1.1653  1.3255  0.7825
  170SAPE   HN219182   5.443   4.715   6.519 -0.8051  1.8593 -1.1403
  170SAPE   HN319183   5.360   4.579   6.446  1.2412 -1.0979  1.5110
  170SAPE   C1219184   5.392   4.750   6.322  0.9075 -0.0527  0.4558
  170SAPE  H12A19185   5.481   4.811   6.298  0.0857  1.1728  0.4296
  170SAPE  H12B19186   5.312   4.817   6.360 -0.4472  0.8321 -3.5499
  170SAPE   C1119187   5.357   4.662   6.196 -0.0929 -0.0659 -0.6478
  170SAPE  H11A19188   5.453   4.628   6.151 -0.2202 -1.4689  0.0843
  170SAPE  H11B19189   5.303   4.732   6.129  2.0576  1.9517 -0.4027
  170SAPE     P19190   5.128   4.556   6.273 -0.5133 -0.0213  0.1429
  170SAPE   O1319191   5.070   4.678   6.217  0.5070  0.0051  0.5214
  170SAPE   O1419192   5.060   4.424   6.255 -0.4032  0.2315  0.0058
  170SAPE   O1219193   5.281   4.543   6.229  0.3492  0.1898  0.5654
  170SAPE   O1119194   5.154   4.560   6.429 -0.2501 -0.3717 -0.1810
  170SAPE    C119195   5.046   4.599   6.517  0.3421 -0.0798 -0.0035
  170SAPE    HA19196   5.011   4.702   6.496  2.7485  0.6795 -0.5968
  170SAPE    HB19197   4.965   4.524   6.516  0.4648 -0.2351  1.0655
  170SAPE    C219198   5.100   4.611   6.664 -0.2111  0.5363  0.0493
  170SAPE    HS19199   5.177   4.692   6.663  0.3235  0.0475 -1.1379
  170SAPE   O2119200   5.149   4.484   6.704  0.3018  0.5488 -0.2178
  170SAPE   C2119201   5.279   4.482   6.732  0.3467  0.6262  0.2257
  170SAPE   O2219202   5.362   4.564   6.699  0.2071  0.5083 -0.8102
  170SAPE   C2219203   5.311   4.342   6.791 -0.3511  0.2020  0.5131
  170SAPE   H2R19204   5.264   4.331   6.891 -0.1563  0.7900  0.6733
  170SAPE   H2S19205   5.277   4.263   6.720  1.5000  0.0508 -0.2592
  170SAPE    C319206   4.987   4.645   6.768 -0.6246  0.5873  0.5234
  170SAPE    HX19207   4.924   4.554   6.770  4.3863 -3.3835 -0.5604
  170SAPE    HY19208   4.915   4.719   6.725 -3.2586 -1.3021  1.4544
  170SAPE   O3119209   5.036   4.689   6.896  0.3952  0.1189 -0.5002
  170SAPE   C3119210   5.070   4.597   6.981 -0.1385 -0.2995 -0.0738
  170SAPE   O3219211   5.052   4.473   6.965 -0.0244  0.0469  0.0137
  170SAPE   C3219212   5.133   4.666   7.101 -0.0670  0.2295 -0.1140
  170SAPE   H2X19213   5.080   4.763   7.111 -2.4659 -1.1911  2.5108
  170SAPE   H2Y19214   5.239   4.691   7.080  0.1920  0.5852  1.4984
  170SAPE   C2319215   5.466   4.327   6.795 -0.2158  0.3877 -1.0280
  170SAPE   H3R19216   5.521   4.382   6.716 -0.1225  0.4487 -0.9204
  170SAPE   H3S19217   5.478   4.219   6.777 -1.1326  0.0208  0.3957
  170SAPE   C2419218   5.538   4.357   6.935 -0.9563 -0.9370  0.0809
  170SAPE   H4R19219   5.647   4.368   6.915 -0.8675 -1.1710  0.4349
  170SAPE   H4S19220   5.521   4.274   7.006 -2.5342 -0.3899  0.3715
  170SAPE   C2519221   5.501   4.495   6.990  0.6424 -0.0073  0.7095
  170SAPE   H5R19222   5.526   4.577   6.920  0.7197 -2.9183 -2.9623
  170SAPE   C2619223   5.457   4.525   7.114  0.4552  0.5721 -0.0381
  170SAPE   H6R19224   5.426   4.628   7.134  1.8846  0.9256  0.4725
  170SAPE   C2719225   5.422   4.425   7.221 -0.3367  0.0686 -0.0217
  170SAPE   H7R19226   5.362   4.343   7.175 -0.8632  0.5820 -0.2524
  170SAPE   H7S19227   5.357   4.476   7.296 -1.7334  1.4041 -2.0493
  170SAPE   C2819228   5.540   4.365   7.295  0.5041  0.5379  0.2432
  170SAPE   H8R19229   5.616   4.313   7.235  2.8927  0.1311  3.3750
  170SAPE   C2919230   5.577   4.359   7.425 -0.3925  0.0190 -0.0515
  170SAPE   H9R19231   5.668   4.309   7.460 -1.5251 -0.5262  2.3372
  170SAPE  C21019232   5.493   4.419   7.540 -0.7841  0.2679 -0.1051
  170SAPE  H10R19233   5.447   4.334   7.595 -0.7436  0.7180  0.6322
  170SAPE  H10S19234   5.409   4.475   7.494 -1.4165 -0.2744  0.3544
  170SAPE  C21119235   5.569   4.505   7.632 -0.0014 -0.5727 -0.9439
  170SAPE  H11R19236   5.609   4.604   7.605 -1.4278  1.1863  2.5695
  170SAPE  C21219237   5.569   4.495   7.763  0.1391 -0.3880 -0.5509
  170SAPE  H12R19238   5.621   4.574   7.819 -0.2107 -0.0520 -0.6927
  170SAPE  C21319239   5.511   4.391   7.858  0.1001  0.8070  0.2303
  170SAPE  H13R19240   5.433   4.328   7.810  1.3575 -0.4892 -0.1694
  170SAPE  H13S19241   5.460   4.439   7.944 -1.4822 -0.6190  0.1610
  170SAPE  C21419242   5.617   4.295   7.903  0.1954  0.0687 -0.2777
  170SAPE  H14R19243   5.693   4.281   7.824  1.8979 -1.0057  1.4825
  170SAPE  C21519244   5.613   4.224   8.013 -0.3257 -0.0563 -0.4631
  170SAPE  H15R19245   5.701   4.164   8.041 -0.5842  0.3895  1.3975
  170SAPE  C21619246   5.500   4.227   8.110  0.0157  0.1568  0.0509
  170SAPE  H16R19247   5.437   4.135   8.109 -0.3489  0.3904  0.6501
  170SAPE  H16S19248   5.428   4.307   8.082 -2.0039 -1.8372 -0.7542
  170SAPE  C21719249   5.554   4.260   8.248 -0.2317  0.1967  0.2723
  170SAPE  H17R19250   5.641   4.196   8.277 -1.7673 -0.5551  3.6842
  170SAPE  H17S19251   5.472   4.242   8.321  1.4024  0.7658  2.3453
  170SAPE  C21819252   5.583   4.409   8.264  0.4612  0.1520 -0.5245
  170SAPE  H18R19253   5.494   4.471   8.242  0.2402  0.1632  0.3878
  170SAPE  H18S19254   5.667   4.442   8.198 -0.4676  2.3246 -0.7018
  170SAPE  C21919255   5.617   4.450   8.408  1.2562 -0.3950  0.4044
  170SAPE  H19R19256   5.697   4.386   8.451  2.5552  0.5651 -0.5300
  170SAPE  H19S19257   5.524   4.426   8.465 -0.4848 -1.8062 -2.7462
  170SAPE  C22019258   5.670   4.591   8.434  0.2261 -0.2417  0.1714
  170SAPE  H20R19259   5.601   4.670   8.397 -2.0027 -2.3915 -0.5564
  170SAPE  H20S19260   5.774   4.602   8.396  0.5512 -2.2481  0.3750
  170SAPE  H20T19261   5.676   4.602   8.544 -0.5870 -0.0626  0.2019
  170SAPE   C3319262   5.100   4.602   7.237 -0.0281  0.5034  0.3342
  170SAPE   H3X19263   5.149   4.502   7.242  0.9770  0.8799 -1.2926
  170SAPE   H3Y19264   4.992   4.578   7.241  0.5415 -2.4394  0.3963
  170SAPE   C3419265   5.136   4.686   7.358 -0.3471  0.1832 -1.1177
  170SAPE   H4X19266   5.068   4.774   7.361 -2.1614 -1.1580  1.9577
  170SAPE   H4Y19267   5.240   4.724   7.355 -0.0825 -0.4194  0.0454
  170SAPE   C3519268   5.121   4.604   7.491  0.2508 -0.0109  0.5624
  170SAPE   H5X19269   5.153   4.501   7.463  0.8483  0.3190  0.0076
  170SAPE   H5Y19270   5.014   4.607   7.522 -0.1738 -1.5829 -0.5824
  170SAPE   C3619271   5.200   4.660   7.610  0.1995  0.6840 -0.7201
  170SAPE   H6X19272   5.169   4.765   7.628 -0.4723  0.4205 -0.2825
  170SAPE   H6Y19273   5.306   4.671   7.580 -0.0980  1.2355 -1.6087
  170SAPE   C3719274   5.183   4.575   7.736  0.3460  0.0558 -0.4534
  170SAPE   H7X19275   5.247   4.488   7.711  0.8933 -1.5687  5.2333
  170SAPE   H7Y19276   5.078   4.542   7.749  1.0797 -1.4206  2.3907
  170SAPE   C3819277   5.232   4.651   7.859 -0.1993  0.0828  0.2375
  170SAPE   H8X19278   5.183   4.750   7.853  0.5439  0.5560  1.5849
  170SAPE   H8Y19279   5.342   4.669   7.859  0.0982 -1.4082 -1.3074
  170SAPE   C3919280   5.198   4.579   7.996 -0.5412 -1.0235  0.5315
  170SAPE   H9X19281   5.252   4.483   8.004  0.4254 -0.5288  0.1135
  170SAPE   H9Y19282   5.093   4.543   7.994 -0.7575 -0.3991 -0.2196
  170SAPE  C31019283   5.221   4.670   8.115 -0.1711  0.1176 -0.9089
  170SAPE  H10X19284   5.163   4.764   8.121  1.0147  0.8027  0.4628
  170SAPE  H10Y19285   5.331   4.686   8.122  0.0543 -1.3142 -0.8919
  170SAPE  C31119286   5.175   4.588   8.240 -0.1506 -0.1783 -0.4492
  170SAPE  H11X19287   5.227   4.490   8.240 -2.4503 -1.5018  0.8138
  170SAPE  H11Y19288   5.070   4.560   8.216  0.2321 -0.6742 -1.6001
  170SAPE  C31219289   5.198   4.668   8.362  0.1834 -0.0539 -0.3845
  170SAPE  H12X19290   5.113   4.739   8.374  0.4378  0.1983 -0.0526
  170SAPE  H12Y19291   5.290   4.730   8.355 -0.1387  0.6624  1.2803
  170SAPE  C31319292   5.216   4.586   8.489  0.1156  0.0296 -0.6284
  170SAPE  H13X19293   5.304   4.519   8.475 -0.7649 -1.5953  1.0171
  170SAPE  H13Y19294   5.133   4.514   8.509 -1.5888  1.1988 -3.0020
  170SAPE  C31419295   5.232   4.667   8.616  0.2536 -0.2628  0.5761
  170SAPE  H14X19296   5.247   4.773   8.585  1.8863  0.2673  2.8915
  170SAPE  H14Y19297   5.326   4.634   8.666  1.5843 -0.2190 -1.7589
  170SAPE  C31519298   5.124   4.654   8.726  0.1087  0.6475  0.1789
  170SAPE  H15X19299   5.169   4.696   8.819  0.4691 -1.3768  0.9719
  170SAPE  H15Y19300   5.106   4.546   8.742 -2.1888  1.0700  0.8418
  170SAPE  C31619301   4.995   4.721   8.700  0.0723 -0.3851  0.5085
  170SAPE  H16X19302   4.933   4.735   8.791 -1.2675  0.7645 -0.5343
  170SAPE  H16Y19303   4.931   4.664   8.629  0.6893 -1.3245  0.6763
  170SAPE  C31719304   5.010   4.858   8.634  0.2800  0.7158  0.2336
  170SAPE  H17X19305   5.049   4.841   8.531 -2.1742 -1.3199 -0.4596
  170SAPE  H17Y19306   5.091   4.912   8.687  1.7681  0.3284 -1.5391
  170SAPE  C31819307   4.885   4.946   8.620 -0.1133  0.0129 -0.3503
  170SAPE  H18X19308   4.842   4.968   8.720 -0.8266  0.7070 -0.7921
  170SAPE  H18Y19309   4.813   4.879   8.569  1.1231 -1.4061 -0.2811
  170SAPE  H18Z19310   4.919   5.031   8.556  2.4191 -0.6212  0.0548
  171SAPE     N19311   6.329   5.868   6.232  0.5908 -0.3860  0.6967
  171SAPE   HN119312   6.266   5.785   6.240 -0.9827  0.5292 -1.1848
  171SAPE   HN219313   6.266   5.937   6.187  1.2378 -0.5987 -0.5787
  171SAPE   HN319314   6.407   5.850   6.166  0.1240 -0.9884  0.2917
  171SAPE   C1219315   6.377   5.918   6.354 -0.5780 -0.3781 -0.3186
  171SAPE  H12A19316   6.292   5.926   6.424  0.5932  1.3858  0.9748
  171SAPE  H12B19317   6.419   6.020   6.343 -1.2962 -0.0505 -0.0588
  171SAPE   C1119318   6.483   5.832   6.418 -0.8635  0.7938 -0.5207
  171SAPE  H11A19319   6.439   5.735   6.449  1.3282  0.1850  0.9506
  171SAPE  H11B19320   6.519   5.880   6.511 -2.0493  1.8665 -0.5947
  171SAPE     P19321   6.717   5.917   6.334  0.3276  0.0371  0.0196
  171SAPE   O1319322   6.838   5.855   6.273 -0.2215 -0.0295 -0.1332
  171SAPE   O1419323   6.678   6.051   6.285 -0.0653  0.0527 -0.3233
  171SAPE   O1219324   6.594   5.815   6.332  0.2509  0.4818  0.2012
  171SAPE   O1119325   6.742   5.923   6.487 -0.3442  0.0221 -0.5206
  171SAPE    C119326   6.764   6.045   6.565  0.0475  0.3064  0.6038
  171SAPE    HA19327   6.707   6.130   6.521  1.0163  0.7508  0.1827
  171SAPE    HB19328   6.730   6.034   6.671  1.2545 -2.7135  0.7748
  171SAPE    C219329   6.918   6.100   6.565  0.0983 -0.0073 -0.3925
  171SAPE    HS19330   6.940   6.098   6.457 -0.2174  1.2491 -0.4966
  171SAPE   O2119331   7.010   6.022   6.642  0.0003 -0.3010  0.3290
  171SAPE   C2119332   7.138   6.059   6.614  0.1716  0.2196 -0.0724
  171SAPE   O2219333   7.174   6.126   6.520 -0.1538 -0.4274 -0.3183
  171SAPE   C2219334   7.245   6.015   6.712  0.7127  0.1658 -0.4263
  171SAPE   H2R19335   7.295   6.111   6.739 -1.7962  1.2086  0.7509
  171SAPE   H2S19336   7.205   5.990   6.813 -0.1618 -1.8025 -1.2032
  171SAPE    C319337   6.902   6.244   6.617 -0.3119 -0.1414 -0.3345
  171SAPE    HX19338   6.833   6.294   6.546  0.4617 -0.4469 -1.3350
  171SAPE    HY19339   7.003   6.288   6.602 -0.1218 -1.0338 -1.8166
  171SAPE   O3119340   6.859   6.233   6.754  0.0732 -0.3563  0.2559
  171SAPE   C3119341   6.944   6.246   6.844 -0.1200 -0.5916 -0.3852
  171SAPE   O3219342   7.062   6.283   6.825  0.6112 -0.4774  0.3394
  171SAPE   C3219343   6.889   6.225   6.980 -0.1523 -0.1116 -0.3215
  171SAPE   H2X19344   6.822   6.136   6.976 -2.3222  1.4838 -1.5558
  171SAPE   H2Y19345   6.820   6.308   7.008  0.1851  0.1519 -0.2683
  171SAPE   C2319346   7.351   5.915   6.663  0.4400 -0.5990  0.4141
  171SAPE   H3R19347   7.399   5.948   6.569  0.3613 -1.3359  0.1119
  171SAPE   H3S19348   7.289   5.823   6.654 -1.3684  0.4157  1.7113
  171SAPE   C2419349   7.462   5.885   6.770 -0.6926  0.3587  0.0099
  171SAPE   H4R19350   7.511   5.795   6.726  0.3010  0.7860  0.2349
  171SAPE   H4S19351   7.412   5.852   6.864 -1.5802  1.3858 -0.0840
  171SAPE   C2519352   7.547   6.006   6.786 -0.3272 -0.0919  0.5188
  171SAPE   H5R19353   7.563   6.055   6.689  0.6998  0.1146  0.7814
  171SAPE   C2619354   7.591   6.067   6.899 -0.1979  0.1622  0.2297
  171SAPE   H6R19355   7.647   6.161   6.887  0.3999 -0.1031  0.8852
  171SAPE   C2719356   7.561   6.024   7.039 -0.3837 -0.6835 -0.3965
  171SAPE   H7R19357   7.456   5.991   7.058 -0.5729  1.1896  2.3741
  171SAPE   H7S19358   7.569   6.113   7.105 -4.3232  0.0447 -0.6538
  171SAPE   C2819359   7.654   5.917   7.092  0.0511  0.1670  0.2706
  171SAPE   H8R19360   7.655   5.822   7.037 -1.4916  1.2405 -1.7418
  171SAPE   C2919361   7.715   5.927   7.217 -0.1998 -0.4993 -0.3381
  171SAPE   H9R19362   7.779   5.847   7.258 -0.1875  0.5617  1.8703
  171SAPE  C21019363   7.716   6.052   7.305 -0.1246  0.8965 -0.0773
  171SAPE  H10R19364   7.727   6.146   7.248 -1.4638  0.4862 -1.0754
  171SAPE  H10S19365   7.812   6.053   7.362 -0.1883 -0.0466  0.0642
  171SAPE  C21119366   7.591   6.060   7.386 -0.9146 -0.3720 -0.8150
  171SAPE  H11R19367   7.504   6.098   7.331 -0.8513 -0.9085 -1.2863
  171SAPE  C21219368   7.586   6.024   7.515  0.5874  0.0077 -0.4904
  171SAPE  H12R19369   7.490   6.049   7.564  0.5845 -0.3081 -0.3320
  171SAPE  C21319370   7.694   5.961   7.597  0.5008 -0.3467  0.1143
  171SAPE  H13R19371   7.778   5.924   7.534 -1.4319 -2.7907 -1.1796
  171SAPE  H13S19372   7.665   5.862   7.639  0.9046  0.3469  2.1283
  171SAPE  C21419373   7.743   6.059   7.703 -0.6833  0.5464 -0.0767
  171SAPE  H14R19374   7.740   6.167   7.687  1.4044  0.5827 -0.4676
  171SAPE  C21519375   7.803   6.014   7.819  0.0686 -0.6578  0.7197
  171SAPE  H15R19376   7.869   6.082   7.873  2.5210 -3.0037  0.8925
  171SAPE  C21619377   7.824   5.873   7.857 -0.4195 -0.3183 -0.3460
  171SAPE  H16R19378   7.824   5.804   7.770 -2.5103  0.1184 -0.7367
  171SAPE  H16S19379   7.742   5.838   7.924 -1.2347 -0.9822 -1.6535
  171SAPE  C21719380   7.967   5.850   7.924 -0.3650  0.5179 -0.3028
  171SAPE  H17R19381   8.042   5.906   7.865  0.4959  0.1754  0.4502
  171SAPE  H17S19382   7.993   5.742   7.916 -0.4486  0.6023 -2.5223
  171SAPE  C21819383   7.986   5.893   8.068 -0.0826 -0.1672  0.3917
  171SAPE  H18R19384   7.935   5.817   8.131 -0.1098 -0.3670  0.1299
  171SAPE  H18S19385   7.960   6.001   8.073  2.7197  0.6200 -0.3441
  171SAPE  C21919386   8.129   5.891   8.112  0.2782  0.5483 -0.1298
  171SAPE  H19R19387   8.186   5.975   8.066 -2.5097  1.9595 -1.2853
  171SAPE  H19S19388   8.184   5.796   8.092  2.3134  1.1514  2.1207
  171SAPE  C22019389   8.133   5.932   8.257 -0.0368  0.6867 -0.6258
  171SAPE  H20R19390   8.080   6.029   8.272  2.2990  1.8142  0.9368
  171SAPE  H20S19391   8.236   5.941   8.298  0.8782 -0.6513 -2.4643
  171SAPE  H20T19392   8.082   5.857   8.321  3.4203 -0.7483  0.7179
  171SAPE   C3319393   6.990   6.234   7.101 -0.2828  0.2302 -0.6159
  171SAPE   H3X19394   7.052   6.325   7.095 -0.9033  0.7799  0.7743
  171SAPE   H3Y19395   7.054   6.143   7.106  0.9835  1.1713  0.9358
  171SAPE   C3419396   6.909   6.258   7.231 -0.6465  0.2807  0.6722
  171SAPE   H4X19397   6.864   6.161   7.260  0.1090 -0.0260  0.8368
  171SAPE   H4Y19398   6.841   6.345   7.214  0.8221  1.4400  0.5789
  171SAPE   C3519399   6.989   6.301   7.361 -0.0832 -0.1677  0.9024
  171SAPE   H5X19400   7.048   6.393   7.341 -0.5475 -0.0555  0.0157
  171SAPE   H5Y19401   7.064   6.221   7.382  0.4129  0.2432  0.7254
  171SAPE   C3619402   6.897   6.320   7.478  0.4164  0.2503  0.4337
  171SAPE   H6X19403   6.847   6.222   7.485  0.6753  0.1210  0.5016
  171SAPE   H6Y19404   6.826   6.400   7.449 -0.3514 -0.5566  0.0433
  171SAPE   C3719405   6.963   6.349   7.611 -0.0903  0.4321  0.1371
  171SAPE   H7X19406   7.019   6.445   7.610 -0.8064  0.8697  0.7283
  171SAPE   H7Y19407   7.025   6.261   7.639 -2.6121 -1.4586  0.1504
  171SAPE   C3819408   6.862   6.343   7.723 -0.8688  0.2947 -0.2317
  171SAPE   H8X19409   6.793   6.257   7.709  1.7427 -1.7794 -1.0760
  171SAPE   H8Y19410   6.795   6.431   7.707 -4.0816 -1.3556  2.7512
  171SAPE   C3919411   6.926   6.333   7.857 -0.2973 -0.2057  0.1013
  171SAPE   H9X19412   7.023   6.387   7.848 -1.1709  1.3887 -0.1822
  171SAPE   H9Y19413   6.939   6.227   7.886 -1.0960 -0.4598 -0.4409
  171SAPE  C31019414   6.850   6.401   7.981 -0.3171  0.1466 -0.6432
  171SAPE  H10X19415   6.767   6.333   8.008  0.9860 -0.2175  3.0151
  171SAPE  H10Y19416   6.802   6.495   7.945 -0.8077  0.6060  1.1197
  171SAPE  C31119417   6.949   6.414   8.102  0.3490 -0.1154 -0.1880
  171SAPE  H11X19418   7.031   6.483   8.074 -1.0321  1.6164 -0.1226
  171SAPE  H11Y19419   6.991   6.323   8.149  1.2777  0.5233  0.2435
  171SAPE  C31219420   6.891   6.487   8.222  0.3581  0.5186 -0.5196
  171SAPE  H12X19421   6.804   6.424   8.250 -0.6334  0.6107 -3.1260
  171SAPE  H12Y19422   6.835   6.580   8.198  1.4991  1.0171 -1.3803
  171SAPE  C31319423   6.991   6.511   8.332 -0.2153  0.4367  0.7832
  171SAPE  H13X19424   7.048   6.606   8.319 -2.0479  1.5713  0.6455
  171SAPE  H13Y19425   7.065   6.429   8.330  1.4679  1.8325  2.4245
  171SAPE  C31419426   6.934   6.512   8.473 -0.1342 -0.0069 -0.4545
  171SAPE  H14X19427   7.016   6.502   8.547  1.7058  0.1325 -2.3699
  171SAPE  H14Y19428   6.872   6.421   8.479  1.5383 -1.0970  1.9493
  171SAPE  C31519429   6.862   6.639   8.496  0.4177 -0.4763  0.2784
  171SAPE  H15X19430   6.809   6.660   8.400  1.5440 -1.6952 -0.6479
  171SAPE  H15Y19431   6.941   6.715   8.512 -0.1157  0.4982 -1.4441
  171SAPE  C31619432   6.753   6.652   8.601 -0.1616 -0.0975 -0.2399
  171SAPE  H16X19433   6.731   6.761   8.603 -0.5153 -0.1664  1.4103
  171SAPE  H16Y19434   6.792   6.640   8.704  0.6138 -0.8670 -0.6124
  171SAPE  C31719435   6.626   6.568   8.588 -0.5270  0.1322 -0.0185
  171SAPE  H17X19436   6.581   6.569   8.690 -0.0694 -0.6313  0.1939
  171SAPE  H17Y19437   6.652   6.463   8.565  1.0276  0.7295 -1.1756
  171SAPE  C31819438   6.519   6.623   8.497  0.0821 -0.7257 -0.3981
  171SAPE  H18X19439   6.474   6.713   8.544 -1.7164 -0.3838 -2.6058
  171SAPE  H18Y19440   6.438   6.549   8.483  0.9514 -2.1743  1.7413
  171SAPE  H18Z19441   6.557   6.640   8.394 -1.8508  2.5800 -0.7005
  172SAPE     N19442   6.369   5.274   6.386 -0.0374 -0.4866 -0.2002
  172SAPE   HN119443   6.442   5.341   6.419 -0.4641  0.8544 -1.8215
  172SAPE   HN219444   6.407   5.230   6.300  0.1596  1.0843 -0.9475
  172SAPE   HN319445   6.286   5.335   6.373  0.6506  0.1771 -1.8419
  172SAPE   C1219446   6.338   5.167   6.487 -0.3058  0.7251 -0.0361
  172SAPE  H12A19447   6.270   5.098   6.434 -0.3675  0.8439 -0.1140
  172SAPE  H12B19448   6.277   5.211   6.569 -0.9210  1.3661 -0.8172
  172SAPE   C1119449   6.462   5.094   6.538 -0.3713 -0.9341 -0.3693
  172SAPE  H11A19450   6.440   5.020   6.617 -1.4950  0.2041  0.4339
  172SAPE  H11B19451   6.535   5.161   6.589  1.4564 -1.9092 -1.6015
  172SAPE     P19452   6.489   4.897   6.377  0.0995  0.4954 -0.2325
  172SAPE   O1319453   6.343   4.897   6.350 -0.2844  0.1130 -0.5419
  172SAPE   O1419454   6.577   4.847   6.268  0.5824 -0.1810 -0.2698
  172SAPE   O1219455   6.534   5.038   6.428  0.2747  1.0005  0.1237
  172SAPE   O1119456   6.518   4.803   6.505  0.1419 -0.1023 -0.0960
  172SAPE    C119457   6.453   4.684   6.540  1.3671 -0.0639  0.0249
  172SAPE    HA19458   6.442   4.618   6.451 -2.0373 -1.2681  1.1938
  172SAPE    HB19459   6.516   4.638   6.619 -0.8893 -0.8539  1.4512
  172SAPE    C219460   6.310   4.702   6.604 -0.4353 -0.6805  0.7890
  172SAPE    HS19461   6.246   4.743   6.523  1.1026 -0.6829 -0.4654
  172SAPE   O2119462   6.309   4.800   6.711  0.1155  0.3175  0.2490
  172SAPE   C2119463   6.184   4.845   6.726  0.3015 -0.2262  0.1859
  172SAPE   O2219464   6.085   4.825   6.655  0.0354 -0.1278  0.1493
  172SAPE   C2219465   6.177   4.936   6.851 -0.5975 -0.0478  0.5667
  172SAPE   H2R19466   6.120   4.871   6.921 -0.3707 -2.0188 -0.9900
  172SAPE   H2S19467   6.276   4.950   6.900 -0.2090 -0.1415 -0.1806
  172SAPE    C319468   6.259   4.567   6.657 -0.3699 -0.2510  0.2949
  172SAPE    HX19469   6.271   4.486   6.582 -0.0268  0.0978 -0.0250
  172SAPE    HY19470   6.151   4.589   6.674  0.1241  2.7653  0.0498
  172SAPE   O3119471   6.330   4.522   6.770  0.0740 -0.1020 -0.0555
  172SAPE   C3119472   6.293   4.541   6.893 -0.0167 -0.2848 -0.5892
  172SAPE   O3219473   6.190   4.596   6.930 -0.2792  0.2765 -0.2039
  172SAPE   C3219474   6.402   4.490   6.987  0.0277 -0.2636  0.4751
  172SAPE   H2X19475   6.478   4.567   7.012  0.9094 -1.0006  0.1325
  172SAPE   H2Y19476   6.465   4.417   6.933  1.2322  1.0381  0.0508
  172SAPE   C2319477   6.112   5.082   6.824 -0.8423 -0.1005 -0.2396
  172SAPE   H3R19478   6.016   5.079   6.767 -0.9687  0.6316 -0.0718
  172SAPE   H3S19479   6.186   5.131   6.757  1.1264 -1.8443  0.5333
  172SAPE   C2419480   6.065   5.167   6.948 -0.6354 -0.8886 -0.4101
  172SAPE   H4R19481   5.998   5.241   6.899  1.3174 -0.1157 -2.0339
  172SAPE   H4S19482   6.158   5.211   6.987 -0.0758 -1.8091 -0.6738
  172SAPE   C2519483   5.991   5.076   7.041  0.5940 -0.2131  0.0553
  172SAPE   H5R19484   5.894   5.045   7.000  1.0338 -0.0399 -1.1319
  172SAPE   C2619485   6.021   5.042   7.168 -0.5041  0.0163  0.6557
  172SAPE   H6R19486   5.951   4.980   7.225 -0.0840 -1.1916 -0.0974
  172SAPE   C2719487   6.147   5.068   7.245 -0.3985 -0.1365 -0.1993
  172SAPE   H7R19488   6.125   5.114   7.344 -1.7333  1.9514 -1.3979
  172SAPE   H7S19489   6.209   5.144   7.194 -0.3338  0.1246  0.2585
  172SAPE   C2819490   6.217   4.936   7.268 -0.4735 -0.2820 -0.0546
  172SAPE   H8R19491   6.245   4.885   7.175 -0.2075  2.3970 -1.5438
  172SAPE   C2919492   6.236   4.871   7.384 -0.6863 -0.2495  0.5420
  172SAPE   H9R19493   6.279   4.770   7.381 -2.0916 -0.8646  0.3247
  172SAPE  C21019494   6.206   4.919   7.527  0.4405  0.7617  0.1576
  172SAPE  H10R19495   6.236   4.831   7.589  0.2969  0.3371 -0.3687
  172SAPE  H10S19496   6.098   4.940   7.535  0.1227 -0.8025  0.3573
  172SAPE  C21119497   6.280   5.035   7.576 -0.2637  0.2043  0.9210
  172SAPE  H11R19498   6.323   5.090   7.491  1.7838 -1.7109  0.6203
  172SAPE  C21219499   6.302   5.076   7.698 -0.2967  0.2587  0.0631
  172SAPE  H12R19500   6.358   5.169   7.713 -1.1706  1.2090 -2.0281
  172SAPE  C21319501   6.248   5.010   7.823  0.5338 -0.4700  0.5399
  172SAPE  H13R19502   6.163   4.946   7.791  0.1118  0.9024 -1.2494
  172SAPE  H13S19503   6.204   5.085   7.892  1.2722 -0.0354  0.5434
  172SAPE  C21419504   6.362   4.929   7.882 -0.0571 -0.0428  0.3926
  172SAPE  H14R19505   6.416   4.863   7.814 -0.1303 -0.8198  1.0694
  172SAPE  C21519506   6.409   4.939   8.009  0.2147  0.2408 -0.4852
  172SAPE  H15R19507   6.506   4.895   8.033  0.0861 -0.9172 -1.9808
  172SAPE  C21619508   6.351   5.037   8.105  0.2399 -0.2109  0.1658
  172SAPE  H16R19509   6.246   5.065   8.079 -0.0652  0.8591  2.2874
  172SAPE  H16S19510   6.405   5.134   8.110 -1.3349  0.6719  1.3280
  172SAPE  C21719511   6.357   4.996   8.256  0.3110 -0.1458  0.0177
  172SAPE  H17R19512   6.285   4.916   8.284 -0.0405  0.2683  0.3134
  172SAPE  H17S19513   6.328   5.082   8.321 -1.0509 -1.2609  0.9450
  172SAPE  C21819514   6.501   4.942   8.295  0.1932  0.1914 -0.0274
  172SAPE  H18R19515   6.579   5.007   8.250  1.1069 -1.3335 -0.7216
  172SAPE  H18S19516   6.512   4.839   8.256  0.8495  0.7280 -1.2972
  172SAPE  C21919517   6.528   4.937   8.445  0.0173 -0.7076  0.5029
  172SAPE  H19R19518   6.518   5.038   8.490  2.1389 -0.6192  0.8622
  172SAPE  H19S19519   6.634   4.907   8.462  0.0955 -1.1890 -0.7331
  172SAPE  C22019520   6.435   4.837   8.518 -0.3746  0.0786  0.2158
  172SAPE  H20R19521   6.326   4.857   8.511 -0.7790 -1.7784  0.8680
  172SAPE  H20S19522   6.450   4.835   8.628 -0.8468 -3.5462  0.3207
  172SAPE  H20T19523   6.453   4.731   8.492  0.4985 -0.0440  1.2764
  172SAPE   C3319524   6.340   4.431   7.110  0.5137 -0.1775 -0.1100
  172SAPE   H3X19525   6.286   4.337   7.086  0.5731 -0.1324 -0.4264
  172SAPE   H3Y19526   6.264   4.504   7.144  0.2153 -0.7472  0.4636
  172SAPE   C3419527   6.426   4.396   7.242  0.0007  0.3397  0.1421
  172SAPE   H4X19528   6.513   4.464   7.243  0.5417 -0.2853 -1.3722
  172SAPE   H4Y19529   6.457   4.290   7.239 -2.7464 -0.5625  0.4764
  172SAPE   C3519530   6.336   4.413   7.362  0.0689  0.1721  0.0191
  172SAPE   H5X19531   6.235   4.369   7.355  0.0515  0.4643 -2.9420
  172SAPE   H5Y19532   6.314   4.522   7.354 -1.6666 -0.2181 -0.8326
  172SAPE   C3619533   6.400   4.378   7.494 -0.4594  0.1493  0.0613
  172SAPE   H6X19534   6.500   4.428   7.497 -0.7256  0.6435  0.9308
  172SAPE   H6Y19535   6.428   4.271   7.500  0.5765  0.3037 -1.2319
  172SAPE   C3719536   6.316   4.430   7.619 -0.0477 -0.4126 -0.7788
  172SAPE   H7X19537   6.207   4.435   7.600  0.2543  2.4444 -2.2763
  172SAPE   H7Y19538   6.336   4.538   7.630 -0.3280 -0.5047  0.9277
  172SAPE   C3819539   6.336   4.360   7.758  0.4188  0.1905 -0.5120
  172SAPE   H8X19540   6.306   4.253   7.758 -0.2116  0.3634  0.3260
  172SAPE   H8Y19541   6.280   4.409   7.839 -0.2567  3.1169 -2.5943
  172SAPE   C3919542   6.486   4.381   7.803  0.6852 -0.5791 -0.4892
  172SAPE   H9X19543   6.506   4.488   7.827  1.7604 -0.6487 -1.0479
  172SAPE   H9Y19544   6.548   4.354   7.716  0.7718  0.5850 -0.8154
  172SAPE  C31019545   6.517   4.304   7.937 -0.3120 -0.6181  1.4035
  172SAPE  H10X19546   6.622   4.328   7.963 -0.9112  1.4049  2.1438
  172SAPE  H10Y19547   6.514   4.194   7.920 -0.8644 -0.1984 -2.1056
  172SAPE  C31119548   6.428   4.343   8.049  0.5418 -0.4056 -0.0888
  172SAPE  H11X19549   6.323   4.309   8.032  0.2859  0.0798  0.5035
  172SAPE  H11Y19550   6.413   4.453   8.058 -3.2381 -0.8731  0.9930
  172SAPE  C31219551   6.470   4.291   8.185 -0.0053 -0.5728 -0.3163
  172SAPE  H12X19552   6.581   4.299   8.185 -0.1384  2.0771  0.0694
  172SAPE  H12Y19553   6.439   4.184   8.180 -0.5314 -0.4287 -0.1219
  172SAPE  C31319554   6.405   4.349   8.309 -0.1332  0.0515 -0.1484
  172SAPE  H13X19555   6.295   4.339   8.303 -0.5062  3.3229 -0.8838
  172SAPE  H13Y19556   6.427   4.457   8.299 -3.1611  0.7899  0.1604
  172SAPE  C31419557   6.449   4.285   8.446  0.2426  0.8786  0.5530
  172SAPE  H14X19558   6.553   4.321   8.455  0.4079  0.1144  1.8340
  172SAPE  H14Y19559   6.446   4.177   8.419 -2.9266  1.1002 -0.4944
  172SAPE  C31519560   6.349   4.295   8.563  0.5005  0.3348  0.4290
  172SAPE  H15X19561   6.248   4.277   8.519  0.7764 -1.7324  0.5219
  172SAPE  H15Y19562   6.345   4.398   8.605 -1.1265  0.6222 -0.3527
  172SAPE  C31619563   6.384   4.203   8.677  0.3263  0.3533  0.1376
  172SAPE  H16X19564   6.362   4.096   8.656 -0.8680  0.6671 -0.3407
  172SAPE  H16Y19565   6.324   4.229   8.767  0.4551  1.1602 -0.0071
  172SAPE  C31719566   6.534   4.202   8.723  0.5844 -0.0594 -0.5593
  172SAPE  H17X19567   6.564   4.309   8.715  0.9454  0.0565  1.7081
  172SAPE  H17Y19568   6.592   4.138   8.653  2.9828  1.9013 -0.5156
  172SAPE  C31819569   6.553   4.147   8.863  0.0140  0.0663 -0.3865
  172SAPE  H18X19570   6.516   4.043   8.858 -0.4593  0.2714 -1.5070
  172SAPE  H18Y19571   6.493   4.200   8.940 -1.0035  0.5133 -1.4598
  172SAPE  H18Z19572   6.663   4.145   8.879 -0.2105 -0.5053  1.2507
  173SOPE     N19573   0.365   3.573  10.910  0.4088 -0.1057 -0.1659
  173SOPE   HN119574   0.344   3.655  10.851  1.2486 -0.3524 -0.8266
  173SOPE   HN219575   0.456   3.589  10.958  1.1897  1.7540 -2.1158
  173SOPE   HN319576   0.380   3.493  10.845  0.1711  0.7904 -1.3362
  173SOPE   C1219577   0.268   3.545  11.028 -0.9201  0.6017 -0.6690
  173SOPE  H12A19578   0.307   3.458  11.083 -0.1731  0.4754 -1.3853
  173SOPE  H12B19579   0.169   3.516  10.985 -0.9735 -1.0248  0.4942
  173SOPE   C1119580   0.246   3.661  11.121 -0.3081  0.2403  1.0108
  173SOPE  H11A19581   0.337   3.672  11.185  0.0884  0.5284  0.4113
  173SOPE  H11B19582   0.165   3.636  11.193 -1.9520  1.2511 -0.4127
  173SOPE     P19583   0.277   3.918  11.094 -0.1523 -0.1573 -0.0148
  173SOPE   O1319584   0.418   3.900  11.140 -0.7533 -0.5183  0.3918
  173SOPE   O1419585   0.185   3.979  11.193  0.0890 -0.3091  0.4185
  173SOPE   O1219586   0.214   3.781  11.051  0.6136 -0.6407 -0.4095
  173SOPE   O1119587   0.275   3.988  10.954 -0.2213 -0.5325  0.7414
  173SOPE    C119588   0.156   4.008  10.892  0.9012  1.0766 -0.1097
  173SOPE    HA19589   0.130   4.116  10.894  0.1881  0.9261  2.2084
  173SOPE    HB19590   0.068   3.955  10.935  0.0545  1.5817 -1.1538
  173SOPE    C219591   0.138   3.947  10.747  0.3411 -0.2080 -0.5126
  173SOPE    HS19592   0.115   3.838  10.754 -0.7598 -0.0111 -0.9141
  173SOPE   O2119593   0.263   3.971  10.668  0.0908 -0.3591 -0.2198
  173SOPE   C2119594   0.340   3.864  10.652  0.2384 -0.4052  1.0510
  173SOPE   O2219595   0.326   3.758  10.714  0.2062  0.1831  0.2966
  173SOPE   C2219596   0.460   3.900  10.552  0.4480  0.3239 -0.9233
  173SOPE   H2R19597   0.553   3.850  10.588  0.3426  0.3705 -0.5825
  173SOPE   H2S19598   0.471   4.010  10.560 -2.0759  0.6343 -1.0826
  173SOPE    C319599   0.022   4.017  10.676  0.2386 -0.2123  0.2261
  173SOPE    HX19600   0.050   4.124  10.666 -0.8160  0.0320 -0.2555
  173SOPE    HY19601  -0.064   4.004  10.744  0.6446 -1.5650  0.5279
  173SOPE   O3119602  -0.004   3.953  10.549  0.0745  0.4311 -0.1466
  173SOPE   C3119603   0.035   4.021  10.438  0.1746 -0.1978  0.8670
  173SOPE   O3219604   0.089   4.129  10.434  0.0428 -0.4413  0.5090
  173SOPE   C3219605   0.002   3.926  10.322  0.1147 -0.0776 -0.4152
  173SOPE   H2X19606  -0.076   3.854  10.353 -0.1336  0.2439 -0.2805
  173SOPE   H2Y19607   0.092   3.866  10.297  0.5979  0.2960  0.3701
  173SOPE   C2319608   0.415   3.851  10.415  0.2379  0.3809  0.0526
  173SOPE   H3R19609   0.500   3.883  10.351  0.1949  0.5255  0.0656
  173SOPE   H3S19610   0.327   3.911  10.383  1.2950  2.0661  0.1427
  173SOPE   C2419611   0.406   3.697  10.411 -0.1444  0.5909  0.2283
  173SOPE   H4R19612   0.504   3.651  10.433  0.4820  1.4027 -0.7900
  173SOPE   H4S19613   0.329   3.664  10.485 -0.9566  2.9471  0.5309
  173SOPE   C2519614   0.364   3.645  10.274  1.0520  0.5121  0.4156
  173SOPE   H5R19615   0.340   3.537  10.278  1.2861  0.4009 -0.7461
  173SOPE   H5S19616   0.265   3.686  10.245  0.1893 -0.6975  1.5794
  173SOPE   C2619617   0.474   3.678  10.170  0.3018 -0.6128  0.7179
  173SOPE   H6R19618   0.478   3.789  10.156 -0.7190 -0.5271  1.0130
  173SOPE   H6S19619   0.570   3.656  10.221 -0.2182 -0.7894  1.6471
  173SOPE   C2719620   0.470   3.589  10.048  0.1626  0.2537  0.4684
  173SOPE   H7R19621   0.572   3.588  10.004  0.0363 -2.4332  0.0579
  173SOPE   H7S19622   0.442   3.484  10.073  2.9722 -0.7113  0.0159
  173SOPE   C2819623   0.363   3.641   9.948 -0.3260  0.2997  0.7498
  173SOPE   H8R19624   0.349   3.557   9.878 -0.2987 -0.2870  1.4340
  173SOPE   H8S19625   0.270   3.660  10.006 -1.6701  0.8968 -1.5120
  173SOPE   C2919626   0.401   3.769   9.876 -0.1706 -0.1696 -0.0598
  173SOPE   H9119627   0.465   3.834   9.939 -0.3992 -1.0691  1.1316
  173SOPE  C21019628   0.376   3.822   9.752 -0.6503  0.1623  0.8579
  173SOPE  H10119629   0.444   3.900   9.716  0.1649 -1.5645 -1.6926
  173SOPE  C21119630   0.297   3.746   9.646  0.6872 -0.7230  0.7316
  173SOPE  H11R19631   0.198   3.795   9.638  0.8837 -0.2747  0.9872
  173SOPE  H11S19632   0.273   3.641   9.674 -1.7325 -0.0638  1.3731
  173SOPE  C21219633   0.365   3.742   9.508  0.1064 -0.6990  0.1654
  173SOPE  H12R19634   0.440   3.661   9.503  0.6532 -0.1867  0.0541
  173SOPE  H12S19635   0.412   3.837   9.474  0.5683 -0.4314  1.5039
  173SOPE  C21319636   0.263   3.700   9.402 -0.4079 -0.9002  0.1950
  173SOPE  H13R19637   0.170   3.760   9.415  0.4654  0.2736  1.2352
  173SOPE  H13S19638   0.229   3.595   9.412  0.7740 -1.2622  0.6091
  173SOPE  C21419639   0.330   3.700   9.261  0.7666 -0.4155  0.0449
  173SOPE  H14R19640   0.413   3.627   9.258  0.1446 -1.7109  5.0232
  173SOPE  H14S19641   0.354   3.806   9.236 -0.1386 -0.4895 -1.2127
  173SOPE  C21519642   0.238   3.646   9.146  0.3398 -0.8450  0.1361
  173SOPE  H15R19643   0.143   3.703   9.157  1.0860  0.0657  2.6125
  173SOPE  H15S19644   0.215   3.541   9.175  0.6957 -1.4873 -1.7628
  173SOPE  C21619645   0.302   3.675   9.004  0.6455 -0.8704 -0.0433
  173SOPE  H16R19646   0.330   3.782   8.989  2.1252 -1.1564  0.4943
  173SOPE  H16S19647   0.223   3.670   8.926 -0.0291  0.3008  0.5212
  173SOPE  C21719648   0.423   3.589   8.972 -0.3481 -0.2557 -0.4240
  173SOPE  H17R19649   0.462   3.565   9.074 -0.9835 -0.8968 -0.3309
  173SOPE  H17S19650   0.502   3.644   8.916 -1.2705  1.6883  0.0965
  173SOPE  C21819651   0.384   3.463   8.891 -0.4258  0.7236 -0.1155
  173SOPE  H18R19652   0.348   3.485   8.788 -0.4565  0.7593 -0.0967
  173SOPE  H18S19653   0.306   3.400   8.939  0.8002 -0.0338  0.9559
  173SOPE  H18T19654   0.470   3.394   8.882 -3.0911 -2.8951  0.0029
  173SOPE   C3319655  -0.039   4.021  10.210  0.0262 -0.7063  0.2206
  173SOPE   H3X19656   0.039   4.096  10.184 -1.0320  0.7100  1.0007
  173SOPE   H3Y19657  -0.127   4.086  10.227  1.1853  0.8953  0.3156
  173SOPE   C3419658  -0.050   3.955  10.074  0.1690  0.5405  0.3774
  173SOPE   H4X19659  -0.117   3.866  10.081  0.4805  0.3662  1.3496
  173SOPE   H4Y19660   0.042   3.901  10.042 -2.0086 -2.3205 -1.5604
  173SOPE   C3519661  -0.109   4.036   9.960 -0.0293  0.4782  0.2232
  173SOPE   H5X19662  -0.062   4.137   9.966  1.1483  0.0259 -1.0082
  173SOPE   H5Y19663  -0.220   4.037   9.971 -0.1240 -3.2018  0.6334
  173SOPE   C3619664  -0.064   3.989   9.826 -0.0588  0.0100 -0.4069
  173SOPE   H6X19665  -0.113   3.890   9.809  0.2621 -0.2552  0.1725
  173SOPE   H6Y19666   0.044   3.967   9.811  0.4858  3.0745 -1.5203
  173SOPE   C3719667  -0.092   4.084   9.712 -0.1413 -0.5421 -0.4707
  173SOPE   H7X19668  -0.067   4.188   9.742  0.7927 -0.9027  0.0208
  173SOPE   H7Y19669  -0.197   4.081   9.675  0.2134 -0.4002 -1.5447
  173SOPE   C3819670  -0.026   4.044   9.580 -0.7636 -0.2106 -0.2091
  173SOPE   H8X19671  -0.072   3.948   9.547 -0.8756 -0.4894  0.7422
  173SOPE   H8Y19672   0.083   4.029   9.597 -0.6853  0.3919 -0.1572
  173SOPE   C3919673  -0.041   4.146   9.473 -0.6329 -0.3411 -0.0651
  173SOPE   H9X19674  -0.016   4.246   9.513 -1.5339 -0.7426  1.5790
  173SOPE   H9Y19675  -0.146   4.162   9.441  0.1363  0.4116 -2.4563
  173SOPE  C31019676   0.030   4.102   9.345  0.1905  0.0483 -0.3138
  173SOPE  H10X19677  -0.027   4.012   9.314  0.3661  0.4083 -1.7586
  173SOPE  H10Y19678   0.136   4.077   9.365  0.0967  1.2507  1.9612
  173SOPE  C31119679   0.039   4.196   9.217  0.7794  0.1243  0.1139
  173SOPE  H11X19680   0.096   4.286   9.247  1.8475  0.0377 -1.4954
  173SOPE  H11Y19681  -0.055   4.237   9.176  0.3188 -1.8180 -0.8846
  173SOPE  C31219682   0.136   4.139   9.100 -0.4180  0.2604 -0.2381
  173SOPE  H12X19683   0.092   4.042   9.070 -0.4844  0.1151  0.3119
  173SOPE  H12Y19684   0.233   4.113   9.147  0.8974  1.4438 -2.1645
  173SOPE  C31319685   0.147   4.233   8.984 -0.1491 -0.1128 -0.8572
  173SOPE  H13X19686   0.221   4.313   9.007  0.9413 -0.6124 -2.4734
  173SOPE  H13Y19687   0.051   4.289   8.976  0.1963  0.6541  0.1905
  173SOPE  C31419688   0.185   4.177   8.847 -0.1460 -0.5077  0.5009
  173SOPE  H14X19689   0.119   4.090   8.829 -1.3239  0.6271 -0.9620
  173SOPE  H14Y19690   0.285   4.131   8.856  0.4796  0.7805  0.3340
  173SOPE  C31519691   0.165   4.280   8.733 -0.3851  0.4225 -0.6073
  173SOPE  H15X19692   0.059   4.302   8.708 -0.2238  0.5290 -1.2074
  173SOPE  H15Y19693   0.212   4.237   8.642 -1.5849  0.8289 -1.4467
  173SOPE  C31619694   0.246   4.408   8.753 -0.4429  0.0021  0.6786
  173SOPE  H16X19695   0.351   4.372   8.758 -1.0346 -1.7851  1.1326
  173SOPE  H16Y19696   0.221   4.464   8.846 -1.1549  1.2419 -0.2287
  173SOPE  C31719697   0.245   4.508   8.636 -0.1757 -0.0924  0.8861
  173SOPE  H17X19698   0.139   4.533   8.615  0.3460  0.0987 -1.8707
  173SOPE  H17Y19699   0.283   4.459   8.544  1.2487  0.3819  1.1941
  173SOPE  C31819700   0.340   4.627   8.668  0.9303 -0.2053 -0.9257
  173SOPE  H18X19701   0.303   4.699   8.744  1.7965  1.3816 -1.9412
  173SOPE  H18Y19702   0.349   4.702   8.586  2.3656  1.3509  0.5708
  173SOPE  H18Z19703   0.446   4.597   8.679  1.3617  1.3210 -0.7305
  174SOPE     N19704   6.458   1.225  10.800  0.2690  0.3419  0.3384
  174SOPE   HN119705   6.414   1.148  10.747  0.7641  0.0829  0.3010
  174SOPE   HN219706   6.437   1.197  10.898  1.1734 -1.0869  0.1490
  174SOPE   HN319707   6.412   1.313  10.769 -1.7501 -0.5672  0.5975
  174SOPE   C1219708   6.604   1.218  10.782  0.2323 -0.2896  0.4197
  174SOPE  H12A19709   6.630   1.240  10.676 -0.1419  1.2872  0.6348
  174SOPE  H12B19710   6.623   1.109  10.795 -2.8023 -1.0900 -0.9112
  174SOPE   C1119711   6.686   1.314  10.872 -0.5189  0.2911  0.1750
  174SOPE  H11A19712   6.794   1.297  10.856 -0.5464  0.8190 -0.6252
  174SOPE  H11B19713   6.666   1.286  10.978 -0.8683 -0.0094  0.0307
  174SOPE     P19714   6.723   1.549  10.772 -0.0690 -0.3049  0.3712
  174SOPE   O1319715   6.797   1.472  10.667  0.3301  0.7656  0.2934
  174SOPE   O1419716   6.792   1.655  10.852  0.6327  0.3495  0.4712
  174SOPE   O1219717   6.642   1.452  10.868 -0.4777  0.2212 -0.1185
  174SOPE   O1119718   6.609   1.624  10.689  0.1592 -0.0759 -0.2488
  174SOPE    C119719   6.516   1.554  10.616 -0.6656 -0.4847 -0.7582
  174SOPE    HA19720   6.415   1.582  10.653 -1.2330 -1.3573 -1.5795
  174SOPE    HB19721   6.524   1.444  10.631 -2.5407 -0.5953 -0.3353
  174SOPE    C219722   6.521   1.572  10.462 -0.3973 -0.4494 -0.3981
  174SOPE    HS19723   6.610   1.510  10.439 -0.5351 -1.2146  0.9890
  174SOPE   O2119724   6.536   1.709  10.440 -0.1033 -0.3159  0.2250
  174SOPE   C2119725   6.600   1.728  10.325  0.1027 -0.5505 -0.0654
  174SOPE   O2219726   6.647   1.637  10.262 -0.1902  0.0939  0.1555
  174SOPE   C2219727   6.584   1.872  10.278 -0.2164 -0.2076  0.1555
  174SOPE   H2R19728   6.642   1.930  10.353 -0.4093  1.4053 -0.8916
  174SOPE   H2S19729   6.479   1.902  10.297  0.0483  1.2889 -0.5546
  174SOPE    C319730   6.395   1.508  10.397 -0.1594 -0.7800 -0.7782
  174SOPE    HX19731   6.315   1.576  10.432 -0.0312 -1.1031  0.1617
  174SOPE    HY19732   6.364   1.411  10.439  1.2823 -0.6869  0.5813
  174SOPE   O3119733   6.401   1.512  10.251  0.0354  0.2485  0.0739
  174SOPE   C3119734   6.462   1.406  10.202 -1.0610 -0.3558 -0.5659
  174SOPE   O3219735   6.527   1.324  10.272  0.2890 -0.0663  0.1297
  174SOPE   C3219736   6.438   1.391  10.054 -0.0962  0.3609  0.6473
  174SOPE   H2X19737   6.356   1.461  10.027  0.6931  1.0604  0.0306
  174SOPE   H2Y19738   6.409   1.289  10.021  0.8936  0.5058 -0.7255
  174SOPE   C2319739   6.614   1.900  10.131 -0.6369 -0.4559  0.2738
  174SOPE   H3R19740   6.712   1.855  10.103 -0.9991 -1.6912  0.9259
  174SOPE   H3S19741   6.606   2.011  10.124 -0.6579 -0.4033  1.0886
  174SOPE   C2419742   6.501   1.853  10.031  0.1219  0.0674  0.2407
  174SOPE   H4R19743   6.458   1.751  10.040 -2.2794  0.8528 -1.2847
  174SOPE   H4S19744   6.406   1.909  10.044  1.0303  1.7328 -0.0639
  174SOPE   C2519745   6.544   1.858   9.890 -0.0055 -0.3214  0.3636
  174SOPE   H5R19746   6.563   1.959   9.850 -2.7069 -0.9164 -2.8992
  174SOPE   H5S19747   6.643   1.808   9.883  1.2345  2.0629 -0.1138
  174SOPE   C2619748   6.445   1.797   9.792  0.3677 -0.0606  0.1565
  174SOPE   H6R19749   6.415   1.699   9.837 -0.9966  1.3208  2.4616
  174SOPE   H6S19750   6.355   1.861   9.801 -1.2792 -2.1396 -0.6060
  174SOPE   C2719751   6.498   1.804   9.651 -0.5111 -0.2503  0.0669
  174SOPE   H7R19752   6.544   1.901   9.622  0.0395 -1.0135 -1.7793
  174SOPE   H7S19753   6.580   1.729   9.654 -0.4092 -0.2621 -1.8104
  174SOPE   C2819754   6.393   1.757   9.558  0.1196 -0.0897  0.3726
  174SOPE   H8R19755   6.349   1.667   9.608  1.7041  0.2077  2.4521
  174SOPE   H8S19756   6.313   1.834   9.559 -0.7572 -0.9183 -1.4678
  174SOPE   C2919757   6.442   1.718   9.426  0.9608  1.0429  1.1371
  174SOPE   H9119758   6.511   1.633   9.419 -1.7153 -1.3540  1.8406
  174SOPE  C21019759   6.409   1.766   9.310 -0.1776 -0.4543  0.0007
  174SOPE  H10119760   6.440   1.718   9.216  0.4594  0.7839 -0.4406
  174SOPE  C21119761   6.307   1.876   9.286  0.1071 -0.4853  1.0658
  174SOPE  H11R19762   6.340   1.967   9.341 -2.2407  0.3243  1.2178
  174SOPE  H11S19763   6.206   1.843   9.318  0.5432 -1.6772  1.2667
  174SOPE  C21219764   6.287   1.918   9.138 -0.8196  0.6733  0.0201
  174SOPE  H12R19765   6.202   1.989   9.129 -0.9635  0.3971 -0.8404
  174SOPE  H12S19766   6.244   1.826   9.093 -0.8536  1.2806 -1.2249
  174SOPE  C21319767   6.417   1.952   9.067 -0.2322  0.4562 -0.2817
  174SOPE  H13R19768   6.493   1.872   9.061 -1.2496 -0.4685 -1.5774
  174SOPE  H13S19769   6.449   2.051   9.105  1.1573 -0.3658  0.7903
  174SOPE  C21419770   6.395   1.978   8.913  0.1204  0.5956  0.4161
  174SOPE  H14R19771   6.309   2.047   8.897 -1.2516 -1.4770 -1.8836
  174SOPE  H14S19772   6.364   1.884   8.863 -1.9586  0.3584  2.0224
  174SOPE  C21519773   6.522   2.034   8.846  0.1436  0.4342 -0.0693
  174SOPE  H15R19774   6.609   1.986   8.895 -0.6681 -0.8416  0.1979
  174SOPE  H15S19775   6.525   2.139   8.879 -0.9090  0.0754  1.2571
  174SOPE  C21619776   6.535   2.023   8.696 -0.4663  0.5422  0.3421
  174SOPE  H16R19777   6.528   1.915   8.671 -1.4713  0.3363  1.4357
  174SOPE  H16S19778   6.641   2.046   8.673  0.0422 -2.5732 -0.8275
  174SOPE  C21719779   6.436   2.099   8.610  0.0867 -0.2313 -0.1439
  174SOPE  H17R19780   6.358   2.147   8.673  0.8170 -1.2349  1.5975
  174SOPE  H17S19781   6.371   2.040   8.542 -0.9921  0.4846  0.2291
  174SOPE  C21819782   6.497   2.212   8.525 -0.0663 -0.1037  0.3191
  174SOPE  H18R19783   6.550   2.171   8.437 -1.0682  2.2921 -1.5116
  174SOPE  H18S19784   6.567   2.265   8.593  1.1662 -1.5130  0.1798
  174SOPE  H18T19785   6.413   2.279   8.495 -0.4668  0.5592  2.6799
  174SOPE   C3319786   6.566   1.422   9.973 -0.9184  0.7977 -0.3084
  174SOPE   H3X19787   6.634   1.338  10.000 -1.7149  0.5581  1.0480
  174SOPE   H3Y19788   6.626   1.511  10.003 -0.4139  0.7991 -1.2722
  174SOPE   C3419789   6.550   1.423   9.824 -0.0317 -0.5118  0.4631
  174SOPE   H4X19790   6.494   1.511   9.786 -1.6513 -0.2138  3.2770
  174SOPE   H4Y19791   6.484   1.339   9.794 -0.3937  0.4472 -1.6584
  174SOPE   C3519792   6.682   1.434   9.740 -0.3022 -0.9771 -0.0660
  174SOPE   H5X19793   6.762   1.361   9.764  0.1942 -0.8199 -1.1977
  174SOPE   H5Y19794   6.718   1.537   9.765 -0.4858 -1.5091  2.7481
  174SOPE   C3619795   6.657   1.425   9.593  0.1841 -0.2863  0.3926
  174SOPE   H6X19796   6.557   1.465   9.564  1.3975  2.1598 -0.7436
  174SOPE   H6Y19797   6.660   1.316   9.571  0.9264 -0.4086  1.0553
  174SOPE   C3719798   6.767   1.486   9.507 -0.1447 -0.5986  0.0288
  174SOPE   H7X19799   6.865   1.445   9.538 -0.9377 -3.7219 -1.1287
  174SOPE   H7Y19800   6.771   1.595   9.527 -0.2721 -0.5387 -0.2546
  174SOPE   C3819801   6.742   1.480   9.355 -0.0696 -0.4064 -0.4962
  174SOPE   H8X19802   6.838   1.516   9.310  1.8357 -1.7635  2.1962
  174SOPE   H8Y19803   6.667   1.555   9.324 -0.4750  0.7238  2.8586
  174SOPE   C3919804   6.718   1.339   9.305  0.4160  0.2776  0.2888
  174SOPE   H9X19805   6.616   1.301   9.330  0.1663  0.6897 -0.0893
  174SOPE   H9Y19806   6.788   1.270   9.356 -1.1918 -2.8119 -1.3993
  174SOPE  C31019807   6.722   1.335   9.154  0.8811  0.3489 -0.0266
  174SOPE  H10X19808   6.810   1.396   9.124 -0.3000  0.5788 -3.4850
  174SOPE  H10Y19809   6.638   1.396   9.114 -0.4137 -0.1512  1.8035
  174SOPE  C31119810   6.717   1.188   9.098  0.0007 -0.4330 -0.7514
  174SOPE  H11X19811   6.619   1.138   9.112 -0.1582 -0.1539 -0.8554
  174SOPE  H11Y19812   6.798   1.123   9.139 -0.8088 -0.8441  0.2343
  174SOPE  C31219813   6.732   1.180   8.944 -0.5585 -0.1119  0.2480
  174SOPE  H12X19814   6.684   1.273   8.908 -0.9311 -0.3599  0.0989
  174SOPE  H12Y19815   6.685   1.086   8.908 -1.3096 -0.2057  1.4002
  174SOPE  C31319816   6.875   1.192   8.886 -0.1306 -0.2477  0.2042
  174SOPE  H13X19817   6.936   1.132   8.958 -2.7998 -1.8306  1.3275
  174SOPE  H13Y19818   6.922   1.292   8.881  1.5568 -1.0655 -2.9150
  174SOPE  C31419819   6.896   1.142   8.745  0.6676 -0.0306 -0.9762
  174SOPE  H14X19820   6.863   1.037   8.734 -0.0417  0.0779  0.0546
  174SOPE  H14Y19821   7.005   1.133   8.724  0.5559  1.3538 -2.3396
  174SOPE  C31519822   6.833   1.234   8.630 -0.2252  0.1242  0.3654
  174SOPE  H15X19823   6.876   1.336   8.635 -0.0154  0.0200  0.7018
  174SOPE  H15Y19824   6.725   1.250   8.650  0.0342 -1.0218  3.2274
  174SOPE  C31619825   6.845   1.175   8.486  0.2920 -0.9276  0.4141
  174SOPE  H16X19826   6.768   1.104   8.449 -0.6060  0.7564 -1.0876
  174SOPE  H16Y19827   6.939   1.116   8.486  0.8218 -0.4296  4.8215
  174SOPE  C31719828   6.862   1.286   8.378  0.0602 -0.4053  0.3264
  174SOPE  H17X19829   6.873   1.232   8.281 -1.8523 -3.0831  1.4748
  174SOPE  H17Y19830   6.940   1.361   8.405 -0.3339 -0.3718  1.4178
  174SOPE  C31819831   6.730   1.372   8.370  0.1531 -0.0098 -0.5090
  174SOPE  H18X19832   6.715   1.420   8.271  1.6118  4.1117  1.0584
  174SOPE  H18Y19833   6.752   1.457   8.437  1.3270  0.8556 -1.9403
  174SOPE  H18Z19834   6.635   1.321   8.397 -1.3754  2.5095 -0.8376
  175SOPE     N19835   3.252   3.103  10.514  0.2109 -0.0606 -0.4053
  175SOPE   HN119836   3.347   3.097  10.556  0.9291 -1.1732 -2.1034
  175SOPE   HN219837   3.213   3.012  10.482 -0.1809  0.7566 -2.3997
  175SOPE   HN319838   3.261   3.162  10.429 -0.6906  2.0877  0.9046
  175SOPE   C1219839   3.163   3.171  10.620 -0.0961 -0.4758  0.4579
  175SOPE  H12A19840   3.183   3.280  10.605  0.1801 -0.4015  1.2817
  175SOPE  H12B19841   3.188   3.138  10.723 -2.5194 -0.8000  1.0077
  175SOPE   C1119842   3.015   3.153  10.584 -1.1066 -0.2691  0.5395
  175SOPE  H11A19843   3.005   3.044  10.565  2.6538 -0.9995  1.7849
  175SOPE  H11B19844   2.994   3.201  10.486  0.7537 -1.2033 -0.3901
  175SOPE     P19845   2.853   3.336  10.666  0.4260  0.1093  0.2323
  175SOPE   O1319846   2.949   3.437  10.616  0.2440  0.1161  0.0451
  175SOPE   O1419847   2.786   3.379  10.789  0.6212 -0.5334  0.2333
  175SOPE   O1219848   2.915   3.191  10.679 -0.1651  0.0329  0.0506
  175SOPE   O1119849   2.751   3.307  10.555  0.3122 -0.3973 -0.2908
  175SOPE    C119850   2.634   3.227  10.563  0.7151  0.3116  0.2883
  175SOPE    HA19851   2.549   3.298  10.554  0.5282  0.0676  0.1030
  175SOPE    HB19852   2.629   3.179  10.663 -0.0995 -1.5560 -0.6015
  175SOPE    C219853   2.638   3.114  10.455  0.2670  0.2334 -0.4434
  175SOPE    HS19854   2.712   3.037  10.485 -1.0017 -0.4413  1.1076
  175SOPE   O2119855   2.683   3.170  10.328 -0.7229  0.4032 -0.3971
  175SOPE   C2119856   2.784   3.119  10.265 -0.0176 -0.0053 -0.4010
  175SOPE   O2219857   2.859   3.033  10.309 -0.2037 -0.1635 -0.2623
  175SOPE   C2219858   2.785   3.178  10.119 -0.2497  0.5849 -0.4809
  175SOPE   H2R19859   2.888   3.214  10.100  0.3172 -0.1647  0.9822
  175SOPE   H2S19860   2.722   3.270  10.113  1.1688  1.6300  0.1415
  175SOPE    C319861   2.508   3.049  10.428 -0.7392 -0.4145  0.0228
  175SOPE    HX19862   2.430   3.127  10.411 -0.0430 -0.0861 -1.9002
  175SOPE    HY19863   2.480   2.985  10.514 -1.2831 -2.1415 -1.3730
  175SOPE   O3119864   2.508   2.970  10.312  0.2562 -0.1431  0.1775
  175SOPE   C3119865   2.401   2.933  10.246  0.2977 -0.1441  1.1930
  175SOPE   O3219866   2.286   2.965  10.276  0.0832 -1.2716  0.2339
  175SOPE   C3219867   2.440   2.841  10.130  0.2097 -0.6218  0.5567
  175SOPE   H2X19868   2.472   2.743  10.173  4.7725  1.2114  1.9721
  175SOPE   H2Y19869   2.533   2.886  10.091 -0.2215 -0.9371 -0.8761
  175SOPE   C2319870   2.736   3.077  10.009 -0.5326  0.1372 -0.4098
  175SOPE   H3R19871   2.637   3.039  10.040 -0.1884 -2.0073 -1.7340
  175SOPE   H3S19872   2.822   3.006  10.004 -0.2539  0.3982  0.4247
  175SOPE   C2419873   2.721   3.147   9.875  0.1298  0.2127  0.0246
  175SOPE   H4R19874   2.651   3.233   9.876 -0.2931 -0.1141  1.4465
  175SOPE   H4S19875   2.820   3.185   9.842  0.0249  0.0073 -0.5329
  175SOPE   C2519876   2.666   3.042   9.773  0.1429 -0.5071  0.6925
  175SOPE   H5R19877   2.721   2.946   9.779 -0.9824 -1.3874 -1.7284
  175SOPE   H5S19878   2.562   3.018   9.805  0.6797 -2.3220  1.2096
  175SOPE   C2619879   2.648   3.108   9.636 -0.5484 -0.8253  0.1498
  175SOPE   H6R19880   2.603   3.209   9.645  0.2468 -0.2532 -1.7055
  175SOPE   H6S19881   2.752   3.115   9.598 -0.5367 -1.0487  0.1401
  175SOPE   C2719882   2.571   3.030   9.531 -0.2686  0.1866 -0.1019
  175SOPE   H7R19883   2.603   2.924   9.537  1.5289  0.7424  1.1275
  175SOPE   H7S19884   2.465   3.039   9.562  0.0246  2.1532  0.4903
  175SOPE   C2819885   2.600   3.087   9.387  0.3407  0.6004  0.0355
  175SOPE   H8R19886   2.587   3.197   9.395  1.3813  0.7635 -0.3851
  175SOPE   H8S19887   2.710   3.078   9.377  0.3399  1.6099 -1.1850
  175SOPE   C2919888   2.531   3.018   9.270  0.5988  0.0862 -0.1564
  175SOPE   H9119889   2.421   3.021   9.277  0.6901 -0.4572  3.2590
  175SOPE  C21019890   2.596   2.963   9.165  0.6749 -0.6332 -0.3833
  175SOPE  H10119891   2.538   2.921   9.083  0.4388  0.4658 -0.8000
  175SOPE  C21119892   2.750   2.961   9.144 -0.2018  0.3332  0.2789
  175SOPE  H11R19893   2.818   3.010   9.217  0.7195  1.2328 -1.1289
  175SOPE  H11S19894   2.771   3.015   9.049 -0.7211 -1.6689 -1.0284
  175SOPE  C21219895   2.800   2.814   9.120  0.0033  0.5585  0.1453
  175SOPE  H12R19896   2.754   2.755   9.202  1.3122  1.4601  1.5952
  175SOPE  H12S19897   2.908   2.812   9.147 -0.1591  0.1358  0.7696
  175SOPE  C21319898   2.768   2.758   8.979 -0.3889 -0.2317 -0.4989
  175SOPE  H13R19899   2.783   2.834   8.899 -1.5864 -0.1374 -0.6597
  175SOPE  H13S19900   2.660   2.735   8.967 -1.4236  3.8248 -0.5197
  175SOPE  C21419901   2.860   2.644   8.952  0.4154 -0.5020 -0.0993
  175SOPE  H14R19902   2.868   2.592   9.050  1.5013  1.2559  0.7967
  175SOPE  H14S19903   2.959   2.687   8.927 -0.0847  3.7064  3.8967
  175SOPE  C21519904   2.802   2.539   8.857  0.5152 -0.6724  0.2725
  175SOPE  H15R19905   2.831   2.557   8.752  1.1187 -2.1694  0.1581
  175SOPE  H15S19906   2.691   2.542   8.859  0.4831 -0.2454 -1.0336
  175SOPE  C21619907   2.838   2.398   8.894  0.0121  0.0463 -0.2788
  175SOPE  H16R19908   2.941   2.402   8.936 -1.2071  0.6795  2.9706
  175SOPE  H16S19909   2.834   2.339   8.801 -0.5794 -1.6800  0.7946
  175SOPE  C21719910   2.748   2.338   9.010 -0.1030  0.4295  0.3883
  175SOPE  H17R19911   2.649   2.311   8.968  0.6662 -1.7345 -0.2160
  175SOPE  H17S19912   2.733   2.407   9.096  3.0946  1.6790  0.0895
  175SOPE  C21819913   2.819   2.210   9.059  0.2032 -0.0242  0.1472
  175SOPE  H18R19914   2.745   2.150   9.115  0.1377 -1.7836 -1.6865
  175SOPE  H18S19915   2.906   2.242   9.121  0.3961  1.2323 -0.7351
  175SOPE  H18T19916   2.848   2.150   8.970 -0.3874 -0.3012  0.1362
  175SOPE   C3319917   2.324   2.825  10.032 -0.1138  0.0087  0.4616
  175SOPE   H3X19918   2.303   2.913   9.967  2.9380 -0.5081 -1.4576
  175SOPE   H3Y19919   2.237   2.792  10.091  0.7346 -0.5393  1.4282
  175SOPE   C3419920   2.343   2.716   9.925 -0.4799  0.3847  0.4132
  175SOPE   H4X19921   2.252   2.660   9.897  0.2696 -0.7588  0.1948
  175SOPE   H4Y19922   2.401   2.627   9.960  0.3664  1.4443  1.8646
  175SOPE   C3519923   2.409   2.767   9.792  0.2839 -0.1260  0.1567
  175SOPE   H5X19924   2.507   2.810   9.821  0.9666 -2.4743  1.6532
  175SOPE   H5Y19925   2.341   2.841   9.745  1.3936  0.6665 -0.2231
  175SOPE   C3619926   2.427   2.640   9.698  0.9576  0.0309 -0.3271
  175SOPE   H6X19927   2.503   2.572   9.741 -0.2372  0.3341  2.4532
  175SOPE   H6Y19928   2.457   2.670   9.595 -0.6622  0.2343 -0.7668
  175SOPE   C3719929   2.295   2.554   9.679  0.4849  0.1176 -0.2060
  175SOPE   H7X19930   2.211   2.627   9.674 -0.6688 -1.1838 -0.6590
  175SOPE   H7Y19931   2.283   2.496   9.773  0.1192  0.5868  0.0452
  175SOPE   C3819932   2.299   2.460   9.557  0.2627 -0.0986  0.9817
  175SOPE   H8X19933   2.374   2.382   9.584 -1.1344 -0.8685  2.9134
  175SOPE   H8Y19934   2.346   2.522   9.478 -0.9077  0.0005  0.3351
  175SOPE   C3919935   2.159   2.405   9.516 -0.0563  0.3752  0.5325
  175SOPE   H9X19936   2.077   2.463   9.564 -1.9381 -1.5834 -0.1510
  175SOPE   H9Y19937   2.152   2.298   9.547  0.2803  0.5617  1.2817
  175SOPE  C31019938   2.148   2.417   9.361 -0.0637  0.0980  0.0588
  175SOPE  H10X19939   2.229   2.361   9.310  0.1638  0.9343 -0.5198
  175SOPE  H10Y19940   2.164   2.524   9.338 -0.5979 -0.1975 -1.7782
  175SOPE  C31119941   2.019   2.367   9.298 -0.8109  0.1368  0.4269
  175SOPE  H11X19942   1.938   2.419   9.354 -0.7221 -1.4708  2.1380
  175SOPE  H11Y19943   2.000   2.261   9.324  1.4946  0.1696  2.7416
  175SOPE  C31219944   2.004   2.394   9.143  0.1826  0.2803  0.1457
  175SOPE  H12X19945   2.014   2.298   9.088  0.4081 -0.5752  1.6260
  175SOPE  H12Y19946   2.092   2.450   9.107  1.9436 -2.1890  0.3851
  175SOPE  C31319947   1.877   2.474   9.108  0.2934  0.3645  0.0532
  175SOPE  H13X19948   1.863   2.561   9.176 -1.3375  0.4549 -0.3322
  175SOPE  H13Y19949   1.784   2.414   9.113 -1.0533  2.1759 -1.3933
  175SOPE  C31419950   1.883   2.516   8.964  0.3086  0.2046  0.3031
  175SOPE  H14X19951   1.899   2.426   8.900  0.3727 -0.8726  1.7616
  175SOPE  H14Y19952   1.971   2.582   8.949 -1.3861  2.4845 -0.1018
  175SOPE  C31519953   1.761   2.592   8.915  0.0909 -0.2017 -0.2528
  175SOPE  H15X19954   1.671   2.532   8.939 -0.3503  0.3736 -0.4520
  175SOPE  H15Y19955   1.767   2.599   8.805  1.0703  0.5307 -0.1719
  175SOPE  C31619956   1.762   2.732   8.979 -0.5287 -0.3567  0.8530
  175SOPE  H16X19957   1.864   2.777   8.978 -0.0251 -1.4523 -0.9940
  175SOPE  H16Y19958   1.721   2.731   9.083 -1.5581  1.2511  0.5000
  175SOPE  C31719959   1.669   2.833   8.901 -1.2564  0.4172 -0.3409
  175SOPE  H17X19960   1.707   2.842   8.798 -0.7436  0.6093 -0.1358
  175SOPE  H17Y19961   1.678   2.931   8.953 -2.7469 -0.1546  1.0890
  175SOPE  C31819962   1.521   2.793   8.907  0.4123  0.1040 -0.5498
  175SOPE  H18X19963   1.484   2.784   9.011 -1.1955  0.6847 -1.0371
  175SOPE  H18Y19964   1.507   2.695   8.857  1.5322  0.2529 -1.2008
  175SOPE  H18Z19965   1.458   2.866   8.852 -1.2808 -1.2015 -0.4157
  176SOPE     N19966   1.359   3.580  11.409  0.0172 -0.3757 -0.3937
  176SOPE   HN119967   1.328   3.573  11.508  0.7688 -1.4654 -0.2206
  176SOPE   HN219968   1.392   3.674  11.379 -0.7449 -0.0492 -0.2538
  176SOPE   HN319969   1.281   3.553  11.346 -1.3724 -0.2395  1.1824
  176SOPE   C1219970   1.460   3.471  11.407 -0.0438 -0.5471 -0.3089
  176SOPE  H12A19971   1.412   3.380  11.449 -1.4985 -0.3985 -1.5831
  176SOPE  H12B19972   1.540   3.503  11.478 -0.4609  0.3991 -0.2538
  176SOPE   C1119973   1.534   3.438  11.281 -0.0543  0.4683 -0.1681
  176SOPE  H11A19974   1.463   3.401  11.205 -1.1149 -0.8078  1.3646
  176SOPE  H11B19975   1.615   3.363  11.300  0.0744  0.1365 -1.9058
  176SOPE     P19976   1.657   3.559  11.095 -0.1482 -0.3148  0.1300
  176SOPE   O1319977   1.728   3.439  11.074 -0.3806  0.6463 -0.1233
  176SOPE   O1419978   1.726   3.689  11.066 -0.3110 -0.1814 -0.2225
  176SOPE   O1219979   1.601   3.561  11.242 -0.1869 -0.8406  0.0659
  176SOPE   O1119980   1.527   3.562  10.999  0.0768  0.1713  0.1742
  176SOPE    C119981   1.414   3.641  11.029 -0.2356 -0.2887 -0.6596
  176SOPE    HA19982   1.432   3.743  10.991  0.7720 -0.7058 -1.3356
  176SOPE    HB19983   1.402   3.663  11.137 -0.8828  4.5585 -1.4973
  176SOPE    C219984   1.294   3.576  10.958  0.0651 -0.3516  0.0689
  176SOPE    HS19985   1.272   3.486  11.020  0.0395 -0.4516 -0.0856
  176SOPE   O2119986   1.329   3.549  10.817  0.2023 -0.2648 -0.0124
  176SOPE   C2119987   1.302   3.425  10.779 -0.0250 -0.3259  0.4370
  176SOPE   O2219988   1.237   3.345  10.836 -0.2878 -0.3016  0.0410
  176SOPE   C2219989   1.330   3.420  10.626 -0.2820 -0.4952 -0.5693
  176SOPE   H2R19990   1.400   3.337  10.600  1.3478  0.4879  0.4653
  176SOPE   H2S19991   1.392   3.510  10.605 -1.0675 -0.0054 -0.8265
  176SOPE    C319992   1.161   3.659  10.951 -0.5880 -0.4120 -0.4313
  176SOPE    HX19993   1.205   3.746  10.899  0.5965 -1.2158 -0.8349
  176SOPE    HY19994   1.132   3.690  11.054  0.3635 -1.8252  0.3085
  176SOPE   O3119995   1.052   3.588  10.883  0.6131  0.1007 -0.0128
  176SOPE   C3119996   0.956   3.674  10.848 -0.2276  0.3621 -0.3099
  176SOPE   O3219997   0.953   3.792  10.878 -0.0502  0.4609 -0.2672
  176SOPE   C3219998   0.842   3.600  10.784 -0.5012  0.0874 -0.6515
  176SOPE   H2X19999   0.756   3.580  10.851  1.5210 -0.0401  2.0457
  176SOPE   H2Y20000   0.882   3.501  10.752 -0.5802 -0.1950  0.1131
  176SOPE   C2320001   1.209   3.441  10.532  0.9997  0.6003 -0.0866
  176SOPE   H3R20002   1.153   3.532  10.563 -3.1799 -1.1630 -1.6686
  176SOPE   H3S20003   1.136   3.359  10.546 -0.9841  2.5779  2.1088
  176SOPE   C2420004   1.236   3.459  10.382 -0.3119 -0.4759  0.2032
  176SOPE   H4R20005   1.285   3.367  10.344 -0.4622 -0.4681 -0.0177
  176SOPE   H4S20006   1.141   3.471  10.325  0.0370 -3.4978 -1.2430
  176SOPE   C2520007   1.327   3.579  10.358 -0.3561  0.2244 -0.0282
  176SOPE   H5R20008   1.294   3.660  10.427 -0.0635 -2.8708  4.1054
  176SOPE   H5S20009   1.433   3.553  10.380 -0.7129 -0.1370  1.3721
  176SOPE   C2620010   1.327   3.625  10.211  0.0576  0.1545  0.4628
  176SOPE   H6R20011   1.218   3.648  10.202 -0.4397 -1.5351  1.7687
  176SOPE   H6S20012   1.378   3.724  10.213 -0.7387  0.7170 -2.2277
  176SOPE   C2720013   1.380   3.526  10.117  0.4446  0.0967  0.5658
  176SOPE   H7R20014   1.491   3.528  10.109  0.3320  1.0393 -2.2424
  176SOPE   H7S20015   1.357   3.428  10.163 -1.8240  0.6948  0.7820
  176SOPE   C2820016   1.320   3.498   9.978 -0.5329 -0.9143 -1.0065
  176SOPE   H8R20017   1.352   3.401   9.935  2.8428 -0.3796  0.0424
  176SOPE   H8S20018   1.211   3.494  10.000  0.1749 -2.1432  3.0306
  176SOPE   C2920019   1.348   3.613   9.885  0.0437  0.7573  0.7592
  176SOPE   H9120020   1.293   3.708   9.897  0.3089  0.9940  0.1820
  176SOPE  C21020021   1.447   3.612   9.791 -0.7225  0.3614  0.4116
  176SOPE  H10120022   1.459   3.694   9.719  2.6767 -0.1288  0.2327
  176SOPE  C21120023   1.544   3.490   9.773  0.1485 -0.0586  0.6925
  176SOPE  H11R20024   1.549   3.426   9.864 -1.6477 -1.9235 -0.4423
  176SOPE  H11S20025   1.645   3.522   9.737 -0.2842  0.1070 -0.4210
  176SOPE  C21220026   1.491   3.414   9.648 -0.1217 -0.1182 -0.2544
  176SOPE  H12R20027   1.434   3.484   9.584 -0.4055 -2.0246 -2.2256
  176SOPE  H12S20028   1.414   3.339   9.676 -0.7139  0.7990  0.6035
  176SOPE  C21320029   1.598   3.347   9.558 -0.8754  0.0612  0.0842
  176SOPE  H13R20030   1.619   3.250   9.608 -2.8187 -0.9055 -0.8510
  176SOPE  H13S20031   1.695   3.401   9.556 -1.1151  0.6789  2.0327
  176SOPE  C21420032   1.548   3.313   9.414  0.3835 -0.6243 -0.5639
  176SOPE  H14R20033   1.513   3.406   9.362  1.6721  0.4318  0.3915
  176SOPE  H14S20034   1.452   3.259   9.431 -0.3494  0.8741  0.2886
  176SOPE  C21520035   1.646   3.231   9.321 -0.1354  0.2190 -0.4593
  176SOPE  H15R20036   1.690   3.149   9.382  0.1158 -1.0234 -2.2484
  176SOPE  H15S20037   1.731   3.297   9.293 -0.5237  1.3240  0.8174
  176SOPE  C21620038   1.568   3.183   9.195 -0.3625 -0.2548  0.4724
  176SOPE  H16R20039   1.467   3.144   9.220 -1.5560  1.8541 -0.7508
  176SOPE  H16S20040   1.614   3.091   9.151 -1.2682  0.5114 -2.2586
  176SOPE  C21720041   1.551   3.300   9.094  0.1290 -0.2995 -0.5248
  176SOPE  H17R20042   1.654   3.334   9.070 -0.0746  0.6929 -0.0265
  176SOPE  H17S20043   1.494   3.379   9.146 -0.9671 -1.5413  0.2389
  176SOPE  C21820044   1.470   3.246   8.976 -0.3510  0.6530  0.1641
  176SOPE  H18R20045   1.512   3.147   8.951 -1.8172 -0.0788  0.4562
  176SOPE  H18S20046   1.485   3.306   8.884  2.6622  0.1031  0.2257
  176SOPE  H18T20047   1.363   3.239   9.006 -0.3422 -0.0429  0.0484
  176SOPE   C3320048   0.784   3.673  10.659  0.4897 -0.2191 -0.0222
  176SOPE   H3X20049   0.742   3.775  10.673 -0.8515 -0.4229 -2.1266
  176SOPE   H3Y20050   0.695   3.613  10.631 -1.1948  3.1107 -2.5184
  176SOPE   C3420051   0.884   3.663  10.532  0.1371 -0.4293  0.2497
  176SOPE   H4X20052   0.903   3.561  10.492  1.3515  1.2140 -3.9401
  176SOPE   H4Y20053   0.984   3.702  10.559  0.0193  0.2705 -0.2896
  176SOPE   C3520054   0.830   3.753  10.417  0.1923 -0.1614  0.0702
  176SOPE   H5X20055   0.809   3.858  10.447 -1.9076 -0.1303 -1.3308
  176SOPE   H5Y20056   0.725   3.723  10.399 -0.1424  1.2171 -0.4153
  176SOPE   C3620057   0.919   3.745  10.295 -0.0607 -0.2495  0.5025
  176SOPE   H6X20058   1.002   3.674  10.317 -1.5693 -2.1646  0.2664
  176SOPE   H6Y20059   0.976   3.840  10.287 -0.8559  0.1326 -0.9602
  176SOPE   C3720060   0.843   3.723  10.161 -0.2871 -0.3559 -0.0007
  176SOPE   H7X20061   0.761   3.797  10.148  1.4516  1.3292 -2.1871
  176SOPE   H7Y20062   0.792   3.626  10.180 -0.8348  0.0731  0.8076
  176SOPE   C3820063   0.930   3.714  10.038  0.1974  0.4882  0.5417
  176SOPE   H8X20064   1.000   3.629  10.054 -0.0548  0.2093  0.1704
  176SOPE   H8Y20065   0.992   3.806  10.030  2.1853 -0.5745  2.3973
  176SOPE   C3920066   0.854   3.700   9.901  0.1050 -0.3700 -0.1033
  176SOPE   H9X20067   0.757   3.647   9.912  1.3034 -2.5450  0.4772
  176SOPE   H9Y20068   0.907   3.643   9.821 -0.6275 -1.2628  0.0311
  176SOPE  C31020069   0.830   3.839   9.830  0.3408 -0.0969  0.2633
  176SOPE  H10X20070   0.922   3.901   9.827 -1.8634  3.3689 -0.5753
  176SOPE  H10Y20071   0.760   3.894   9.895 -0.4368 -0.1957 -0.4742
  176SOPE  C31120072   0.770   3.816   9.691  0.2486  0.0773  0.0898
  176SOPE  H11X20073   0.675   3.759   9.697 -1.3886  2.6067 -0.7654
  176SOPE  H11Y20074   0.838   3.752   9.632 -0.1876  0.8994 -1.3341
  176SOPE  C31220075   0.739   3.947   9.625 -0.6500 -0.1460  0.2660
  176SOPE  H12X20076   0.826   4.015   9.641  0.5185 -1.5556  0.1180
  176SOPE  H12Y20077   0.649   3.997   9.665 -2.0430 -2.5087  0.2352
  176SOPE  C31320078   0.723   3.936   9.471 -0.8380 -0.1987 -0.1225
  176SOPE  H13X20079   0.672   4.026   9.430 -0.9824 -1.5646 -3.2877
  176SOPE  H13Y20080   0.653   3.851   9.454 -0.3183 -0.7079  0.2707
  176SOPE  C31420081   0.851   3.940   9.391  0.5178  0.1309 -0.4220
  176SOPE  H14X20082   0.918   3.859   9.429 -0.6862 -0.5791  0.2499
  176SOPE  H14Y20083   0.901   4.038   9.407  1.5746 -0.4080 -0.3587
  176SOPE  C31520084   0.821   3.918   9.242 -0.1648 -0.2653 -0.1899
  176SOPE  H15X20085   0.911   3.945   9.184  0.4628  0.9536  1.2954
  176SOPE  H15Y20086   0.735   3.974   9.199  0.7451  0.9285 -0.4965
  176SOPE  C31620087   0.800   3.767   9.202 -0.1136 -0.5177 -0.5902
  176SOPE  H16X20088   0.690   3.754   9.192 -0.3572  1.7365 -1.2073
  176SOPE  H16Y20089   0.840   3.710   9.289  1.9736  0.6279 -0.7251
  176SOPE  C31720090   0.882   3.724   9.079  0.6139  0.2367  0.6194
  176SOPE  H17X20091   0.985   3.763   9.067 -0.3832  2.8495  0.0059
  176SOPE  H17Y20092   0.829   3.778   8.998  1.5848  0.7679  0.3279
  176SOPE  C31820093   0.879   3.566   9.063 -0.2910 -0.1045 -0.0446
  176SOPE  H18X20094   0.775   3.535   9.040  0.5315 -1.9828 -1.4639
  176SOPE  H18Y20095   0.907   3.525   9.163  2.6018  2.0731  0.1637
  176SOPE  H18Z20096   0.952   3.528   8.989 -0.1119 -1.1998  0.6824
  177SOPE     N20097   2.210   0.929  11.281 -0.6331  0.1358  0.1890
  177SOPE   HN120098   2.170   0.901  11.189  0.7065 -0.5864 -0.1924
  177SOPE   HN220099   2.248   0.841  11.322 -1.5728 -0.5660 -0.3808
  177SOPE   HN320100   2.130   0.969  11.335  0.1481  1.0203  0.7122
  177SOPE   C1220101   2.325   1.026  11.254 -0.5872 -0.0540  0.0063
  177SOPE  H12A20102   2.362   1.085  11.341  0.0328 -1.9491  1.0804
  177SOPE  H12B20103   2.284   1.094  11.176 -2.4436 -0.7411  0.3362
  177SOPE   C1120104   2.450   0.957  11.186 -0.8471  0.4027 -0.0938
  177SOPE  H11A20105   2.472   0.881  11.264 -0.5321  0.8710  0.2763
  177SOPE  H11B20106   2.538   1.024  11.185  1.0693 -1.8916  2.2566
  177SOPE     P20107   2.540   0.785  11.008 -0.0967 -0.3682 -0.2211
  177SOPE   O1320108   2.477   0.665  10.947  0.3114 -0.2707  0.4486
  177SOPE   O1420109   2.630   0.763  11.128  0.0268 -0.0770  0.1608
  177SOPE   O1220110   2.426   0.890  11.061 -0.3414 -0.5580  0.2297
  177SOPE   O1120111   2.621   0.872  10.904  0.1343  0.2245 -0.6307
  177SOPE    C120112   2.625   1.015  10.921 -0.3966  0.6347 -0.1855
  177SOPE    HA20113   2.682   1.044  11.012 -0.7616 -4.6363  2.0379
  177SOPE    HB20114   2.529   1.070  10.923 -2.4214 -2.6413  2.3351
  177SOPE    C220115   2.708   1.079  10.807 -0.1444 -0.2936  0.3394
  177SOPE    HS20116   2.711   1.189  10.814 -0.7997 -0.2905  0.6509
  177SOPE   O2120117   2.652   1.038  10.687  0.6606 -0.4487  0.0423
  177SOPE   C2120118   2.551   1.117  10.643  0.8806 -0.6375 -0.0936
  177SOPE   O2220119   2.505   1.212  10.701  1.2567  0.0104  0.4742
  177SOPE   C2220120   2.508   1.080  10.504  0.4372  0.2023  0.9285
  177SOPE   H2R20121   2.406   1.122  10.496  0.5386  0.5610  1.4882
  177SOPE   H2S20122   2.508   0.969  10.493 -2.2081  0.1900  0.3877
  177SOPE    C320123   2.868   1.046  10.818  0.2052 -0.1150 -0.0998
  177SOPE    HX20124   2.873   0.935  10.821 -1.4919 -0.2650 -1.4599
  177SOPE    HY20125   2.909   1.092  10.910  1.4633 -0.7150 -0.3375
  177SOPE   O3120126   2.936   1.102  10.699 -0.2523 -0.2314 -0.2379
  177SOPE   C3120127   3.066   1.072  10.687 -0.7904 -0.3267 -0.2891
  177SOPE   O3220128   3.131   1.004  10.764  0.1945 -0.3447  0.0160
  177SOPE   C3220129   3.129   1.125  10.560 -0.0973 -0.6259  0.8105
  177SOPE   H2X20130   3.119   1.235  10.559 -0.2995 -0.6426  0.9534
  177SOPE   H2Y20131   3.072   1.081  10.475  3.1705  0.5501 -2.2191
  177SOPE   C2320132   2.608   1.142  10.396 -0.1474  0.2869  0.9461
  177SOPE   H3R20133   2.609   1.250  10.419 -2.7998  0.4505  0.6723
  177SOPE   H3S20134   2.562   1.144  10.294 -1.2742  1.9914  1.4337
  177SOPE   C2420135   2.747   1.070  10.390 -0.0862 -0.0561 -0.6163
  177SOPE   H4R20136   2.798   1.101  10.484 -0.6242 -2.9739  0.7714
  177SOPE   H4S20137   2.730   0.960  10.400  0.3896 -0.0314  0.5912
  177SOPE   C2520138   2.812   1.090  10.260 -0.4095  0.2082  0.1932
  177SOPE   H5R20139   2.898   1.020  10.261 -1.9598 -1.8239 -1.2595
  177SOPE   H5S20140   2.737   1.048  10.189  1.3721 -2.5790 -0.1485
  177SOPE   C2620141   2.856   1.231  10.234 -0.5181  0.0498 -0.5143
  177SOPE   H6R20142   2.770   1.300  10.222 -0.1266  0.4625 -1.0128
  177SOPE   H6S20143   2.898   1.277  10.326 -1.8579  0.3206 -0.0123
  177SOPE   C2720144   2.952   1.253  10.115 -0.4964  0.6015 -0.5815
  177SOPE   H7R20145   3.001   1.351  10.137  0.6553 -0.2705  0.9329
  177SOPE   H7S20146   3.022   1.167  10.114  0.3009  0.9705  3.4609
  177SOPE   C2820147   2.871   1.273   9.990 -0.0193  0.0859  0.3925
  177SOPE   H8R20148   2.826   1.173   9.967 -1.0000  0.4896  0.4854
  177SOPE   H8S20149   2.789   1.344  10.012 -0.3401 -0.3600  0.6504
  177SOPE   C2920150   2.944   1.319   9.874 -0.2377 -0.6490  0.0245
  177SOPE   H9120151   3.009   1.407   9.884 -3.0845  1.9056 -2.0682
  177SOPE  C21020152   2.945   1.267   9.750 -0.0295  0.2761 -0.3610
  177SOPE  H10120153   2.994   1.323   9.669  0.6844  1.0774  0.6089
  177SOPE  C21120154   2.866   1.146   9.698  0.5238 -0.5483  0.4614
  177SOPE  H11R20155   2.764   1.174   9.666 -0.1771  0.3456  3.1784
  177SOPE  H11S20156   2.852   1.075   9.782 -1.6731 -0.0178  0.5993
  177SOPE  C21220157   2.933   1.088   9.583  0.9400 -0.4413  0.5295
  177SOPE  H12R20158   2.916   0.979   9.591  0.3883 -0.4419 -0.4937
  177SOPE  H12S20159   3.044   1.087   9.580  0.9264  0.5001 -1.1375
  177SOPE  C21320160   2.888   1.143   9.450  0.8444  0.0288 -1.0024
  177SOPE  H13R20161   2.909   1.251   9.432 -1.1781  0.6056 -0.1857
  177SOPE  H13S20162   2.779   1.130   9.439  0.2242  2.2848  1.3366
  177SOPE  C21420163   2.957   1.068   9.332 -0.0748  0.1745 -0.4074
  177SOPE  H14R20164   2.930   0.960   9.324 -2.5833  0.8388 -2.2612
  177SOPE  H14S20165   3.067   1.080   9.337  0.3230 -2.6031 -0.6451
  177SOPE  C21520166   2.918   1.145   9.203 -0.2440  0.0801  0.5106
  177SOPE  H15R20167   2.978   1.238   9.192  1.5233 -1.0835 -0.0679
  177SOPE  H15S20168   2.813   1.182   9.208  0.2343  2.6895 -3.4479
  177SOPE  C21620169   2.934   1.060   9.078  0.8825  0.1022 -0.5688
  177SOPE  H16R20170   2.876   0.966   9.086  0.7427  0.1972 -0.4533
  177SOPE  H16S20171   3.036   1.019   9.062  0.6077 -0.0882 -1.9559
  177SOPE  C21720172   2.885   1.119   8.948  0.0666 -0.9091 -0.0856
  177SOPE  H17R20173   2.952   1.199   8.909 -1.9798  1.9449  1.8057
  177SOPE  H17S20174   2.786   1.161   8.974 -0.7783 -3.2866  0.7706
  177SOPE  C21820175   2.857   1.018   8.834 -0.0151 -1.0914  0.1413
  177SOPE  H18R20176   2.762   0.965   8.856 -0.7567  0.2427  0.2830
  177SOPE  H18S20177   2.931   0.936   8.822  1.1704  0.1720 -1.8821
  177SOPE  H18T20178   2.848   1.083   8.745 -1.0323 -1.3232  0.0702
  177SOPE   C3320179   3.281   1.101  10.553 -0.3526 -0.5712 -0.7596
  177SOPE   H3X20180   3.305   0.993  10.560 -0.0865 -0.4387  0.9860
  177SOPE   H3Y20181   3.329   1.150  10.641 -1.4883 -2.3321  0.9388
  177SOPE   C3420182   3.333   1.153  10.417 -0.1157 -0.4513  0.5085
  177SOPE   H4X20183   3.444   1.151  10.425 -0.1391 -0.4895  0.8637
  177SOPE   H4Y20184   3.316   1.262  10.409  0.3509 -0.4739 -1.1633
  177SOPE   C3520185   3.283   1.069  10.296 -0.1752 -0.5219 -0.2514
  177SOPE   H5X20186   3.175   1.084  10.276  0.4777  2.4574 -2.0275
  177SOPE   H5Y20187   3.294   0.962  10.327  1.4818  0.0341  1.2723
  177SOPE   C3620188   3.367   1.102  10.175 -0.1998  0.1239 -0.1106
  177SOPE   H6X20189   3.473   1.088  10.204 -0.7430  0.2992  2.1683
  177SOPE   H6Y20190   3.360   1.209  10.145  0.7346  0.0824 -0.5208
  177SOPE   C3720191   3.326   1.004  10.058  0.9513 -0.1697  0.1809
  177SOPE   H7X20192   3.219   0.976  10.075  0.7516 -0.5954 -1.5650
  177SOPE   H7Y20193   3.388   0.912  10.064  0.4764 -0.4089  3.3461
  177SOPE   C3820194   3.341   1.061   9.916 -0.1736  0.1693  0.2449
  177SOPE   H8X20195   3.445   1.099   9.921  0.2328 -1.0327  1.3944
  177SOPE   H8Y20196   3.267   1.141   9.896  0.2618  0.1049 -1.9005
  177SOPE   C3920197   3.334   0.969   9.793  0.4167 -0.2562  0.3637
  177SOPE   H9X20198   3.232   0.926   9.790 -0.8272  2.5672 -1.9250
  177SOPE   H9Y20199   3.406   0.885   9.787 -1.3611 -1.7775 -0.7158
  177SOPE  C31020200   3.340   1.044   9.666  0.3697 -0.2412  0.4837
  177SOPE  H10X20201   3.441   1.085   9.646  0.4013 -1.2696 -1.7429
  177SOPE  H10Y20202   3.262   1.123   9.667 -0.2760 -0.8754  1.0158
  177SOPE  C31120203   3.306   0.962   9.542 -0.3173  0.6478 -0.4445
  177SOPE  H11X20204   3.201   0.928   9.551  0.5566 -2.4887 -1.0382
  177SOPE  H11Y20205   3.370   0.871   9.541  0.3371  1.1027 -0.8546
  177SOPE  C31220206   3.328   1.032   9.411 -0.9198  0.5380 -0.1517
  177SOPE  H12X20207   3.428   1.079   9.415 -0.0995 -0.8565 -2.5529
  177SOPE  H12Y20208   3.252   1.108   9.385  0.0650  1.4081 -0.5408
  177SOPE  C31320209   3.319   0.939   9.293 -0.0332  0.6637  0.8464
  177SOPE  H13X20210   3.218   0.894   9.283 -0.5006  1.6819  0.8298
  177SOPE  H13Y20211   3.378   0.846   9.309  0.4185  1.0855  1.7324
  177SOPE  C31420212   3.369   1.000   9.160 -0.1394 -0.1737  0.2766
  177SOPE  H14X20213   3.477   1.015   9.180 -0.1437 -0.9589  0.9542
  177SOPE  H14Y20214   3.324   1.099   9.137  1.6011  0.1734 -1.9288
  177SOPE  C31520215   3.357   0.901   9.039 -0.1236 -0.5741  0.4287
  177SOPE  H15X20216   3.256   0.855   9.030 -0.1663 -0.2967 -0.6206
  177SOPE  H15Y20217   3.429   0.820   9.061 -0.0652 -0.7122 -0.2400
  177SOPE  C31620218   3.409   0.954   8.913  0.1407 -0.2279  0.6919
  177SOPE  H16X20219   3.518   0.972   8.920  0.0477  2.9153 -2.8785
  177SOPE  H16Y20220   3.364   1.051   8.882 -0.4525  0.0425  2.3148
  177SOPE  C31720221   3.394   0.853   8.788  0.2930  0.1065 -0.7130
  177SOPE  H17X20222   3.483   0.789   8.767 -1.1716 -2.8549  1.5051
  177SOPE  H17Y20223   3.366   0.915   8.699 -0.7919  1.6111  0.6245
  177SOPE  C31820224   3.283   0.747   8.796  0.2078  0.3072 -0.3034
  177SOPE  H18X20225   3.187   0.803   8.806 -2.1226 -2.9690 -2.1324
  177SOPE  H18Y20226   3.296   0.679   8.883 -0.7163 -1.3121 -1.3727
  177SOPE  H18Z20227   3.276   0.693   8.700 -1.0387  0.4491 -0.3208
  178SOPE     N20228   5.959   5.858  11.054 -0.1343  0.3063 -0.3119
  178SOPE   HN120229   5.910   5.934  11.105  0.4185 -0.1465  0.9324
  178SOPE   HN220230   5.920   5.765  11.082 -1.5589  0.5414 -1.4049
  178SOPE   HN320231   6.061   5.861  11.071 -0.1914 -0.8925  0.4359
  178SOPE   C1220232   5.919   5.860  10.910  0.3503  0.2880 -0.2506
  178SOPE  H12A20233   5.810   5.843  10.893 -0.6144  3.8643  1.4509
  178SOPE  H12B20234   5.979   5.782  10.858  0.4938  0.6578 -0.6372
  178SOPE   C1120235   5.952   5.993  10.853  0.1892  0.0138 -0.2866
  178SOPE  H11A20236   5.934   5.973  10.745  0.9293 -1.4957 -0.1507
  178SOPE  H11B20237   6.059   6.011  10.874  0.3296 -0.8814 -0.2252
  178SOPE     P20238   5.859   6.239  10.824 -0.0433 -0.2185  0.2227
  178SOPE   O1320239   5.852   6.352  10.913 -0.2587  0.5471  0.2575
  178SOPE   O1420240   5.752   6.231  10.722 -0.9506  0.3763  0.6970
  178SOPE   O1220241   5.876   6.102  10.910 -0.0645 -0.0664  0.8557
  178SOPE   O1120242   5.993   6.236  10.753 -0.2381  0.2257 -0.2291
  178SOPE    C120243   6.041   6.360  10.699  0.0267  0.8189 -0.0157
  178SOPE    HA20244   6.138   6.389  10.744 -0.1249  0.4821  0.5452
  178SOPE    HB20245   5.977   6.446  10.731  0.6936  1.7506 -1.1151
  178SOPE    C220246   6.050   6.364  10.546 -1.4093 -1.1570  0.1889
  178SOPE    HS20247   5.945   6.371  10.508 -0.2303  0.4889 -3.2377
  178SOPE   O2120248   6.122   6.250  10.492 -0.1528 -0.0462 -0.4082
  178SOPE   C2120249   6.052   6.169  10.408  0.0626  0.0746 -0.1987
  178SOPE   O2220250   5.941   6.189  10.373 -0.8835 -0.6666  0.4068
  178SOPE   C2220251   6.143   6.049  10.358 -0.1521 -0.0591  0.1446
  178SOPE   H2R20252   6.083   5.956  10.373 -2.7434  1.7954  2.2318
  178SOPE   H2S20253   6.236   6.041  10.417 -0.8911  1.1769  1.5379
  178SOPE    C320254   6.120   6.489  10.503 -0.2418  0.7466  0.2281
  178SOPE    HX20255   6.223   6.491  10.546 -0.2258  1.8501  0.1867
  178SOPE    HY20256   6.064   6.578  10.538 -0.1214  1.5756 -1.5737
  178SOPE   O3120257   6.131   6.496  10.362 -0.3500  0.5065 -0.0151
  178SOPE   C3120258   6.027   6.530  10.285 -0.4437 -0.1313  0.3252
  178SOPE   O3220259   5.929   6.591  10.327 -0.0636  0.3018 -0.0022
  178SOPE   C3220260   6.040   6.466  10.151  0.6572  0.2607 -0.2414
  178SOPE   H2X20261   6.011   6.359  10.163 -1.7564  0.8446 -0.5003
  178SOPE   H2Y20262   6.149   6.472  10.129  0.7147 -0.1737 -0.0820
  178SOPE   C2320263   6.182   6.061  10.210 -0.5672  0.9168 -0.4078
  178SOPE   H3R20264   6.284   6.018  10.201 -0.6920  0.5943 -0.2956
  178SOPE   H3S20265   6.205   6.167  10.186  1.7010  0.3722 -0.9250
  178SOPE   C2420266   6.092   5.999  10.103 -0.3327  0.0901  0.4538
  178SOPE   H4R20267   6.091   5.889  10.118 -0.9090  0.1138  0.5791
  178SOPE   H4S20268   5.986   6.024  10.120  0.2678  3.0949  0.3774
  178SOPE   C2520269   6.129   6.017   9.957 -0.1958 -0.0855  0.2780
  178SOPE   H5R20270   6.121   6.123   9.922  2.8793  0.1837  0.1673
  178SOPE   H5S20271   6.233   5.984   9.938 -0.1012  1.1660 -1.7272
  178SOPE   C2620272   6.036   5.936   9.864  0.2135  0.5064  0.2910
  178SOPE   H6R20273   6.065   5.832   9.889 -2.0754 -0.3755 -0.5609
  178SOPE   H6S20274   5.927   5.939   9.883 -0.6733 -3.1192 -3.1607
  178SOPE   C2720275   6.056   5.966   9.715  0.6835  0.3805  0.2604
  178SOPE   H7R20276   6.126   6.050   9.700 -1.5521  1.8172 -3.3458
  178SOPE   H7S20277   6.101   5.882   9.658  3.4488  1.5585  0.5634
  178SOPE   C2820278   5.925   6.003   9.638  0.3660 -0.6091 -0.4372
  178SOPE   H8R20279   5.854   5.921   9.616 -0.0067  0.3159 -3.1576
  178SOPE   H8S20280   5.854   6.053   9.708 -0.3430 -1.2262 -0.6993
  178SOPE   C2920281   5.947   6.090   9.517 -0.0450  0.6153  0.0976
  178SOPE   H9120282   5.934   6.198   9.534  3.1175  0.9474  1.0168
  178SOPE  C21020283   5.986   6.050   9.396 -1.1273  0.3208  0.0602
  178SOPE  H10120284   5.993   6.123   9.314  1.0365 -0.3444 -0.4084
  178SOPE  C21120285   6.010   5.907   9.353 -0.8173  0.1654  0.8571
  178SOPE  H11R20286   6.032   5.839   9.438 -1.8146 -0.4720  0.6311
  178SOPE  H11S20287   6.098   5.897   9.285 -0.7052  1.8135  0.7256
  178SOPE  C21220288   5.895   5.849   9.279  0.2068  0.7867  0.5306
  178SOPE  H12R20289   5.804   5.868   9.340 -0.3271  2.4039 -0.6848
  178SOPE  H12S20290   5.908   5.740   9.257  1.7950  0.9211  0.6936
  178SOPE  C21320291   5.889   5.918   9.141  0.7319 -0.3161  1.0791
  178SOPE  H13R20292   5.985   5.904   9.086 -0.0721 -0.6448 -0.2761
  178SOPE  H13S20293   5.872   6.027   9.154  0.5745 -0.1110 -0.6086
  178SOPE  C21420294   5.759   5.882   9.061  0.1176  0.8567  0.4472
  178SOPE  H14R20295   5.674   5.914   9.125 -1.5239  2.0965 -2.2014
  178SOPE  H14S20296   5.762   5.774   9.035  1.2043  1.0726 -0.4251
  178SOPE  C21520297   5.743   5.960   8.935 -0.9925 -0.3135  0.9378
  178SOPE  H15R20298   5.838   5.951   8.877 -0.5012  0.7121  1.5480
  178SOPE  H15S20299   5.751   6.067   8.963  0.5035 -0.6421  1.8786
  178SOPE  C21620300   5.611   5.931   8.862  0.3378  0.4220 -0.2609
  178SOPE  H16R20301   5.517   5.935   8.920  1.6880 -0.0173  2.0600
  178SOPE  H16S20302   5.618   5.826   8.826  4.0626  0.1618  0.7593
  178SOPE  C21720303   5.581   6.034   8.753  0.8218  0.3626  0.6282
  178SOPE  H17R20304   5.677   6.044   8.699  1.3193  1.4186  1.6521
  178SOPE  H17S20305   5.576   6.133   8.803 -3.0312  0.7271 -0.2199
  178SOPE  C21820306   5.458   6.011   8.667 -0.8611 -0.1592  0.1842
  178SOPE  H18R20307   5.368   6.012   8.731 -2.0006 -3.2653 -1.2032
  178SOPE  H18S20308   5.458   5.921   8.602 -1.7142 -0.7892  1.0383
  178SOPE  H18T20309   5.439   6.095   8.597 -2.0304 -1.5670 -1.2412
  178SOPE   C3320310   5.959   6.538  10.040 -0.3018  0.7338  0.1403
  178SOPE   H3X20311   5.978   6.648  10.042 -0.2033  0.7067  1.2418
  178SOPE   H3Y20312   5.856   6.511  10.072  0.6700  0.0181  2.9438
  178SOPE   C3420313   6.000   6.481   9.902 -0.2737  0.1571 -0.0846
  178SOPE   H4X20314   5.978   6.373   9.890 -2.4764  0.6874 -1.3922
  178SOPE   H4Y20315   6.104   6.514   9.882 -0.8295  2.5676  0.6567
  178SOPE   C3520316   5.917   6.558   9.787 -0.7733 -0.3319 -0.2198
  178SOPE   H5X20317   5.925   6.668   9.781 -1.7208 -0.3185 -1.8055
  178SOPE   H5Y20318   5.810   6.536   9.807 -0.8215 -1.0920 -1.2492
  178SOPE   C3620319   5.974   6.498   9.661 -0.0881  0.9054  0.1039
  178SOPE   H6X20320   5.967   6.387   9.666 -0.9484  0.8307 -1.7716
  178SOPE   H6Y20321   6.080   6.527   9.647  0.0245  0.6400  0.4130
  178SOPE   C3720322   5.894   6.540   9.536  0.2443 -0.1614 -0.3903
  178SOPE   H7X20323   5.896   6.651   9.549 -2.8482  0.0474 -0.9231
  178SOPE   H7Y20324   5.791   6.501   9.549  0.0664 -0.8343 -3.1596
  178SOPE   C3820325   5.966   6.486   9.413  0.4348  0.5523  0.1829
  178SOPE   H8X20326   5.965   6.375   9.416  1.6777  0.5272  1.7441
  178SOPE   H8Y20327   6.074   6.514   9.417  1.0286 -1.5824  0.4093
  178SOPE   C3920328   5.909   6.526   9.273 -0.2388 -0.0374 -0.2360
  178SOPE   H9X20329   5.901   6.636   9.271  0.5867  0.0271 -0.3208
  178SOPE   H9Y20330   5.806   6.484   9.266 -0.2940  0.0267  0.1458
  178SOPE  C31020331   6.003   6.479   9.158 -0.7464  0.2259  0.4156
  178SOPE  H10X20332   6.017   6.369   9.163 -0.9275  0.1504 -0.4879
  178SOPE  H10Y20333   6.094   6.540   9.177 -0.0171 -0.2545 -1.2984
  178SOPE  C31120334   5.935   6.521   9.023  0.5920  0.3817 -0.6825
  178SOPE  H11X20335   6.010   6.585   8.973  2.2171  1.1656  2.4800
  178SOPE  H11Y20336   5.842   6.577   9.048 -2.5015 -4.2658 -0.5175
  178SOPE  C31220337   5.897   6.400   8.940 -0.3049 -0.2038  0.3749
  178SOPE  H12X20338   5.843   6.447   8.855 -0.3581  0.6429  0.8664
  178SOPE  H12Y20339   5.837   6.331   9.003 -1.4839  0.3957 -0.0791
  178SOPE  C31320340   6.020   6.322   8.894 -0.8381  0.0407  0.0422
  178SOPE  H13X20341   6.061   6.255   8.972 -1.9024 -0.4729  0.1745
  178SOPE  H13Y20342   6.107   6.389   8.881 -1.0261 -0.1358 -2.6019
  178SOPE  C31420343   5.993   6.254   8.755  0.2848 -0.0020 -0.7571
  178SOPE  H14X20344   5.952   6.338   8.694 -1.5878  0.1335  0.5907
  178SOPE  H14Y20345   5.918   6.173   8.763  0.2281  0.1305  0.1682
  178SOPE  C31520346   6.104   6.202   8.668 -0.0960  0.2818 -0.2610
  178SOPE  H15X20347   6.047   6.167   8.579 -1.8887  2.4123 -0.0182
  178SOPE  H15Y20348   6.149   6.111   8.715 -0.8126 -0.9948 -1.9522
  178SOPE  C31620349   6.219   6.302   8.638  0.3814 -0.4249  0.4039
  178SOPE  H16X20350   6.261   6.346   8.731  0.7623  0.0764 -0.0004
  178SOPE  H16Y20351   6.175   6.390   8.587  0.5397 -1.2219 -1.1730
  178SOPE  C31720352   6.311   6.256   8.527  0.3096 -0.1529  1.1112
  178SOPE  H17X20353   6.340   6.340   8.460 -2.8986 -1.0956 -1.7573
  178SOPE  H17Y20354   6.234   6.206   8.464  0.1666  0.9124  0.4255
  178SOPE  C31820355   6.420   6.164   8.564  0.3404 -0.4406 -0.3453
  178SOPE  H18X20356   6.476   6.125   8.476  0.2064  0.3686 -0.8033
  178SOPE  H18Y20357   6.383   6.070   8.610  3.4896 -0.8029  1.7778
  178SOPE  H18Z20358   6.494   6.212   8.631 -0.6734  0.1584  0.3821
  179SOPE     N20359   3.920   0.644   6.578  0.1279  0.0875 -0.3236
  179SOPE   HN120360   3.837   0.687   6.533  0.6343 -0.3588 -1.7081
  179SOPE   HN220361   3.994   0.710   6.549 -0.0344 -0.5935 -2.4798
  179SOPE   HN320362   3.962   0.564   6.526 -0.8736  0.5214 -1.8641
  179SOPE   C1220363   3.896   0.633   6.731 -0.5159  0.1682 -0.1845
  179SOPE  H12A20364   3.789   0.617   6.758 -0.1749 -0.8692  0.6168
  179SOPE  H12B20365   3.942   0.727   6.766  0.6061 -0.0437 -1.0762
  179SOPE   C1120366   3.959   0.502   6.788  0.8141 -0.1907 -0.1279
  179SOPE  H11A20367   3.930   0.493   6.895  1.4490  1.8470  0.2557
  179SOPE  H11B20368   4.069   0.512   6.784  0.6127  3.1530 -0.8315
  179SOPE     P20369   3.779   0.319   6.746  0.8005  0.0853  0.2710
  179SOPE   O1320370   3.765   0.200   6.663 -0.1421  0.6776 -0.9958
  179SOPE   O1420371   3.663   0.410   6.752  0.6117  1.3015 -0.0878
  179SOPE   O1220372   3.909   0.393   6.715  0.0274  0.0576  0.5964
  179SOPE   O1120373   3.815   0.272   6.890 -0.6896 -0.6899  0.5306
  179SOPE    C120374   3.926   0.179   6.905  0.2874 -0.5173  0.3394
  179SOPE    HA20375   4.019   0.232   6.936  0.9576 -1.2176 -0.3993
  179SOPE    HB20376   3.949   0.128   6.808  0.6015  0.4293 -0.0981
  179SOPE    C220377   3.886   0.071   7.000 -0.2367  0.1096 -1.1014
  179SOPE    HS20378   3.812   0.009   6.945  0.8041 -0.4788 -1.8764
  179SOPE   O2120379   3.835   0.140   7.123 -0.7428  0.2947  0.0419
  179SOPE   C2120380   3.713   0.114   7.157 -0.0805 -0.2453 -0.7002
  179SOPE   O2220381   3.632   0.054   7.090 -0.1144  0.4479  0.1506
  179SOPE   C2220382   3.679   0.197   7.287 -0.0236 -0.3322  0.3293
  179SOPE   H2R20383   3.668   0.299   7.245  0.5425  0.0661  1.1371
  179SOPE   H2S20384   3.773   0.200   7.345 -1.0618  0.4156  2.0564
  179SOPE    C320385   4.010  -0.025   7.039  0.2892 -0.7900 -0.1129
  179SOPE    HX20386   4.092   0.043   7.072 -1.1543  1.8424 -1.6312
  179SOPE    HY20387   4.043  -0.086   6.953  1.0337  2.1243 -2.0619
  179SOPE   O3120388   3.985  -0.108   7.153  0.5699  0.4391  0.5920
  179SOPE   C3120389   3.914  -0.221   7.137 -0.0100  1.0716  0.6203
  179SOPE   O3220390   3.881  -0.272   7.033  0.7844  0.3606 -0.5181
  179SOPE   C3220391   3.887  -0.274   7.276  0.0565 -0.1251 -0.2469
  179SOPE   H2X20392   3.829  -0.193   7.326  0.7115 -1.3513  2.7207
  179SOPE   H2Y20393   3.980  -0.263   7.336  0.6480 -1.3448 -0.8894
  179SOPE   C2320394   3.552   0.155   7.360  0.7811 -0.2175  0.3535
  179SOPE   H3R20395   3.525   0.049   7.339 -1.6962  0.5341 -0.6297
  179SOPE   H3S20396   3.473   0.218   7.316  2.3572  1.4901 -0.1345
  179SOPE   C2420397   3.553   0.172   7.519 -0.2063  0.9695  0.0984
  179SOPE   H4R20398   3.577   0.278   7.543 -1.3955  1.1900  0.4064
  179SOPE   H4S20399   3.446   0.161   7.547 -0.5922  1.1520 -1.2354
  179SOPE   C2520400   3.650   0.087   7.602  0.2291  0.0522 -1.2586
  179SOPE   H5R20401   3.621  -0.020   7.597 -1.8829  0.6005 -1.8927
  179SOPE   H5S20402   3.754   0.099   7.566  0.4100  0.1197 -0.7206
  179SOPE   C2620403   3.642   0.128   7.749 -0.2888 -0.2951 -0.3014
  179SOPE   H6R20404   3.670   0.235   7.766  0.5873 -0.4417 -0.7283
  179SOPE   H6S20405   3.536   0.120   7.780  0.1628 -0.7764  1.1712
  179SOPE   C2720406   3.708   0.034   7.840  0.1126  0.4623 -0.1686
  179SOPE   H7R20407   3.667  -0.069   7.833 -2.9162  1.5186  0.7893
  179SOPE   H7S20408   3.816   0.024   7.813 -0.5757 -0.1411 -3.0440
  179SOPE   C2820409   3.712   0.074   7.989  0.3727  1.1891 -0.0852
  179SOPE   H8R20410   3.781   0.003   8.040 -2.4362 -0.7560  1.2979
  179SOPE   H8S20411   3.763   0.172   7.991 -0.3582  1.6314 -1.4988
  179SOPE   C2920412   3.589   0.089   8.066  0.1134 -0.5314  0.1613
  179SOPE   H9120413   3.546   0.189   8.053  1.5522  0.5386  2.9677
  179SOPE  C21020414   3.542   0.015   8.166 -0.0601 -0.6487 -0.0386
  179SOPE  H10120415   3.454   0.047   8.224 -0.6647 -1.9550 -0.2083
  179SOPE  C21120416   3.614  -0.115   8.208  0.5479  0.1425  0.0111
  179SOPE  H11R20417   3.703  -0.145   8.149  0.4233 -1.3896  0.5638
  179SOPE  H11S20418   3.547  -0.203   8.196 -0.1255  0.8858 -2.0786
  179SOPE  C21220419   3.639  -0.105   8.363 -0.0064 -0.1989 -0.0695
  179SOPE  H12R20420   3.539  -0.088   8.409 -0.3231  0.4848 -0.9851
  179SOPE  H12S20421   3.694  -0.013   8.391 -0.8247  0.4827 -0.6699
  179SOPE  C21320422   3.730  -0.222   8.414  0.2886 -0.8845  0.0718
  179SOPE  H13R20423   3.777  -0.197   8.511  0.3505 -1.9681  0.3254
  179SOPE  H13S20424   3.808  -0.225   8.334  1.5526  2.4234  0.9824
  179SOPE  C21420425   3.641  -0.343   8.426  0.3619  0.1266 -0.5074
  179SOPE  H14R20426   3.598  -0.354   8.324  1.0980  0.3401 -0.8431
  179SOPE  H14S20427   3.560  -0.330   8.501  1.8335 -1.4419  1.4594
  179SOPE  C21520428   3.712  -0.479   8.464  0.3855 -0.1109 -0.4060
  179SOPE  H15R20429   3.802  -0.500   8.403  2.4498  0.3742  2.2906
  179SOPE  H15S20430   3.644  -0.566   8.450 -0.0928  0.1642  0.1724
  179SOPE  C21620431   3.765  -0.473   8.608  0.4218  0.0201  0.7694
  179SOPE  H16R20432   3.685  -0.449   8.681  0.9719 -1.3043  1.8610
  179SOPE  H16S20433   3.844  -0.396   8.617  0.1507  0.3353  0.4715
  179SOPE  C21720434   3.814  -0.616   8.648  0.9156  0.0766 -0.1711
  179SOPE  H17R20435   3.870  -0.658   8.562 -0.0066  0.5012 -1.0029
  179SOPE  H17S20436   3.721  -0.675   8.665  0.5643  0.9332  1.0421
  179SOPE  C21820437   3.898  -0.609   8.776  0.7652  0.4290  0.1428
  179SOPE  H18R20438   3.938  -0.711   8.794 -2.5881 -0.9534  0.5559
  179SOPE  H18S20439   3.827  -0.588   8.858  0.1003  1.9267 -0.7703
  179SOPE  H18T20440   3.979  -0.533   8.781 -0.7285  2.0052  2.9222
  179SOPE   C3320441   3.826  -0.413   7.302  0.0246 -0.2881 -0.5997
  179SOPE   H3X20442   3.897  -0.492   7.269  1.2510  0.8354 -0.7345
  179SOPE   H3Y20443   3.729  -0.420   7.248  0.1110 -1.8469 -0.6008
  179SOPE   C3420444   3.781  -0.434   7.449  0.2715 -0.6208  0.0523
  179SOPE   H4X20445   3.858  -0.432   7.529  0.5487  1.5510 -0.2175
  179SOPE   H4Y20446   3.736  -0.534   7.468 -1.8155  0.1499 -0.4616
  179SOPE   C3520447   3.669  -0.342   7.491  0.2488  0.5084 -0.3725
  179SOPE   H5X20448   3.572  -0.369   7.443 -0.5898  0.0613  1.5071
  179SOPE   H5Y20449   3.689  -0.236   7.467  1.9849  0.0961 -0.8877
  179SOPE   C3620450   3.648  -0.336   7.644 -0.0069  0.3713  0.2789
  179SOPE   H6X20451   3.551  -0.290   7.673 -0.8623 -0.3605 -1.3056
  179SOPE   H6Y20452   3.737  -0.281   7.679  0.9942 -0.3437 -1.0547
  179SOPE   C3720453   3.628  -0.472   7.716 -0.0607 -0.2556 -0.1237
  179SOPE   H7X20454   3.722  -0.530   7.709 -1.2879 -2.8193  2.3783
  179SOPE   H7Y20455   3.561  -0.539   7.658  0.0286 -1.0074  0.6241
  179SOPE   C3820456   3.577  -0.455   7.868 -0.8740 -0.1999  0.4073
  179SOPE   H8X20457   3.485  -0.514   7.888 -1.1187 -0.3477 -1.0792
  179SOPE   H8Y20458   3.542  -0.351   7.880  0.0974  0.1385  0.4143
  179SOPE   C3920459   3.678  -0.483   7.983 -0.1721 -0.7471  0.3659
  179SOPE   H9X20460   3.720  -0.585   7.978 -0.2371 -0.6961 -1.9563
  179SOPE   H9Y20461   3.626  -0.463   8.080 -0.8459  0.1703 -0.1624
  179SOPE  C31020462   3.794  -0.391   7.963  0.3431 -0.2332 -0.3743
  179SOPE  H10X20463   3.769  -0.283   7.961 -0.2231 -0.3507  0.2158
  179SOPE  H10Y20464   3.859  -0.410   7.875 -0.2893  2.3727 -1.4928
  179SOPE  C31120465   3.892  -0.400   8.090  0.6074  0.2143 -0.4403
  179SOPE  H11X20466   3.940  -0.498   8.109  1.5371  0.9395  1.1461
  179SOPE  H11Y20467   3.828  -0.381   8.179  0.2778  0.9621 -0.8300
  179SOPE  C31220468   4.004  -0.302   8.102 -0.9185 -0.8202 -0.7480
  179SOPE  H12X20469   4.039  -0.305   8.207 -0.7495  1.3694 -0.7049
  179SOPE  H12Y20470   3.962  -0.199   8.097 -1.7786 -0.9470  2.1797
  179SOPE  C31320471   4.131  -0.304   8.014 -0.7548  0.6640 -0.2380
  179SOPE  H13X20472   4.186  -0.398   8.034 -1.3749  0.3068 -0.1854
  179SOPE  H13Y20473   4.199  -0.222   8.044 -0.8443  0.0843  1.6422
  179SOPE  C31420474   4.109  -0.301   7.857 -0.0479  0.2092 -0.4623
  179SOPE  H14X20475   4.028  -0.228   7.837  1.1643  1.3781 -1.3564
  179SOPE  H14Y20476   4.059  -0.395   7.828 -0.7253  0.1874  0.7283
  179SOPE  C31520477   4.232  -0.253   7.770 -0.2704  0.1865 -0.0648
  179SOPE  H15X20478   4.205  -0.276   7.665 -0.0213 -0.2598 -0.0344
  179SOPE  H15Y20479   4.314  -0.320   7.802 -0.2441  0.6898  0.9628
  179SOPE  C31620480   4.255  -0.106   7.790 -0.2583  0.2959  0.2159
  179SOPE  H16X20481   4.168  -0.055   7.835  0.7701  1.6929  0.6971
  179SOPE  H16Y20482   4.262  -0.055   7.691 -0.1432 -1.0927 -0.5234
  179SOPE  C31720483   4.378  -0.062   7.867 -0.3924  0.5530 -0.5310
  179SOPE  H17X20484   4.375  -0.105   7.969  2.3935 -1.1325 -1.0386
  179SOPE  H17Y20485   4.374   0.048   7.883  0.6039  1.0832 -3.3461
  179SOPE  C31820486   4.511  -0.107   7.788 -0.3747 -0.1424 -0.3077
  179SOPE  H18X20487   4.503  -0.217   7.776  0.2636 -0.5606  2.3653
  179SOPE  H18Y20488   4.598  -0.078   7.851  1.0979  2.7100 -3.3632
  179SOPE  H18Z20489   4.526  -0.064   7.687 -2.2909  1.1834 -0.0800
  180SOPE     N20490   2.803   6.751   6.780  0.5518  0.0487  0.1680
  180SOPE   HN120491   2.765   6.818   6.851 -2.5118 -0.3239 -0.9728
  180SOPE   HN220492   2.898   6.720   6.811 -0.3537 -2.0041  1.0864
  180SOPE   HN320493   2.820   6.810   6.696 -0.4212 -0.1031 -0.1399
  180SOPE   C1220494   2.712   6.635   6.742 -0.4711  0.0019 -0.9073
  180SOPE  H12A20495   2.617   6.667   6.694 -1.3904 -2.5965 -0.9474
  180SOPE  H12B20496   2.695   6.596   6.845 -2.1162  1.6528 -0.4927
  180SOPE   C1120497   2.788   6.530   6.665 -0.4757  0.1564 -0.5305
  180SOPE  H11A20498   2.723   6.440   6.669  2.4254 -2.1107 -1.4453
  180SOPE  H11B20499   2.878   6.509   6.726 -0.5056  1.3072 -0.0587
  180SOPE     P20500   2.874   6.466   6.429 -0.1184 -0.2994  0.0960
  180SOPE   O1320501   2.912   6.535   6.303 -0.2060  0.5906  0.1781
  180SOPE   O1420502   2.783   6.351   6.425  0.2526 -0.1257  0.1576
  180SOPE   O1220503   2.811   6.573   6.528  0.2250 -0.2660  0.7358
  180SOPE   O1120504   3.008   6.441   6.509 -0.1952 -0.5746 -0.2685
  180SOPE    C120505   3.102   6.334   6.515 -0.1083  0.3061  0.2553
  180SOPE    HA20506   3.197   6.369   6.560  0.8334 -3.1027  1.1579
  180SOPE    HB20507   3.125   6.288   6.416  0.4663 -0.5787  0.7924
  180SOPE    C220508   3.041   6.221   6.601  0.3107  0.4552  0.2089
  180SOPE    HS20509   2.947   6.181   6.557  1.8784 -2.4620 -0.6893
  180SOPE   O2120510   3.017   6.277   6.734 -0.6554 -0.0487 -0.5623
  180SOPE   C2120511   2.929   6.212   6.810 -0.0851 -0.4590 -1.1921
  180SOPE   O2220512   2.848   6.132   6.774  0.5001 -0.0088 -0.7116
  180SOPE   C2220513   2.943   6.280   6.950 -0.2531  0.1810 -0.4844
  180SOPE   H2R20514   2.927   6.390   6.942 -2.1117  0.0764  1.0292
  180SOPE   H2S20515   3.049   6.276   6.980 -0.4263  1.1623  0.3229
  180SOPE    C320516   3.125   6.093   6.611  0.1009  0.1235 -0.4248
  180SOPE    HX20517   3.224   6.129   6.645  0.2067  0.0105 -0.6158
  180SOPE    HY20518   3.134   6.053   6.508 -3.2759 -1.4550 -0.2389
  180SOPE   O3120519   3.064   5.992   6.695 -0.2464  0.4762  0.4038
  180SOPE   C3120520   3.131   5.875   6.703 -0.0164  0.6153  0.5355
  180SOPE   O3220521   3.230   5.846   6.638  0.0032 -0.1369  0.0962
  180SOPE   C3220522   3.053   5.788   6.801 -0.0827 -0.3488  0.2557
  180SOPE   H2X20523   2.949   5.768   6.768  0.3620  1.6347 -2.7446
  180SOPE   H2Y20524   3.046   5.836   6.901  2.4369 -1.5023  1.0985
  180SOPE   C2320525   2.850   6.223   7.058  0.8658 -0.6109 -0.2104
  180SOPE   H3R20526   2.762   6.167   7.018  1.4838 -1.3639 -0.5425
  180SOPE   H3S20527   2.805   6.304   7.119 -0.7956 -1.2766 -0.4915
  180SOPE   C2420528   2.930   6.137   7.153  0.3653  0.4250 -0.4094
  180SOPE   H4R20529   2.953   6.034   7.116 -1.9812  0.4541 -2.1813
  180SOPE   H4S20530   3.021   6.189   7.189 -0.4988  1.5981  0.1529
  180SOPE   C2520531   2.851   6.117   7.287  0.1201 -0.2492 -0.1451
  180SOPE   H5R20532   2.793   6.211   7.290  0.2196 -0.1635 -0.7915
  180SOPE   H5S20533   2.785   6.028   7.273  1.2186 -1.1079 -0.0073
  180SOPE   C2620534   2.926   6.091   7.422 -0.1174 -0.6055 -0.1332
  180SOPE   H6R20535   2.849   6.095   7.501  2.2652  0.1086  2.3212
  180SOPE   H6S20536   2.973   5.991   7.420  0.6184 -0.2757  0.2057
  180SOPE   C2720537   3.024   6.205   7.460 -0.4411 -0.4292 -0.8577
  180SOPE   H7R20538   3.088   6.229   7.373 -2.3571 -0.4597 -2.3500
  180SOPE   H7S20539   2.969   6.301   7.465  0.2852  0.1114 -2.6261
  180SOPE   C2820540   3.110   6.180   7.587  0.1090 -0.4529 -0.6340
  180SOPE   H8R20541   3.169   6.087   7.568  1.9424  0.6794 -0.7016
  180SOPE   H8S20542   3.180   6.260   7.616 -1.7798  0.7596  0.8295
  180SOPE   C2920543   3.012   6.166   7.704  0.8448  1.0171 -0.6374
  180SOPE   H9120544   2.972   6.264   7.736  0.5799  1.2885 -1.7525
  180SOPE  C21020545   2.988   6.056   7.782 -0.0236 -0.2691 -0.1560
  180SOPE  H10120546   2.914   6.054   7.864  1.3266 -0.3772  1.0943
  180SOPE  C21120547   3.040   5.916   7.772 -0.4593 -0.1291  0.2020
  180SOPE  H11R20548   3.135   5.908   7.716 -0.5225 -1.0160  0.2028
  180SOPE  H11S20549   2.973   5.846   7.717  0.7256 -0.3027 -1.0752
  180SOPE  C21220550   3.084   5.873   7.911 -0.1898 -0.3645 -0.3993
  180SOPE  H12R20551   3.160   5.793   7.892 -0.1211 -0.0328 -1.6395
  180SOPE  H12S20552   2.996   5.826   7.959  0.9024 -0.0119  2.1011
  180SOPE  C21320553   3.158   5.980   7.997 -0.0051  0.3129  0.2811
  180SOPE  H13R20554   3.083   6.052   8.036  0.4239  1.2661 -0.5894
  180SOPE  H13S20555   3.229   6.036   7.932 -0.2744  0.9495  0.5309
  180SOPE  C21420556   3.219   5.916   8.123  0.2487 -0.2878 -0.1948
  180SOPE  H14R20557   3.307   5.858   8.089  0.0957 -0.9585  0.5210
  180SOPE  H14S20558   3.146   5.844   8.166  1.3460 -0.1862  1.9504
  180SOPE  C21520559   3.274   6.036   8.208  0.4605 -0.7584  0.3427
  180SOPE  H15R20560   3.184   6.095   8.234  0.4349 -1.4047  1.7858
  180SOPE  H15S20561   3.336   6.104   8.146 -1.5853 -0.8075 -1.9651
  180SOPE  C21620562   3.341   5.989   8.341  0.4549  0.0882 -0.0352
  180SOPE  H16R20563   3.436   5.934   8.322  1.1496  1.8118 -1.8028
  180SOPE  H16S20564   3.267   5.918   8.384  0.4411 -0.3447 -0.7515
  180SOPE  C21720565   3.372   6.105   8.431 -0.0950 -0.1650  0.6830
  180SOPE  H17R20566   3.273   6.153   8.444 -1.6125 -2.6085 -1.0117
  180SOPE  H17S20567   3.439   6.173   8.374 -2.1834 -0.5922 -2.4872
  180SOPE  C21820568   3.440   6.064   8.565  0.1888  0.0071 -0.9479
  180SOPE  H18R20569   3.443   6.144   8.642  3.3138  0.1176 -1.0405
  180SOPE  H18S20570   3.544   6.029   8.546 -0.4412 -2.5454 -0.1033
  180SOPE  H18T20571   3.390   5.974   8.606  0.1545  0.4094 -0.0914
  180SOPE   C3320572   3.107   5.648   6.835  0.2101  0.0383 -0.0443
  180SOPE   H3X20573   3.208   5.651   6.881 -0.1254  0.6761  0.6655
  180SOPE   H3Y20574   3.110   5.593   6.738  0.1073  1.6991 -1.0148
  180SOPE   C3420575   3.011   5.572   6.927 -0.6429 -0.4311  0.0651
  180SOPE   H4X20576   2.903   5.582   6.900 -0.3003 -1.5017 -1.8614
  180SOPE   H4Y20577   3.012   5.605   7.033 -0.7909 -2.8327  0.8599
  180SOPE   C3520578   3.036   5.422   6.940 -0.6965  0.2830  0.2541
  180SOPE   H5X20579   3.136   5.391   6.977  0.2304 -0.5835 -2.7147
  180SOPE   H5Y20580   3.021   5.383   6.838  1.3903  0.6496 -0.2425
  180SOPE   C3620581   2.933   5.360   7.032  0.5725  0.3145 -0.4355
  180SOPE   H6X20582   2.880   5.267   7.001  1.0320 -0.4409  0.9546
  180SOPE   H6Y20583   2.850   5.433   7.045 -0.5571 -0.9113 -0.5300
  180SOPE   C3720584   2.970   5.320   7.173 -0.1000 -0.3166  0.0751
  180SOPE   H7X20585   3.021   5.404   7.224 -1.3245  0.7613 -0.4377
  180SOPE   H7Y20586   3.043   5.237   7.160  2.1494  1.5240  0.3064
  180SOPE   C3820587   2.855   5.269   7.258 -0.4007  0.7509  0.1145
  180SOPE   H8X20588   2.829   5.170   7.215 -1.0628  0.4139  1.2309
  180SOPE   H8Y20589   2.776   5.343   7.284 -1.5847 -0.8847  1.4588
  180SOPE   C3920590   2.916   5.226   7.392  0.3199  0.7020  0.2319
  180SOPE   H9X20591   2.958   5.313   7.446  0.7997 -0.9426  2.7072
  180SOPE   H9Y20592   2.997   5.154   7.368 -0.7843 -0.3952 -0.3187
  180SOPE  C31020593   2.815   5.159   7.487  0.8756  0.4111  0.5969
  180SOPE  H10X20594   2.780   5.059   7.452 -0.0419  0.7657  0.4765
  180SOPE  H10Y20595   2.730   5.230   7.485  1.4816  1.1359 -0.7907
  180SOPE  C31120596   2.871   5.135   7.631 -0.0923  0.0517 -0.0605
  180SOPE  H11X20597   2.927   5.223   7.668  2.1142 -1.4746  0.4007
  180SOPE  H11Y20598   2.949   5.056   7.623 -0.1886  0.1773 -3.7253
  180SOPE  C31220599   2.767   5.087   7.736  0.5208 -0.1392 -0.0191
  180SOPE  H12X20600   2.725   4.987   7.712  0.3702 -0.6366  2.1523
  180SOPE  H12Y20601   2.681   5.156   7.741 -1.1052 -2.1580  1.1955
  180SOPE  C31320602   2.822   5.080   7.887 -0.0512 -0.4941 -0.3540
  180SOPE  H13X20603   2.862   5.183   7.900  0.3832 -0.1697 -3.4560
  180SOPE  H13Y20604   2.910   5.015   7.904 -0.8391 -1.0960  1.7983
  180SOPE  C31420605   2.732   5.042   7.999  0.8085 -0.4063 -0.0659
  180SOPE  H14X20606   2.704   4.936   7.982 -2.6860  0.6025 -1.4409
  180SOPE  H14Y20607   2.643   5.108   7.995  0.5118 -0.7952  0.1862
  180SOPE  C31520608   2.798   5.055   8.140 -0.0959  0.8856 -0.7257
  180SOPE  H15X20609   2.797   5.161   8.172 -0.0551 -0.1210  3.0357
  180SOPE  H15Y20610   2.904   5.028   8.123  0.2647  1.8512 -0.1073
  180SOPE  C31620611   2.723   4.976   8.243 -1.0347  0.1857  0.3383
  180SOPE  H16X20612   2.756   4.872   8.261  0.3431  0.3571 -0.9811
  180SOPE  H16Y20613   2.617   4.971   8.210 -1.3492  1.2527  1.1142
  180SOPE  C31720614   2.730   5.034   8.386  0.0297  0.9921 -0.1871
  180SOPE  H17X20615   2.701   5.141   8.390  2.4361  1.6742  3.2253
  180SOPE  H17Y20616   2.834   5.013   8.418  0.7160 -1.9595 -3.6425
  180SOPE  C31820617   2.641   4.951   8.481 -0.3602  0.1659 -0.3490
  180SOPE  H18X20618   2.535   4.952   8.450 -0.5818 -0.7219  0.3438
  180SOPE  H18Y20619   2.658   4.980   8.587 -0.4989 -1.5512  0.1809
  180SOPE  H18Z20620   2.670   4.846   8.459 -0.0164 -0.0192  0.8794
  181SOPE     N20621   2.160   3.219   6.051 -0.0760 -0.5408  0.1627
  181SOPE   HN120622   2.197   3.142   5.993 -0.6522 -0.2417 -0.6227
  181SOPE   HN220623   2.227   3.275   6.108 -0.5081 -0.6603  0.8003
  181SOPE   HN320624   2.113   3.167   6.128  0.2531 -0.6185  0.3127
  181SOPE   C1220625   2.061   3.305   5.980  0.1094 -0.1545 -0.2803
  181SOPE  H12A20626   1.985   3.234   5.942 -0.8190 -0.3818  1.8761
  181SOPE  H12B20627   2.106   3.357   5.892  1.8011 -2.2311 -0.7151
  181SOPE   C1120628   1.992   3.402   6.078  0.1992 -0.0550  0.0629
  181SOPE  H11A20629   1.944   3.337   6.155  0.6777 -0.2877  0.1685
  181SOPE  H11B20630   1.912   3.451   6.017  0.6448 -1.5466 -1.8269
  181SOPE     P20631   2.116   3.642   6.084 -0.1097  0.0955 -0.1641
  181SOPE   O1320632   2.029   3.669   5.966  0.0132 -0.6330  0.1243
  181SOPE   O1420633   2.261   3.671   6.086  0.1026 -0.1393  0.2804
  181SOPE   O1220634   2.091   3.490   6.137  0.4241  0.5601 -0.0541
  181SOPE   O1120635   2.060   3.741   6.193 -0.2695 -0.4876 -0.8721
  181SOPE    C120636   1.924   3.736   6.244 -0.1366  0.5313 -0.0733
  181SOPE    HA20637   1.902   3.629   6.267  0.3934  0.2369 -0.8789
  181SOPE    HB20638   1.855   3.781   6.170 -0.3636 -2.5765 -1.9069
  181SOPE    C220639   1.908   3.821   6.377 -1.4175 -0.4078  0.1634
  181SOPE    HS20640   1.910   3.928   6.347 -0.1384 -0.2009  0.9024
  181SOPE   O2120641   2.005   3.782   6.475  0.0370 -0.2195 -0.8554
  181SOPE   C2120642   2.123   3.840   6.466  0.4144 -0.2493  0.4340
  181SOPE   O2220643   2.148   3.945   6.406 -0.1570  0.3850  0.3058
  181SOPE   C2220644   2.238   3.756   6.528 -0.5067 -0.0950 -0.1735
  181SOPE   H2R20645   2.243   3.655   6.482 -0.3981  0.5420 -1.6073
  181SOPE   H2S20646   2.219   3.739   6.636 -1.1569  0.4814 -0.1917
  181SOPE    C320647   1.771   3.788   6.438  0.0269 -0.6914  0.5550
  181SOPE    HX20648   1.751   3.679   6.435  2.5279 -1.1974 -1.9215
  181SOPE    HY20649   1.694   3.823   6.367 -2.3846 -1.8692  2.4501
  181SOPE   O3120650   1.747   3.850   6.568 -0.6858 -0.2663  0.2361
  181SOPE   C3120651   1.775   3.761   6.664  0.0297 -0.3883 -0.3978
  181SOPE   O3220652   1.782   3.638   6.652  0.6165  0.5610 -0.2279
  181SOPE   C3220653   1.806   3.844   6.793 -1.0307 -1.1703  0.1410
  181SOPE   H2X20654   1.729   3.924   6.793 -1.5621 -1.6848  0.2165
  181SOPE   H2Y20655   1.906   3.886   6.764 -2.1596  1.0105 -0.8929
  181SOPE   C2320656   2.379   3.811   6.509 -0.3711 -0.3189 -0.2986
  181SOPE   H3R20657   2.388   3.904   6.569  1.5743  0.3504 -1.5471
  181SOPE   H3S20658   2.411   3.829   6.404  1.9054  0.6676  0.5120
  181SOPE   C2420659   2.483   3.708   6.566  0.0116  0.1795  0.3539
  181SOPE   H4R20660   2.444   3.687   6.668 -1.9611  2.0740  0.0576
  181SOPE   H4S20661   2.482   3.611   6.511 -2.6059 -0.8045  1.9214
  181SOPE   C2520662   2.631   3.748   6.573  0.1202  0.6290 -0.1599
  181SOPE   H5R20663   2.682   3.654   6.605 -1.8738 -0.6743 -0.5912
  181SOPE   H5S20664   2.673   3.782   6.476  1.6849  0.2630  0.3706
  181SOPE   C2620665   2.661   3.851   6.681  0.1114 -0.2395 -0.1774
  181SOPE   H6R20666   2.584   3.931   6.685 -0.0410 -0.3595 -0.6217
  181SOPE   H6S20667   2.643   3.794   6.775 -1.2463 -1.2398 -0.9931
  181SOPE   C2720668   2.800   3.911   6.684  0.0176 -0.9598 -0.4088
  181SOPE   H7R20669   2.878   3.837   6.656  0.0223 -0.5762 -1.4557
  181SOPE   H7S20670   2.791   3.987   6.604  0.3330  0.1778  0.6187
  181SOPE   C2820671   2.820   3.982   6.816 -1.4672  0.3796 -0.3226
  181SOPE   H8R20672   2.753   4.069   6.830 -1.3453  0.5259 -0.6520
  181SOPE   H8S20673   2.789   3.916   6.900 -0.6230 -0.7523 -0.8639
  181SOPE   C2920674   2.959   4.041   6.836  0.0213 -0.4571 -0.1033
  181SOPE   H9120675   3.005   4.084   6.746 -1.3261  1.9886  0.2918
  181SOPE  C21020676   3.042   4.039   6.944 -0.1598  0.0960 -0.2318
  181SOPE  H10120677   3.138   4.092   6.932 -0.0575  0.0148  0.1853
  181SOPE  C21120678   3.019   3.983   7.079 -0.6768  0.1702 -0.0198
  181SOPE  H11R20679   2.942   3.903   7.071 -0.3334 -0.1527 -0.1059
  181SOPE  H11S20680   2.972   4.059   7.146  1.0424 -1.3384  3.1440
  181SOPE  C21220681   3.139   3.923   7.149 -0.4190  0.2653 -0.3333
  181SOPE  H12R20682   3.188   3.849   7.082 -1.0010 -1.8819  1.4886
  181SOPE  H12S20683   3.098   3.865   7.234  2.1023 -0.3505  0.5399
  181SOPE  C21320684   3.244   4.024   7.206  0.1642  0.6028  0.1351
  181SOPE  H13R20685   3.301   4.078   7.127  2.2388 -1.1790  0.3136
  181SOPE  H13S20686   3.323   3.957   7.247 -0.7925 -0.6081  0.0666
  181SOPE  C21420687   3.205   4.116   7.319 -1.6424 -0.0969  0.0400
  181SOPE  H14R20688   3.097   4.141   7.320 -1.4381  0.8731 -0.3070
  181SOPE  H14S20689   3.270   4.205   7.301 -0.9652 -1.0873 -3.1054
  181SOPE  C21520690   3.218   4.065   7.464 -0.3567 -0.3441  0.2998
  181SOPE  H15R20691   3.321   4.035   7.491  0.7937  1.8084 -1.3803
  181SOPE  H15S20692   3.143   3.984   7.477  1.3555 -1.8331  1.2515
  181SOPE  C21620693   3.174   4.172   7.565  0.1316 -0.5779  0.3539
  181SOPE  H16R20694   3.094   4.241   7.529 -1.0702 -2.3755 -0.6159
  181SOPE  H16S20695   3.257   4.241   7.590 -0.0255  1.5213 -3.9501
  181SOPE  C21720696   3.119   4.102   7.690 -0.6802  0.1373  0.2664
  181SOPE  H17R20697   3.200   4.037   7.728 -0.9906  0.9312  2.4080
  181SOPE  H17S20698   3.032   4.044   7.655  0.0887  0.4056 -2.3311
  181SOPE  C21820699   3.077   4.194   7.813 -0.9276 -0.3210 -0.6825
  181SOPE  H18R20700   3.029   4.139   7.896 -0.5462  0.5499  0.1234
  181SOPE  H18S20701   3.009   4.279   7.791 -1.6796 -1.5399 -3.6858
  181SOPE  H18T20702   3.164   4.245   7.858 -1.3775  0.2673 -0.4726
  181SOPE   C3320703   1.803   3.762   6.929  0.0447  0.1116 -0.5854
  181SOPE   H3X20704   1.862   3.670   6.910  0.0915 -0.1087  0.6024
  181SOPE   H3Y20705   1.699   3.744   6.963  0.1884  0.8531  0.2927
  181SOPE   C3420706   1.874   3.830   7.050 -0.6096 -0.1694  0.6754
  181SOPE   H4X20707   1.828   3.930   7.068 -1.0733 -0.5421  1.6234
  181SOPE   H4Y20708   1.972   3.857   7.005 -1.5342 -0.0678 -1.4233
  181SOPE   C3520709   1.895   3.757   7.182  0.4364  0.0223 -0.8921
  181SOPE   H5X20710   1.975   3.811   7.237  1.3938 -2.8424  0.7497
  181SOPE   H5Y20711   1.944   3.657   7.172  2.0178  0.0251  4.2358
  181SOPE   C3620712   1.761   3.758   7.261  0.8507  1.2450 -0.0735
  181SOPE   H6X20713   1.678   3.713   7.202 -0.1530  1.4703  1.1334
  181SOPE   H6Y20714   1.737   3.866   7.267  3.6329  1.9639 -0.2507
  181SOPE   C3720715   1.764   3.666   7.388 -0.0507  0.1100 -0.1791
  181SOPE   H7X20716   1.861   3.672   7.441  0.9664 -1.0526 -1.8191
  181SOPE   H7Y20717   1.762   3.566   7.340 -0.4087  0.7110 -1.4437
  181SOPE   C3820718   1.650   3.678   7.485  0.9169 -0.8888  0.9169
  181SOPE   H8X20719   1.640   3.582   7.541 -0.1303 -0.8953  0.7511
  181SOPE   H8Y20720   1.549   3.689   7.439  1.7305 -2.0609 -1.3445
  181SOPE   C3920721   1.652   3.785   7.593 -0.3159  0.2796  0.2670
  181SOPE   H9X20722   1.561   3.784   7.658  0.9762 -0.7858  2.1518
  181SOPE   H9Y20723   1.668   3.887   7.554  2.0590 -1.1981 -3.1444
  181SOPE  C31020724   1.775   3.757   7.691  0.0759 -0.2891  0.0647
  181SOPE  H10X20725   1.871   3.751   7.636 -0.1398 -0.6047 -0.2846
  181SOPE  H10Y20726   1.773   3.655   7.734  0.8682 -0.4415 -0.2426
  181SOPE  C31120727   1.786   3.855   7.815 -0.0307 -0.3288  0.3083
  181SOPE  H11X20728   1.788   3.953   7.763  1.0396 -0.3361  0.3131
  181SOPE  H11Y20729   1.887   3.826   7.852  0.2584 -0.1528 -0.3301
  181SOPE  C31220730   1.690   3.845   7.923  0.1131 -0.1653 -0.1731
  181SOPE  H12X20731   1.700   3.746   7.973  0.2760 -0.3592 -0.5867
  181SOPE  H12Y20732   1.585   3.838   7.888  0.6431 -0.3171 -1.8221
  181SOPE  C31320733   1.707   3.957   8.029  0.4395  0.2652 -0.0367
  181SOPE  H13X20734   1.640   3.929   8.113 -0.7374 -2.2287 -1.6849
  181SOPE  H13Y20735   1.669   4.054   7.990  1.5500  1.6198  2.0502
  181SOPE  C31420736   1.854   3.973   8.068 -0.2945 -0.6979 -0.1021
  181SOPE  H14X20737   1.907   4.009   7.977 -2.4068  1.2967 -0.6509
  181SOPE  H14Y20738   1.892   3.873   8.098  2.0092  0.7807  2.4033
  181SOPE  C31520739   1.878   4.050   8.197 -0.0988  0.0559 -0.1682
  181SOPE  H15X20740   1.856   4.158   8.186  1.2011  0.2382 -1.3365
  181SOPE  H15Y20741   1.988   4.045   8.208 -0.3329 -0.7782  2.6167
  181SOPE  C31620742   1.821   3.995   8.326 -0.2926 -0.2889  0.2205
  181SOPE  H16X20743   1.858   3.894   8.353 -1.2868 -0.4450  1.0497
  181SOPE  H16Y20744   1.714   3.967   8.313 -0.1265 -2.1728  2.3512
  181SOPE  C31720745   1.824   4.093   8.445 -0.1246  0.9228  0.4790
  181SOPE  H17X20746   1.781   4.191   8.417 -1.5590  0.1270 -0.2446
  181SOPE  H17Y20747   1.931   4.105   8.474  0.3482 -2.9177  0.9115
  181SOPE  C31820748   1.736   4.043   8.563 -0.2390  0.5958  0.5897
  181SOPE  H18X20749   1.630   4.053   8.533  0.0552  1.9908 -0.1027
  181SOPE  H18Y20750   1.765   4.112   8.645  4.0374 -0.5013  0.2608
  181SOPE  H18Z20751   1.771   3.943   8.596 -1.5056 -0.9388 -2.3401
  182SOPE     N20752   2.454   5.955   6.137 -0.8556  0.1363 -0.3310
  182SOPE   HN120753   2.421   6.040   6.187 -1.0031 -1.1585  1.9229
  182SOPE   HN220754   2.450   5.883   6.212 -0.6001 -1.2198 -1.5861
  182SOPE   HN320755   2.554   5.971   6.113 -0.7420  1.8475  1.0729
  182SOPE   C1220756   2.357   5.915   6.024 -0.0627 -0.4656  0.6147
  182SOPE  H12A20757   2.406   5.833   5.966 -0.7991 -0.0813 -0.5738
  182SOPE  H12B20758   2.340   6.000   5.955 -0.9631 -1.5771 -0.5905
  182SOPE   C1120759   2.224   5.881   6.085 -0.7822  0.1459  0.4174
  182SOPE  H11A20760   2.164   5.827   6.008  0.7933  3.0898 -3.1892
  182SOPE  H11B20761   2.174   5.975   6.117  3.4204  2.1633  1.6285
  182SOPE     P20762   2.217   5.830   6.351 -0.3197  0.3502  0.2270
  182SOPE   O1320763   2.329   5.917   6.393 -0.0672 -0.1220 -0.4520
  182SOPE   O1420764   2.204   5.695   6.413 -0.4538 -0.6268 -0.5367
  182SOPE   O1220765   2.235   5.794   6.196 -0.3989 -0.3035 -0.1895
  182SOPE   O1120766   2.080   5.912   6.348  0.2101  0.6705 -0.0562
  182SOPE    C120767   1.952   5.844   6.353  0.7003  0.4025 -0.0836
  182SOPE    HA20768   1.953   5.747   6.298 -1.2602  0.7838 -0.8837
  182SOPE    HB20769   1.886   5.912   6.295 -1.7230 -1.0760  0.7846
  182SOPE    C220770   1.874   5.846   6.489  0.4520  0.5503  0.1961
  182SOPE    HS20771   1.867   5.953   6.515  0.4027  1.0233 -1.6529
  182SOPE   O2120772   1.930   5.754   6.583 -0.0368 -0.4102  0.1270
  182SOPE   C2120773   2.010   5.815   6.672 -0.0575 -0.5094 -0.3929
  182SOPE   O2220774   2.031   5.939   6.676  0.1873  0.4523  0.5072
  182SOPE   C2220775   2.079   5.704   6.756  0.1815  0.3282  0.1932
  182SOPE   H2R20776   2.121   5.633   6.681  3.0463  2.1789 -0.1052
  182SOPE   H2S20777   1.996   5.662   6.817 -0.0676 -0.2402 -0.5178
  182SOPE    C320778   1.725   5.799   6.471 -0.8293  0.1602  0.9951
  182SOPE    HX20779   1.729   5.690   6.453 -1.0147  0.0624  1.5150
  182SOPE    HY20780   1.674   5.841   6.381  0.7456  1.2107  0.5434
  182SOPE   O3120781   1.641   5.802   6.589 -0.2021  0.0800 -0.2091
  182SOPE   C3120782   1.590   5.917   6.621 -0.4189  0.2075 -0.1751
  182SOPE   O3220783   1.586   6.021   6.560  0.0395  0.1911 -0.2054
  182SOPE   C3220784   1.511   5.902   6.758 -0.4879 -0.4589 -0.4011
  182SOPE   H2X20785   1.462   5.802   6.761  0.4731 -0.9138  0.5819
  182SOPE   H2Y20786   1.442   5.989   6.752  1.8465  1.4423 -1.3931
  182SOPE   C2320787   2.188   5.755   6.852 -0.0678 -0.5292  0.3381
  182SOPE   H3R20788   2.199   5.686   6.939 -0.2469 -0.8364  0.1188
  182SOPE   H3S20789   2.168   5.861   6.879  1.8494  0.4583 -1.7638
  182SOPE   C2420790   2.328   5.770   6.790 -0.7038  0.2322  0.4378
  182SOPE   H4R20791   2.361   5.668   6.762  0.4975  0.5078  0.7876
  182SOPE   H4S20792   2.324   5.823   6.692  0.7204  3.4283  1.9563
  182SOPE   C2520793   2.430   5.833   6.883  0.0355  0.0864 -0.0293
  182SOPE   H5R20794   2.408   5.941   6.897  0.9942  0.1276  1.3669
  182SOPE   H5S20795   2.397   5.779   6.974 -0.9068  0.9789  0.1747
  182SOPE   C2620796   2.569   5.784   6.843 -1.0077 -0.1008 -0.4852
  182SOPE   H6R20797   2.565   5.673   6.832 -2.2444 -0.2010  0.7525
  182SOPE   H6S20798   2.576   5.830   6.742  2.3479 -0.1851 -0.4093
  182SOPE   C2720799   2.675   5.820   6.956  0.7091 -0.0264  0.3219
  182SOPE   H7R20800   2.778   5.801   6.918  0.4524 -1.2348  0.2057
  182SOPE   H7S20801   2.680   5.931   6.961  2.5591  0.0556 -1.6696
  182SOPE   C2820802   2.649   5.748   7.089  1.2879 -0.0059  0.4829
  182SOPE   H8R20803   2.556   5.783   7.137  0.6791 -0.5151 -0.2904
  182SOPE   H8S20804   2.639   5.642   7.058 -2.1627  0.9556 -2.4360
  182SOPE   C2920805   2.759   5.752   7.194  0.0457 -0.1977  0.2685
  182SOPE   H9120806   2.861   5.757   7.152  0.5916 -1.5856  1.3361
  182SOPE  C21020807   2.763   5.739   7.327 -0.4215 -0.4150  0.4588
  182SOPE  H10120808   2.865   5.730   7.367 -0.5627  1.1015  1.2322
  182SOPE  C21120809   2.645   5.714   7.421  0.2941 -0.6938 -0.1543
  182SOPE  H11R20810   2.552   5.694   7.363  0.2804  3.0975 -1.7226
  182SOPE  H11S20811   2.618   5.805   7.479  0.9118  0.5044 -1.6631
  182SOPE  C21220812   2.658   5.596   7.516  0.0209 -0.6064 -0.6065
  182SOPE  H12R20813   2.681   5.500   7.465 -2.0908 -1.7154  0.3827
  182SOPE  H12S20814   2.557   5.577   7.557  0.8922 -1.7386  1.1312
  182SOPE  C21320815   2.747   5.628   7.640  0.2882  0.9435 -0.1423
  182SOPE  H13R20816   2.702   5.720   7.682 -0.0766  0.8345 -0.2954
  182SOPE  H13S20817   2.855   5.645   7.618  1.0654  1.5345  3.4452
  182SOPE  C21420818   2.740   5.522   7.755 -0.6381 -0.0024  0.6253
  182SOPE  H14R20819   2.780   5.433   7.702  0.2063  0.7940 -0.1197
  182SOPE  H14S20820   2.635   5.510   7.789 -0.9439  0.9886  0.0855
  182SOPE  C21520821   2.828   5.571   7.870  0.3881 -0.1057  0.0058
  182SOPE  H15R20822   2.802   5.676   7.893  2.1435  0.1946  0.7686
  182SOPE  H15S20823   2.929   5.594   7.831  0.2420  4.2624  1.6836
  182SOPE  C21620824   2.821   5.481   7.995 -0.7049  0.0439  0.2813
  182SOPE  H16R20825   2.916   5.487   8.052  1.8264  3.3012 -3.7857
  182SOPE  H16S20826   2.784   5.378   7.975 -1.1509 -0.2837  2.4580
  182SOPE  C21720827   2.704   5.531   8.084  0.2233  0.1645  0.6500
  182SOPE  H17R20828   2.615   5.555   8.022  1.7572 -0.0155 -1.7392
  182SOPE  H17S20829   2.734   5.631   8.122  0.6938  0.2465  0.0686
  182SOPE  C21820830   2.674   5.433   8.198  0.7878 -0.5732  0.3963
  182SOPE  H18R20831   2.620   5.348   8.152  0.0094 -0.0228  0.2652
  182SOPE  H18S20832   2.611   5.487   8.271  0.3020  2.4172 -2.0366
  182SOPE  H18T20833   2.760   5.391   8.254  0.0886 -1.4790  0.7960
  182SOPE   C3320834   1.612   5.915   6.875  0.3449 -0.4853 -0.0401
  182SOPE   H3X20835   1.565   5.943   6.972  2.2516  1.0835  0.5070
  182SOPE   H3Y20836   1.678   6.002   6.853 -3.0366  1.8790 -1.8462
  182SOPE   C3420837   1.683   5.787   6.903  0.4681  0.8724  0.2869
  182SOPE   H4X20838   1.736   5.748   6.813  1.0063 -1.9149  1.6869
  182SOPE   H4Y20839   1.609   5.705   6.916  2.0041 -0.5417  0.6032
  182SOPE   C3520840   1.778   5.807   7.021  0.4066 -0.3649 -0.3162
  182SOPE   H5X20841   1.711   5.859   7.093 -1.9824 -0.7970 -2.1182
  182SOPE   H5Y20842   1.855   5.886   7.008 -2.2619  2.3797 -0.5030
  182SOPE   C3620843   1.813   5.675   7.087 -0.4537 -0.7654 -0.4892
  182SOPE   H6X20844   1.874   5.615   7.017  0.2565 -0.4321 -0.1656
  182SOPE   H6Y20845   1.719   5.621   7.112 -2.2568  1.9309 -0.9655
  182SOPE   C3720846   1.883   5.694   7.223 -0.1184 -0.4563 -0.7949
  182SOPE   H7X20847   1.872   5.592   7.264 -2.1342 -0.0221 -0.1400
  182SOPE   H7Y20848   1.821   5.759   7.289  0.0602 -1.2621  0.1968
  182SOPE   C3820849   2.029   5.730   7.223 -0.3403 -0.0460  0.2456
  182SOPE   H8X20850   2.045   5.832   7.182 -3.1637 -0.3213 -1.8466
  182SOPE   H8Y20851   2.076   5.668   7.144 -0.8732  0.4777 -0.4958
  182SOPE   C3920852   2.096   5.715   7.360 -1.2909  0.3226  1.2341
  182SOPE   H9X20853   2.095   5.605   7.379 -1.1595  0.0585 -0.1838
  182SOPE   H9Y20854   2.027   5.756   7.437 -2.0990 -0.4111  0.9216
  182SOPE  C31020855   2.228   5.797   7.373  0.9253  0.9148  0.6676
  182SOPE  H10X20856   2.195   5.902   7.385  1.3030  1.3142 -1.3223
  182SOPE  H10Y20857   2.288   5.793   7.279 -1.4332 -0.2388 -0.9148
  182SOPE  C31120858   2.308   5.744   7.492  0.9202 -0.3286 -0.9265
  182SOPE  H11X20859   2.387   5.822   7.502  1.0376 -0.4374 -1.0089
  182SOPE  H11Y20860   2.354   5.644   7.479  1.4656  0.0079 -1.6150
  182SOPE  C31220861   2.242   5.767   7.634  0.4396 -0.2705  0.3922
  182SOPE  H12X20862   2.141   5.721   7.636  0.5907 -0.5761  1.7278
  182SOPE  H12Y20863   2.224   5.875   7.654 -0.8134 -0.4728  0.4410
  182SOPE  C31320864   2.314   5.706   7.750  0.0627  0.1517 -0.6371
  182SOPE  H13X20865   2.412   5.757   7.757  0.8015 -1.1435 -1.3006
  182SOPE  H13Y20866   2.332   5.597   7.738 -0.4542  0.2448 -2.5892
  182SOPE  C31420867   2.234   5.719   7.877 -0.4916  0.6714  0.1813
  182SOPE  H14X20868   2.131   5.685   7.853 -0.0281  0.5277 -1.7331
  182SOPE  H14Y20869   2.209   5.824   7.904 -1.5441  0.2472  0.9286
  182SOPE  C31520870   2.301   5.652   7.995  0.1037  0.2740  0.2371
  182SOPE  H15X20871   2.400   5.699   8.012  0.2483  1.5605 -3.4303
  182SOPE  H15Y20872   2.302   5.544   7.967 -2.3957  0.4870 -0.8785
  182SOPE  C31620873   2.225   5.670   8.125 -0.8232 -0.0869 -0.6454
  182SOPE  H16X20874   2.123   5.628   8.108 -1.0581  0.7184 -1.3034
  182SOPE  H16Y20875   2.215   5.775   8.157  2.3184  0.0247  0.2351
  182SOPE  C31720876   2.297   5.614   8.251  0.1211 -0.0635 -0.0606
  182SOPE  H17X20877   2.353   5.522   8.224  2.3350  0.8051  1.2561
  182SOPE  H17Y20878   2.210   5.603   8.319 -0.2554 -3.3756 -0.9094
  182SOPE  C31820879   2.400   5.706   8.321 -0.1735 -0.2679  0.3402
  182SOPE  H18X20880   2.480   5.643   8.364 -2.5155 -1.1986  3.8218
  182SOPE  H18Y20881   2.348   5.771   8.395 -0.9228 -0.1733 -0.2541
  182SOPE  H18Z20882   2.436   5.781   8.248 -1.0025 -2.1039 -2.0704
  183SOPE     N20883   6.044   4.554   6.219 -0.0456 -0.5238 -0.0512
  183SOPE   HN120884   6.142   4.523   6.200  0.3844  1.1543 -0.7253
  183SOPE   HN220885   6.051   4.635   6.283  0.3798  1.5871 -2.6127
  183SOPE   HN320886   6.000   4.477   6.274  1.8424 -1.4920  0.1878
  183SOPE   C1220887   5.967   4.606   6.097  0.7819  0.1162  0.3162
  183SOPE  H12A20888   5.986   4.523   6.026  0.9576 -0.9119  1.5302
  183SOPE  H12B20889   5.998   4.709   6.069  3.3286  0.0143  2.4616
  183SOPE   C1120890   5.818   4.596   6.136  0.1746 -0.0103 -0.0537
  183SOPE  H11A20891   5.752   4.631   6.054 -0.2182 -0.1063  0.2188
  183SOPE  H11B20892   5.800   4.675   6.212 -2.2318 -1.3879  0.9129
  183SOPE     P20893   5.747   4.410   6.310 -0.1058 -0.1836 -0.3328
  183SOPE   O1320894   5.747   4.264   6.311 -0.4354  0.3555  0.4919
  183SOPE   O1420895   5.623   4.481   6.351 -0.1352 -0.0664  0.2058
  183SOPE   O1220896   5.786   4.461   6.165  0.2859  0.2366  0.1767
  183SOPE   O1120897   5.870   4.466   6.392  0.1174  0.4820  0.5045
  183SOPE    C120898   5.861   4.542   6.508  0.1130 -0.3762  0.3327
  183SOPE    HA20899   5.786   4.623   6.503  0.1271 -0.4226 -3.3516
  183SOPE    HB20900   5.960   4.591   6.521  0.6567 -0.7778 -1.8381
  183SOPE    C220901   5.834   4.451   6.626  0.1165 -0.0637 -0.4230
  183SOPE    HS20902   5.729   4.415   6.620  0.0119 -0.4621  2.3656
  183SOPE   O2120903   5.861   4.523   6.745  0.9036 -0.2031 -0.1016
  183SOPE   C2120904   5.778   4.624   6.778 -0.1532 -0.0655 -0.8765
  183SOPE   O2220905   5.680   4.662   6.723 -0.1370 -0.6140  0.1800
  183SOPE   C2220906   5.827   4.689   6.907  0.2934  0.5365  0.4337
  183SOPE   H2R20907   5.748   4.748   6.958  2.2368  1.7438  2.2551
  183SOPE   H2S20908   5.911   4.752   6.872  0.9896 -1.8961 -2.6646
  183SOPE    C320909   5.923   4.321   6.621  0.1897 -0.0660 -0.2853
  183SOPE    HX20910   6.023   4.362   6.597 -0.5256  1.1246 -1.3823
  183SOPE    HY20911   5.890   4.260   6.533  0.4162 -1.5316  0.6197
  183SOPE   O3120912   5.923   4.247   6.744  0.3213 -0.6307 -0.0054
  183SOPE   C3120913   5.837   4.149   6.761 -0.2985 -0.9432  0.5925
  183SOPE   O3220914   5.754   4.113   6.679 -0.0886 -0.5923  0.7831
  183SOPE   C3220915   5.875   4.066   6.885  0.0182 -0.4997  0.2270
  183SOPE   H2X20916   5.985   4.050   6.875 -0.2059 -1.2251 -1.5288
  183SOPE   H2Y20917   5.810   3.976   6.877 -0.2079 -0.1941 -2.7826
  183SOPE   C2320918   5.869   4.586   7.011 -0.3729 -0.1497  0.3722
  183SOPE   H3R20919   5.948   4.514   6.978  0.4952  0.1561  1.6760
  183SOPE   H3S20920   5.783   4.524   7.041  1.5200 -1.8061  2.7383
  183SOPE   C2420921   5.926   4.650   7.143 -0.0323  0.2489 -0.2222
  183SOPE   H4R20922   6.037   4.661   7.142  0.2187 -1.7408 -1.7714
  183SOPE   H4S20923   5.885   4.752   7.152 -1.0601 -0.2590  1.3500
  183SOPE   C2520924   5.890   4.573   7.276  0.2623  0.7210  0.3943
  183SOPE   H5R20925   5.782   4.568   7.301 -0.0957  2.1186 -0.7807
  183SOPE   H5S20926   5.919   4.469   7.249 -1.0513  0.1193  1.1942
  183SOPE   C2620927   5.961   4.628   7.403  0.0297 -0.5639  0.4492
  183SOPE   H6R20928   6.070   4.636   7.383 -0.2202 -1.1675 -1.4491
  183SOPE   H6S20929   5.905   4.721   7.427 -1.1600 -1.1011 -0.1398
  183SOPE   C2720930   5.948   4.541   7.527 -1.0296 -0.6221 -0.5743
  183SOPE   H7R20931   5.844   4.504   7.542 -0.4141 -2.2011  0.1178
  183SOPE   H7S20932   6.014   4.451   7.526  0.0018  0.1200 -1.3663
  183SOPE   C2820933   5.973   4.630   7.654 -0.0132 -0.3327  0.0785
  183SOPE   H8R20934   6.078   4.665   7.654 -1.1239  3.4694  0.6942
  183SOPE   H8S20935   5.909   4.721   7.647 -0.6454 -0.7861 -0.1684
  183SOPE   C2920936   5.942   4.546   7.776  0.4276  0.3853 -0.4415
  183SOPE   H9120937   5.949   4.437   7.765  2.6253  0.3894  0.3404
  183SOPE  C21020938   5.947   4.584   7.904  0.4610  0.5110  0.0487
  183SOPE  H10120939   5.926   4.504   7.977 -1.5455 -0.1733 -1.2043
  183SOPE  C21120940   5.977   4.720   7.955 -0.3149  0.4537 -0.4765
  183SOPE  H11R20941   5.889   4.776   7.995  1.4821  2.6852  0.5931
  183SOPE  H11S20942   6.011   4.788   7.874 -1.1602  0.1745 -1.0747
  183SOPE  C21220943   6.082   4.714   8.070  0.9912 -0.6015 -0.2045
  183SOPE  H12R20944   6.112   4.820   8.086  0.0221 -0.4625  0.7613
  183SOPE  H12S20945   6.171   4.660   8.029 -0.5666 -1.5461 -2.5738
  183SOPE  C21320946   6.038   4.652   8.203 -0.6764 -0.7212  0.5721
  183SOPE  H13R20947   6.001   4.549   8.186  1.9042 -1.5407 -0.4526
  183SOPE  H13S20948   5.948   4.698   8.250 -0.6247  0.0682 -0.0751
  183SOPE  C21420949   6.162   4.651   8.308 -0.0442 -0.3749  0.6298
  183SOPE  H14R20950   6.176   4.752   8.350  3.3873 -1.7560  3.2376
  183SOPE  H14S20951   6.253   4.616   8.255  1.3139  0.8986  2.0336
  183SOPE  C21520952   6.135   4.554   8.429 -0.1049 -0.4787 -0.7832
  183SOPE  H15R20953   6.235   4.537   8.474  0.3078  0.0203 -1.4873
  183SOPE  H15S20954   6.087   4.460   8.394  0.7034 -1.7271  1.2871
  183SOPE  C21620955   6.056   4.613   8.546  0.3200 -0.4372  0.5936
  183SOPE  H16R20956   5.964   4.660   8.506  2.8139  2.6361 -2.0537
  183SOPE  H16S20957   6.116   4.691   8.598  0.0179  0.3791 -0.2538
  183SOPE  C21720958   6.025   4.506   8.654 -0.3433 -0.4010  0.0520
  183SOPE  H17R20959   6.120   4.454   8.677 -0.7389 -1.7161 -1.1184
  183SOPE  H17S20960   5.957   4.428   8.615 -0.3645 -0.5205  0.3224
  183SOPE  C21820961   5.959   4.577   8.777 -0.1285 -0.2444 -0.2534
  183SOPE  H18R20962   6.024   4.654   8.824  0.2824  0.2332 -1.5612
  183SOPE  H18S20963   5.959   4.513   8.868  0.7466  1.8401  1.2892
  183SOPE  H18T20964   5.858   4.616   8.755 -0.5638  0.8569  3.1407
  183SOPE   C3320965   5.853   4.137   7.028  0.8909  0.0902 -0.2267
  183SOPE   H3X20966   5.749   4.175   7.035  1.0434  0.9245 -1.9073
  183SOPE   H3Y20967   5.929   4.217   7.016  0.7023  0.0170 -2.2646
  183SOPE   C3420968   5.884   4.050   7.151 -0.6566  0.1261  0.5018
  183SOPE   H4X20969   5.994   4.039   7.156 -0.6864  0.1735  1.3135
  183SOPE   H4Y20970   5.837   3.949   7.151 -0.5300  0.0600 -0.0398
  183SOPE   C3520971   5.842   4.121   7.281 -0.2249 -0.1764  0.3256
  183SOPE   H5X20972   5.732   4.132   7.290  0.0596  1.5705  2.5556
  183SOPE   H5Y20973   5.893   4.219   7.278  2.4723 -1.5044 -0.5498
  183SOPE   C3620974   5.904   4.052   7.404 -0.4768  0.3695 -0.6367
  183SOPE   H6X20975   6.011   4.036   7.377 -1.1964  0.1659 -3.7154
  183SOPE   H6Y20976   5.859   3.951   7.394 -1.5018  0.9403 -2.1633
  183SOPE   C3720977   5.906   4.133   7.540  0.5109  0.2730 -0.7580
  183SOPE   H7X20978   5.799   4.152   7.563 -0.1531  2.5342 -4.7189
  183SOPE   H7Y20979   5.958   4.228   7.513 -0.5400  0.5214 -2.0163
  183SOPE   C3820980   5.969   4.074   7.662 -0.2716 -0.1692 -0.2732
  183SOPE   H8X20981   6.061   4.023   7.625 -0.8835 -2.1809  0.7920
  183SOPE   H8Y20982   5.905   3.986   7.687  0.5377 -0.8987 -0.6836
  183SOPE   C3920983   5.992   4.158   7.787  0.1054 -0.2658 -0.2576
  183SOPE   H9X20984   5.913   4.235   7.790 -2.1780 -2.4497 -1.1019
  183SOPE   H9Y20985   6.092   4.206   7.779  0.0498 -0.4790 -2.9822
  183SOPE  C31020986   5.969   4.075   7.912 -0.1683 -0.4744 -0.3860
  183SOPE  H10X20987   6.036   3.986   7.915 -1.8421 -1.7835 -0.4120
  183SOPE  H10Y20988   5.864   4.040   7.908  0.4434 -2.3342 -2.3828
  183SOPE  C31120989   5.981   4.164   8.038  0.0952  0.9445 -0.2491
  183SOPE  H11X20990   5.918   4.255   8.030 -1.5110 -0.0802  0.2625
  183SOPE  H11Y20991   6.087   4.195   8.048  1.0417 -2.1591  0.7389
  183SOPE  C31220992   5.947   4.097   8.172  0.7711  0.3332 -0.3557
  183SOPE  H12X20993   5.945   3.986   8.172 -2.2479  0.3117 -0.7762
  183SOPE  H12Y20994   5.843   4.132   8.192  0.7345  1.1600 -1.8618
  183SOPE  C31320995   6.029   4.142   8.294  0.3861 -0.5870  0.6368
  183SOPE  H13X20996   6.012   4.251   8.305  0.6182 -0.4228 -0.5142
  183SOPE  H13Y20997   6.136   4.120   8.276  1.2185  1.2979  2.8693
  183SOPE  C31420998   5.976   4.076   8.418 -0.0104 -0.2823  0.6424
  183SOPE  H14X20999   5.992   3.967   8.404  3.1061  0.3014 -1.2227
  183SOPE  H14Y21000   5.868   4.104   8.418 -0.3582 -0.8479 -4.2121
  183SOPE  C31521001   6.052   4.103   8.547 -0.3503 -0.1409  0.7226
  183SOPE  H15X21002   6.045   4.213   8.560  0.1184  0.1903 -1.5196
  183SOPE  H15Y21003   6.159   4.076   8.536  0.7779  4.0654 -0.1930
  183SOPE  C31621004   5.980   4.033   8.658  0.3295  0.1395  0.4032
  183SOPE  H16X21005   5.991   3.923   8.653  2.6748  0.1836  2.6432
  183SOPE  H16Y21006   5.871   4.049   8.643  0.7642  1.2819 -1.9751
  183SOPE  C31721007   6.025   4.067   8.807 -1.3530  0.7401  0.1633
  183SOPE  H17X21008   6.136   4.070   8.806 -1.1907 -1.8483  1.3077
  183SOPE  H17Y21009   6.009   3.981   8.876  0.0042  0.4338  0.1245
  183SOPE  C31821010   5.978   4.195   8.870 -0.8408 -0.6070  0.9614
  183SOPE  H18X21011   5.867   4.192   8.874 -0.9596 -2.0936 -1.2595
  183SOPE  H18Y21012   6.003   4.285   8.810  0.9686 -1.2295  0.7226
  183SOPE  H18Z21013   6.016   4.221   8.970  3.1937  0.5427 -0.6683
  184SOPE     N21014   5.204   4.214   6.316  0.0647  0.0477 -0.3068
  184SOPE   HN121015   5.286   4.260   6.359 -2.0696  1.6461  2.4098
  184SOPE   HN221016   5.221   4.155   6.232  1.7909 -0.2490  0.2125
  184SOPE   HN321017   5.146   4.298   6.298 -1.3072 -0.2933  2.0771
  184SOPE   C1221018   5.133   4.137   6.422  0.4454 -0.1749 -0.0970
  184SOPE  H12A21019   5.095   4.199   6.505  0.3030 -0.6074  0.1656
  184SOPE  H12B21020   5.198   4.058   6.466 -1.3047 -1.0728  0.9790
  184SOPE   C1121021   5.013   4.076   6.344 -0.0555  0.0693  0.2204
  184SOPE  H11A21022   4.954   4.162   6.306  2.5813  1.4612 -1.0379
  184SOPE  H11B21023   4.956   4.018   6.419  0.3338 -2.6661 -1.4535
  184SOPE     P21024   5.079   3.829   6.266 -0.1658 -0.0361  0.1380
  184SOPE   O1321025   5.178   3.792   6.161  0.0248 -0.1304 -0.3542
  184SOPE   O1421026   4.943   3.761   6.272 -0.1962 -0.4053 -0.5799
  184SOPE   O1221027   5.053   3.988   6.242 -0.2262 -0.2801  0.3428
  184SOPE   O1121028   5.152   3.835   6.411 -0.0333 -0.2666 -0.1180
  184SOPE    C121029   5.114   3.737   6.512 -0.0392  0.3201  0.4026
  184SOPE    HA21030   5.198   3.672   6.544  0.5261  0.8484  0.0126
  184SOPE    HB21031   5.039   3.662   6.475 -1.3246  1.7315  0.0449
  184SOPE    C221032   5.065   3.793   6.650  0.5472 -0.0593 -0.0208
  184SOPE    HS21033   5.034   3.705   6.711 -1.1062 -0.6163 -1.5615
  184SOPE   O2121034   4.955   3.886   6.624  0.5234  0.4992  0.2540
  184SOPE   C2121035   4.846   3.822   6.598  0.7082  0.0656  0.2182
  184SOPE   O2221036   4.827   3.702   6.610  0.1124 -0.0410 -0.0412
  184SOPE   C2221037   4.728   3.915   6.593 -0.7154 -0.1825  0.4369
  184SOPE   H2R21038   4.641   3.849   6.613 -1.7207  1.1943  0.7464
  184SOPE   H2S21039   4.726   3.949   6.487  2.6659  1.2016  0.6843
  184SOPE    C321040   5.169   3.862   6.731 -0.0312  0.3148  0.5758
  184SOPE    HX21041   5.205   3.948   6.670  2.4616 -0.7304  0.4436
  184SOPE    HY21042   5.263   3.805   6.744  1.3261  2.1753 -0.5013
  184SOPE   O3121043   5.121   3.874   6.867  0.2313 -0.1602 -0.8256
  184SOPE   C3121044   5.121   3.992   6.918  0.6606  0.4041 -0.5495
  184SOPE   O3221045   5.140   4.094   6.854  0.9387  0.2239 -0.5143
  184SOPE   C3221046   5.090   3.974   7.066 -0.1551  0.2996  0.0714
  184SOPE   H2X21047   5.137   3.880   7.101 -0.5968  0.2428  0.5158
  184SOPE   H2Y21048   4.981   3.975   7.082  0.0855  0.6683  1.7926
  184SOPE   C2321049   4.735   4.032   6.697 -0.7668  0.5692  0.2413
  184SOPE   H3R21050   4.655   4.106   6.675  0.5199  1.4956 -1.6072
  184SOPE   H3S21051   4.826   4.094   6.685 -0.7830  0.6153  0.3521
  184SOPE   C2421052   4.711   3.977   6.838  0.3625  0.1137 -0.3879
  184SOPE   H4R21053   4.617   3.920   6.825  0.4155  0.0649 -0.5711
  184SOPE   H4S21054   4.792   3.907   6.865  1.6981  2.6272  2.7757
  184SOPE   C2521055   4.678   4.084   6.941 -0.5569  0.1954  0.6412
  184SOPE   H5R21056   4.753   4.165   6.950  1.2482 -1.2018 -1.1968
  184SOPE   H5S21057   4.585   4.138   6.910  0.2946  1.0458 -0.4801
  184SOPE   C2621058   4.647   4.023   7.078 -0.3401 -0.5408 -0.2733
  184SOPE   H6R21059   4.596   3.925   7.075  0.9191 -1.2545  0.6256
  184SOPE   H6S21060   4.745   3.996   7.123  0.0815 -0.1663 -0.9494
  184SOPE   C2721061   4.571   4.115   7.179 -0.0388 -0.5649 -0.2621
  184SOPE   H7R21062   4.469   4.088   7.145  0.4745  0.4987 -2.8730
  184SOPE   H7S21063   4.589   4.078   7.282 -2.9250  4.1138  2.3000
  184SOPE   C2821064   4.595   4.262   7.178 -0.1957 -0.1689  0.0660
  184SOPE   H8R21065   4.570   4.297   7.075 -0.7139 -0.7155  0.0040
  184SOPE   H8S21066   4.514   4.297   7.246  1.1025 -0.1286  1.6592
  184SOPE   C2921067   4.731   4.320   7.200 -0.4183  0.0260  0.3291
  184SOPE   H9121068   4.789   4.366   7.119  0.4496  1.2326  1.5835
  184SOPE  C21021069   4.799   4.311   7.316  0.2993 -0.1920  0.0454
  184SOPE  H10121070   4.896   4.363   7.323 -0.1437  0.8226 -1.0275
  184SOPE  C21121071   4.740   4.259   7.447  0.2861 -0.3760  0.3256
  184SOPE  H11R21072   4.792   4.163   7.471  1.8229  0.2774 -0.3078
  184SOPE  H11S21073   4.633   4.227   7.443  0.2853 -0.5152  1.1772
  184SOPE  C21221074   4.772   4.342   7.572  0.5754 -0.1488  0.5154
  184SOPE  H12R21075   4.714   4.435   7.551 -0.7195 -1.4788 -2.3630
  184SOPE  H12S21076   4.883   4.356   7.571  0.8725 -2.2200  0.1301
  184SOPE  C21321077   4.735   4.275   7.710  0.5123 -0.4939  0.2255
  184SOPE  H13R21078   4.773   4.171   7.704 -1.5392 -1.3102  0.6962
  184SOPE  H13S21079   4.624   4.271   7.711  0.4006  0.9960 -1.1709
  184SOPE  C21421080   4.792   4.352   7.832  0.2886 -0.7322  1.1757
  184SOPE  H14R21081   4.749   4.454   7.838  1.0406 -0.3676  0.5555
  184SOPE  H14S21082   4.902   4.350   7.817 -0.0382 -0.4067 -2.1962
  184SOPE  C21521083   4.745   4.290   7.968  0.0780 -0.0032 -0.2871
  184SOPE  H15R21084   4.776   4.186   7.989 -1.0632  0.0091  1.6998
  184SOPE  H15S21085   4.635   4.300   7.971  0.0737  0.9113 -1.9216
  184SOPE  C21621086   4.816   4.375   8.076 -0.0154  0.0392  0.0050
  184SOPE  H16R21087   4.795   4.483   8.059  3.2583  0.2707 -4.5171
  184SOPE  H16S21088   4.924   4.376   8.049 -0.0507  0.8264 -0.1309
  184SOPE  C21721089   4.804   4.325   8.218  0.5029 -0.5226  0.4398
  184SOPE  H17R21090   4.842   4.220   8.220  2.3353  0.0875 -0.3828
  184SOPE  H17S21091   4.696   4.325   8.247  0.2752 -1.1709 -0.3411
  184SOPE  C21821092   4.883   4.399   8.327  0.0506  0.5470 -0.3549
  184SOPE  H18R21093   4.991   4.380   8.314 -0.3389 -1.7327 -0.7765
  184SOPE  H18S21094   4.854   4.369   8.430  0.4350 -1.5169 -0.7939
  184SOPE  H18T21095   4.862   4.508   8.331 -0.3525  0.4711 -0.2990
  184SOPE   C3321096   5.150   4.089   7.152 -0.2667  0.3083 -0.7327
  184SOPE   H3X21097   5.100   4.184   7.124  0.7875  1.5237  1.2573
  184SOPE   H3Y21098   5.258   4.106   7.130  0.0818 -1.1710 -0.3111
  184SOPE   C3421099   5.141   4.059   7.306  0.2923  0.1028 -0.4393
  184SOPE   H4X21100   5.215   3.978   7.322  0.6414  0.2315 -1.3388
  184SOPE   H4Y21101   5.042   4.022   7.342  0.5800 -0.9499 -0.6853
  184SOPE   C3521102   5.176   4.180   7.393  0.3245 -0.7486  0.1284
  184SOPE   H5X21103   5.099   4.259   7.388  0.1869 -0.9517 -2.0937
  184SOPE   H5Y21104   5.251   4.224   7.324 -1.5422  1.9591 -0.2824
  184SOPE   C3621105   5.221   4.151   7.534 -0.2067 -0.0210 -0.2065
  184SOPE   H6X21106   5.253   4.245   7.583  0.7505  0.2585 -1.3364
  184SOPE   H6Y21107   5.321   4.104   7.542  0.0079  0.4824  0.1034
  184SOPE   C3721108   5.126   4.078   7.638  0.3145 -0.7566  0.1107
  184SOPE   H7X21109   5.140   3.968   7.629 -1.0877 -0.8098 -2.0366
  184SOPE   H7Y21110   5.018   4.103   7.643  0.9401  1.9797  2.5580
  184SOPE   C3821111   5.162   4.122   7.786 -0.0915  0.6533  0.9526
  184SOPE   H8X21112   5.132   4.227   7.806  2.7652  1.4773  1.3604
  184SOPE   H8Y21113   5.272   4.107   7.798 -0.1434  1.3630  2.4480
  184SOPE   C3921114   5.095   4.052   7.903  0.4630  0.2880  0.4078
  184SOPE   H9X21115   5.116   3.945   7.883 -3.2827 -0.1458 -2.0655
  184SOPE   H9Y21116   4.986   4.064   7.890  0.6768  1.4828 -0.5176
  184SOPE  C31021117   5.155   4.084   8.039 -0.1293  0.0330  0.8001
  184SOPE  H10X21118   5.122   4.185   8.071  0.5430  0.4019  0.3482
  184SOPE  H10Y21119   5.265   4.079   8.025 -0.2015  0.3323  0.0744
  184SOPE  C31121120   5.122   3.983   8.146 -0.2840 -0.3040  0.0752
  184SOPE  H11X21121   5.173   3.887   8.122 -3.1694 -0.9790 -4.4816
  184SOPE  H11Y21122   5.013   3.963   8.150 -0.1923 -0.9912 -0.5292
  184SOPE  C31221123   5.173   4.035   8.281  0.5158  0.2581 -0.4931
  184SOPE  H12X21124   5.149   4.143   8.288  0.8313  0.5328 -2.9271
  184SOPE  H12Y21125   5.283   4.039   8.277  0.6680 -2.4804 -1.5153
  184SOPE  C31321126   5.097   3.955   8.398  0.3386 -0.5292  0.7748
  184SOPE  H13X21127   5.137   3.851   8.397 -1.3607 -1.2151  0.8328
  184SOPE  H13Y21128   4.991   3.942   8.367  0.9799  1.8467 -2.9837
  184SOPE  C31421129   5.104   4.016   8.544  0.3780 -0.0923  0.3596
  184SOPE  H14X21130   5.211   4.020   8.572  0.0680  0.9250  1.4583
  184SOPE  H14Y21131   5.051   3.942   8.608 -1.5626 -0.5058 -1.6059
  184SOPE  C31521132   5.031   4.153   8.547 -1.0131 -0.3337 -0.8728
  184SOPE  H15X21133   4.936   4.150   8.489 -1.1661  2.7821 -0.9413
  184SOPE  H15Y21134   5.097   4.222   8.489  0.1742 -1.8143 -1.3738
  184SOPE  C31621135   5.025   4.210   8.687 -0.2782 -0.5754 -0.2410
  184SOPE  H16X21136   4.969   4.138   8.751  1.1340 -0.6523  0.9838
  184SOPE  H16Y21137   4.965   4.303   8.691  2.1994  1.1429 -0.8508
  184SOPE  C31721138   5.156   4.255   8.758 -0.5228  0.2683 -0.0339
  184SOPE  H17X21139   5.186   4.345   8.700 -0.4756 -1.0457 -2.1473
  184SOPE  H17Y21140   5.230   4.174   8.741 -0.2352  1.0179 -2.8277
  184SOPE  C31821141   5.135   4.285   8.904  0.0249  0.4766  0.3651
  184SOPE  H18X21142   5.135   4.191   8.963  4.1709  0.1217  0.0317
  184SOPE  H18Y21143   5.044   4.350   8.907 -0.5906 -0.3484  3.3598
  184SOPE  H18Z21144   5.229   4.338   8.930  0.0785  0.8786 -0.6058
  185SAPI   C1221145   0.381   2.635  11.271 -0.2123 -0.0825 -0.0617
  185SAPI    H221146   0.338   2.732  11.237 -0.3084 -0.0576  0.1322
  185SAPI    O221147   0.455   2.654  11.390 -0.6382  0.2521  0.0151
  185SAPI   HO221148   0.478   2.747  11.397 -0.3965  0.1071  1.7217
  185SAPI   C1321149   0.266   2.545  11.299 -0.0621 -0.1300 -0.1851
  185SAPI    H321150   0.211   2.520  11.206  1.7365 -3.0557 -0.5985
  185SAPI    O321151   0.167   2.605  11.383  0.0872  0.3658  0.0209
  185SAPI   HO321152   0.209   2.665  11.445 -0.6928  0.0497  0.8789
  185SAPI   C1421153   0.308   2.406  11.346  0.3781  0.6067 -0.3734
  185SAPI    H421154   0.367   2.423  11.438  0.2577 -0.3648 -0.1052
  185SAPI    O421155   0.200   2.321  11.383  0.4326 -0.4005 -0.2478
  185SAPI   HO421156   0.172   2.338  11.473  1.1803 -2.0327  0.3297
  185SAPI   C1521157   0.404   2.336  11.256  0.0163 -0.8130 -0.1773
  185SAPI    H521158   0.344   2.321  11.164  1.2116  0.4060 -1.2017
  185SAPI    O521159   0.446   2.204  11.304  0.2836  0.3592 -0.2978
  185SAPI   HO521160   0.470   2.216  11.396  1.6128  1.7907 -0.7877
  185SAPI   C1621161   0.525   2.431  11.220  0.1208 -0.4568  0.5078
  185SAPI    H621162   0.583   2.446  11.314 -1.4192  1.2376  1.2384
  185SAPI    O621163   0.611   2.364  11.133  0.2446  0.4293 -0.1670
  185SAPI   HO621164   0.668   2.301  11.177  1.3203  1.7592  0.4554
  185SAPI   C1121165   0.472   2.570  11.162 -0.9605  1.2424  0.4196
  185SAPI    H121166   0.411   2.540  11.074  0.5403  1.8848 -0.8790
  185SAPI     P21167   0.562   2.793  11.043 -0.1002 -0.2821  0.6162
  185SAPI   O1321168   0.661   2.896  11.091  0.6312  0.5408 -0.1665
  185SAPI   O1421169   0.420   2.838  11.041 -0.5635  0.3636  0.5305
  185SAPI   O1221170   0.581   2.661  11.135 -0.0169  0.1443 -0.5332
  185SAPI   O1121171   0.604   2.729  10.900  0.4137  0.1855  0.0841
  185SAPI    C121172   0.735   2.727  10.852 -0.7701 -0.1683 -0.0601
  185SAPI    HA21173   0.760   2.824  10.805 -0.6823 -0.4393 -0.5802
  185SAPI    HB21174   0.803   2.707  10.938 -2.0401 -1.9117  0.6007
  185SAPI    C221175   0.754   2.604  10.751 -0.4879 -0.1828  0.1013
  185SAPI    HS21176   0.864   2.591  10.740 -0.6228 -0.9810 -0.3286
  185SAPI   O2121177   0.697   2.627  10.622 -0.2516 -0.8140 -0.1919
  185SAPI   C2121178   0.743   2.724  10.550 -0.5196  0.0570  0.1899
  185SAPI   O2221179   0.850   2.783  10.577 -0.3352  0.4380  0.2559
  185SAPI   C2221180   0.654   2.764  10.429 -0.2780  0.2921  0.2819
  185SAPI   H2R21181   0.629   2.664  10.389  0.1347 -0.1574  1.1419
  185SAPI   H2S21182   0.554   2.809  10.444 -1.9716 -3.4181  1.0790
  185SAPI    C321183   0.696   2.484  10.819 -0.5925  0.1337  0.2499
  185SAPI    HX21184   0.603   2.496  10.879  0.8415 -3.4791  3.5944
  185SAPI    HY21185   0.770   2.459  10.898  0.6829  1.2265 -0.5633
  185SAPI   O3121186   0.694   2.370  10.725  0.2982 -0.0149 -0.7267
  185SAPI   C3121187   0.570   2.339  10.686  0.6009  0.0854  0.3173
  185SAPI   O3221188   0.470   2.402  10.709 -0.7055 -0.1136  0.1367
  185SAPI   C3221189   0.581   2.226  10.590 -1.2613  0.4790  0.0134
  185SAPI   H2X21190   0.564   2.132  10.647  2.7091  0.0730  0.8344
  185SAPI   H2Y21191   0.680   2.214  10.540 -1.3189 -2.0375  0.4039
  185SAPI   C2321192   0.731   2.832  10.312 -1.1682 -0.6388  0.5142
  185SAPI   H3R21193   0.806   2.760  10.273  0.4604  1.2114  0.0989
  185SAPI   H3S21194   0.796   2.913  10.350  0.1990 -1.0345 -0.8749
  185SAPI   C2421195   0.645   2.895  10.205  0.0770 -0.6458 -0.4392
  185SAPI   H4R21196   0.710   2.959  10.141  0.4613 -0.5245  0.0657
  185SAPI   H4S21197   0.582   2.975  10.250  1.7937  1.5957 -1.7896
  185SAPI   C2521198   0.550   2.806  10.131 -0.4473 -0.3271  0.8968
  185SAPI   H5R21199   0.484   2.750  10.199  0.3105 -0.9018  1.1732
  185SAPI   C2621200   0.543   2.789  10.000 -0.7378 -0.4064 -0.1579
  185SAPI   H6R21201   0.464   2.718   9.972  0.4257 -1.2684 -1.3697
  185SAPI   C2721202   0.638   2.853   9.901  0.5872  0.2941 -0.3557
  185SAPI   H7R21203   0.733   2.893   9.942  0.0694  1.5675 -0.3514
  185SAPI   H7S21204   0.567   2.930   9.863  1.1482  0.9438 -0.1052
  185SAPI   C2821205   0.646   2.754   9.781  0.0742 -0.6046  0.5147
  185SAPI   H8R21206   0.678   2.651   9.803 -2.2978 -1.3031  0.9953
  185SAPI   C2921207   0.642   2.790   9.652  0.2878 -1.0954  0.2617
  185SAPI   H9R21208   0.664   2.710   9.579 -2.9164 -0.6525 -1.3788
  185SAPI  C21021209   0.623   2.926   9.593 -0.4758  0.1390 -0.5756
  185SAPI  H10R21210   0.720   2.974   9.569 -0.9449  0.0701 -2.7691
  185SAPI  H10S21211   0.576   2.996   9.665 -0.2136  0.5115 -0.7671
  185SAPI  C21121212   0.535   2.921   9.476 -0.4021  0.3683 -0.2964
  185SAPI  H11R21213   0.429   2.900   9.496 -0.4264  2.0061  1.5814
  185SAPI  C21221214   0.571   2.894   9.350  0.4907 -1.0175 -0.0646
  185SAPI  H12R21215   0.492   2.884   9.274  0.1728 -1.5501  0.3246
  185SAPI  C21321216   0.706   2.869   9.289 -0.4102  0.4062 -0.8223
  185SAPI  H13R21217   0.791   2.885   9.358  0.4081 -1.0098 -1.4393
  185SAPI  H13S21218   0.716   2.945   9.208 -1.7878 -0.1589 -1.5461
  185SAPI  C21421219   0.701   2.731   9.222  1.5616 -0.0986 -0.6478
  185SAPI  H14R21220   0.696   2.658   9.304  2.9071  0.2272 -0.2423
  185SAPI  C21521221   0.694   2.702   9.096  0.4912 -0.4388  0.8487
  185SAPI  H15R21222   0.666   2.600   9.068  1.6895 -1.0544  1.8398
  185SAPI  C21621223   0.690   2.811   8.987 -0.0101 -0.1275  0.7934
  185SAPI  H16R21224   0.709   2.915   9.021 -0.5488 -0.1190  1.0813
  185SAPI  H16S21225   0.586   2.816   8.948 -0.5100  0.8567  2.1841
  185SAPI  C21721226   0.789   2.778   8.869 -0.2141  0.1329 -0.7075
  185SAPI  H17R21227   0.875   2.722   8.911  0.3061  1.0267 -0.5403
  185SAPI  H17S21228   0.822   2.877   8.831 -0.3138  0.4118 -0.0768
  185SAPI  C21821229   0.721   2.703   8.757  1.3046 -0.2961 -0.3602
  185SAPI  H18R21230   0.672   2.613   8.798  0.9446  0.3483  0.6440
  185SAPI  H18S21231   0.796   2.669   8.682  1.8445 -2.1315  0.9573
  185SAPI  C21921232   0.613   2.790   8.684  0.6762 -0.8401 -0.6913
  185SAPI  H19R21233   0.658   2.888   8.656 -0.0218  0.0974  1.3036
  185SAPI  H19S21234   0.532   2.820   8.754 -0.2472  3.2151 -3.1252
  185SAPI  C22021235   0.541   2.711   8.570 -0.1629 -0.2209  0.4115
  185SAPI  H20R21236   0.568   2.768   8.479 -4.0653 -0.8879 -1.3573
  185SAPI  H20S21237   0.431   2.710   8.588 -1.0215 -4.1343 -3.4237
  185SAPI  H20T21238   0.570   2.604   8.560 -0.9441 -0.2046 -2.9761
  185SAPI   C3321239   0.475   2.213  10.481 -0.5029 -0.2716 -0.1167
  185SAPI   H3X21240   0.369   2.227  10.512 -1.1627  1.6634 -2.9161
  185SAPI   H3Y21241   0.481   2.113  10.435 -0.4744 -0.5102  0.3960
  185SAPI   C3421242   0.481   2.317  10.358  0.5400  0.0399 -0.0443
  185SAPI   H4X21243   0.588   2.348  10.352  0.7482 -0.3049  1.4984
  185SAPI   H4Y21244   0.414   2.402  10.384  0.3566  0.4931 -1.8671
  185SAPI   C3521245   0.440   2.266  10.211  0.0570 -0.0473 -0.0751
  185SAPI   H5X21246   0.342   2.214  10.203  0.7517 -1.5160  0.4964
  185SAPI   H5Y21247   0.516   2.189  10.182  1.9548  0.7615  2.3381
  185SAPI   C3621248   0.449   2.377  10.110  0.1395  0.8871  0.0685
  185SAPI   H6X21249   0.549   2.422  10.094  0.8525 -1.0181 -1.1666
  185SAPI   H6Y21250   0.383   2.461  10.142 -0.5903 -0.0338  1.0972
  185SAPI   C3721251   0.388   2.330   9.974  0.4090  0.0130 -0.1771
  185SAPI   H7X21252   0.286   2.291   9.994 -0.2311  1.6856 -0.0003
  185SAPI   H7Y21253   0.450   2.246   9.936  0.4764 -1.0119  2.0386
  185SAPI   C3821254   0.374   2.449   9.876  0.2161 -0.1539  0.1540
  185SAPI   H8X21255   0.476   2.492   9.870  1.2918 -2.5156  0.1222
  185SAPI   H8Y21256   0.306   2.524   9.919  0.6413  0.9190 -0.9906
  185SAPI   C3921257   0.330   2.420   9.731 -0.1556  0.6797  0.4402
  185SAPI   H9X21258   0.338   2.513   9.670  0.2469  0.3070 -0.0860
  185SAPI   H9Y21259   0.227   2.380   9.737 -0.3109  0.5831 -1.9532
  185SAPI  C31021260   0.419   2.313   9.664 -0.7973  0.0457 -0.6352
  185SAPI  H10X21261   0.405   2.216   9.716  2.6147  0.6559  1.7799
  185SAPI  H10Y21262   0.528   2.334   9.670 -0.5172 -1.5552  0.5392
  185SAPI  C31121263   0.379   2.311   9.512  0.0000  0.2410 -0.0320
  185SAPI  H11X21264   0.407   2.399   9.449  1.4000 -0.4189 -0.3776
  185SAPI  H11Y21265   0.269   2.307   9.500  0.0677  0.0141 -0.6284
  185SAPI  C31221266   0.445   2.180   9.451  0.8533  0.0066  0.1541
  185SAPI  H12X21267   0.392   2.096   9.500  0.9875  0.4404  1.0736
  185SAPI  H12Y21268   0.553   2.170   9.477  0.9530 -2.9608 -1.0970
  185SAPI  C31321269   0.433   2.178   9.301  0.3168 -0.5506 -0.6888
  185SAPI  H13X21270   0.475   2.271   9.256 -1.3846  1.7720  2.1692
  185SAPI  H13Y21271   0.325   2.185   9.273 -0.2568 -1.5425  1.0907
  185SAPI  C31421272   0.475   2.040   9.237 -0.8589  0.1335 -0.8228
  185SAPI  H14X21273   0.421   1.960   9.292  2.6437 -1.5901  0.3989
  185SAPI  H14Y21274   0.583   2.021   9.254 -1.3716 -1.1346  1.5075
  185SAPI  C31521275   0.417   2.042   9.092  0.3164 -0.5731 -0.0400
  185SAPI  H15X21276   0.453   2.140   9.052 -2.4056  0.0567 -1.2115
  185SAPI  H15Y21277   0.306   2.044   9.089  0.3006 -1.7351 -0.8373
  185SAPI  C31621278   0.462   1.911   9.023 -0.3350 -0.1502 -0.9236
  185SAPI  H16X21279   0.400   1.833   9.071  0.4796 -0.3328 -0.1422
  185SAPI  H16Y21280   0.566   1.878   9.044 -0.8160 -0.8350  0.4966
  185SAPI  C31721281   0.443   1.918   8.868  0.1198 -0.1478  0.5290
  185SAPI  H17X21282   0.489   2.014   8.838  0.1834 -0.4843 -0.4858
  185SAPI  H17Y21283   0.334   1.932   8.851 -0.0454 -1.9884 -0.2559
  185SAPI  C31821284   0.504   1.805   8.782  0.2873 -0.2074 -0.3157
  185SAPI  H18X21285   0.602   1.776   8.826 -0.2970  0.6573  1.6872
  185SAPI  H18Y21286   0.513   1.835   8.675  1.5464  2.6360  0.4928
  185SAPI  H18Z21287   0.435   1.719   8.795  1.7535 -1.1489  1.8895
  186SAPI   C1221288   2.513   0.331  10.961  0.0784 -0.0366 -0.5985
  186SAPI    H221289   2.404   0.332  10.938  0.2497  0.5515 -1.3857
  186SAPI    O221290   2.572   0.435  10.889  0.5744  0.1762  0.0808
  186SAPI   HO221291   2.533   0.521  10.906  0.5857  0.3827 -0.8905
  186SAPI   C1321292   2.540   0.355  11.114  0.8705 -0.4526  1.0016
  186SAPI    H321293   2.500   0.271  11.174 -1.6725 -0.6393 -0.7859
  186SAPI    O321294   2.469   0.473  11.159 -0.4811  0.2799  0.7513
  186SAPI   HO321295   2.489   0.539  11.093  1.5611 -1.9979 -1.1009
  186SAPI   C1421296   2.687   0.378  11.147 -0.0103 -0.1075  0.2919
  186SAPI    H421297   2.723   0.463  11.086 -2.0571  1.1534  0.7413
  186SAPI    O421298   2.718   0.406  11.290  0.3434 -0.0263 -0.9535
  186SAPI   HO421299   2.674   0.488  11.314  0.6839 -0.2925  0.7045
  186SAPI   C1521300   2.759   0.251  11.106  0.0809 -0.2369  0.8526
  186SAPI    H521301   2.706   0.172  11.164  0.2011 -0.1906  1.0262
  186SAPI    O521302   2.898   0.259  11.137  0.6102  0.4033 -0.6512
  186SAPI   HO521303   2.912   0.323  11.207  2.3792 -0.2852 -0.3262
  186SAPI   C1621304   2.737   0.211  10.958  0.5507 -0.0083 -0.5457
  186SAPI    H621305   2.774   0.289  10.888 -0.7831  2.3392  1.2450
  186SAPI    O621306   2.788   0.079  10.942  0.1542 -0.1359  0.3115
  186SAPI   HO621307   2.748   0.048  10.860 -1.3096  1.1327  0.4875
  186SAPI   C1121308   2.584   0.197  10.923 -0.0676  0.2115  1.0431
  186SAPI    H121309   2.539   0.115  10.982  0.3552 -0.2456  0.7363
  186SAPI     P21310   2.429   0.118  10.706 -0.0041  0.0457 -0.4289
  186SAPI   O1321311   2.345   0.048  10.808 -0.3349  0.4389  0.1933
  186SAPI   O1421312   2.473   0.044  10.584  0.3335  0.4068 -0.0063
  186SAPI   O1221313   2.570   0.162  10.787 -0.0391 -0.0886 -0.4172
  186SAPI   O1121314   2.372   0.261  10.671  0.0154 -0.1397  0.0539
  186SAPI    C121315   2.429   0.336  10.560 -0.0241  0.6880 -0.1274
  186SAPI    HA21316   2.536   0.343  10.588 -0.1700 -0.1164  0.6512
  186SAPI    HB21317   2.417   0.288  10.460 -2.3434  0.3321  0.2620
  186SAPI    C221318   2.371   0.481  10.538 -0.5798 -0.3531  0.0216
  186SAPI    HS21319   2.378   0.533  10.637  0.0360 -1.1799  0.4243
  186SAPI   O2121320   2.236   0.463  10.492  0.8178 -0.5834 -0.5728
  186SAPI   C2121321   2.162   0.580  10.502  0.5877 -0.6492  0.4044
  186SAPI   O2221322   2.196   0.674  10.567  0.8260  0.4096 -0.0541
  186SAPI   C2221323   2.031   0.563  10.423 -0.1497 -0.0459 -0.0784
  186SAPI   H2R21324   2.040   0.536  10.316  0.2614 -2.1636  0.4425
  186SAPI   H2S21325   1.981   0.473  10.466  0.5768 -2.7633 -4.2905
  186SAPI    C321326   2.458   0.562  10.442  0.6864 -0.5843  0.1882
  186SAPI    HX21327   2.557   0.573  10.492  0.5316 -1.5241  0.7306
  186SAPI    HY21328   2.413   0.662  10.423 -1.0369 -1.5586 -1.1911
  186SAPI   O3121329   2.472   0.494  10.316 -0.6272  0.0009 -0.1850
  186SAPI   C3121330   2.378   0.522  10.223 -0.9266  0.4201 -1.0400
  186SAPI   O3221331   2.286   0.599  10.240  0.1854  0.4906  0.6119
  186SAPI   C3221332   2.414   0.460  10.088 -0.0256  1.5010 -0.9476
  186SAPI   H2X21333   2.464   0.363  10.108 -1.1950  1.0183 -0.3271
  186SAPI   H2Y21334   2.478   0.527  10.026 -1.9828  4.3390 -0.1128
  186SAPI   C2321335   1.934   0.681  10.435  0.3198 -0.3513  0.0949
  186SAPI   H3R21336   1.986   0.778  10.417  0.3065 -0.0952  1.3364
  186SAPI   H3S21337   1.872   0.674  10.528 -0.6185 -1.3709 -0.5854
  186SAPI   C2421338   1.822   0.691  10.315 -0.3042  0.3985 -0.5061
  186SAPI   H4R21339   1.887   0.739  10.239 -1.1737 -0.7408 -2.0020
  186SAPI   H4S21340   1.741   0.760  10.348  0.4430  0.6121  0.9896
  186SAPI   C2521341   1.763   0.565  10.261  0.1247  0.6055 -0.9647
  186SAPI   H5R21342   1.720   0.496  10.334  1.0955  0.3373 -0.6355
  186SAPI   C2621343   1.756   0.527  10.132 -0.0767 -0.3946 -0.0033
  186SAPI   H6R21344   1.725   0.424  10.107 -1.9768 -0.3878  2.0056
  186SAPI   C2721345   1.802   0.602  10.007 -0.2314  0.3746  0.1418
  186SAPI   H7R21346   1.785   0.710  10.028 -0.4152  0.2172  0.8435
  186SAPI   H7S21347   1.732   0.579   9.924  0.4934 -1.6403  0.0270
  186SAPI   C2821348   1.937   0.571   9.954 -0.0357  0.4537  0.1440
  186SAPI   H8R21349   2.008   0.540  10.031 -1.8060 -1.1294  1.2048
  186SAPI   C2921350   1.972   0.574   9.825  0.2118  0.9393 -0.3191
  186SAPI   H9R21351   2.077   0.554   9.800  0.2589  0.1691  0.4405
  186SAPI  C21021352   1.886   0.610   9.702  0.6454 -0.1910 -0.2487
  186SAPI  H10R21353   1.777   0.626   9.719  1.0144  2.2606  0.1634
  186SAPI  H10S21354   1.881   0.526   9.629 -1.1806  0.4909 -0.9771
  186SAPI  C21121355   1.929   0.736   9.638  0.2930  0.0708 -0.1220
  186SAPI  H11R21356   1.935   0.816   9.713  0.4031 -0.5381  0.5280
  186SAPI  C21221357   1.938   0.766   9.507  0.0945  0.1963 -0.4643
  186SAPI  H12R21358   1.957   0.871   9.483 -0.3614 -0.2459 -3.1354
  186SAPI  C21321359   1.910   0.673   9.391 -0.3351 -0.0541  0.1635
  186SAPI  H13R21360   1.849   0.725   9.315 -1.2824  1.5839  1.9562
  186SAPI  H13S21361   1.849   0.585   9.421 -0.4072 -0.4164 -0.9972
  186SAPI  C21421362   2.046   0.619   9.349  0.4794 -0.3834 -0.3089
  186SAPI  H14R21363   2.097   0.555   9.423 -1.3631 -3.2067 -1.2844
  186SAPI  C21521364   2.106   0.631   9.227 -0.0416 -0.2485  0.5369
  186SAPI  H15R21365   2.213   0.611   9.208 -0.0541 -0.2271  0.4402
  186SAPI  C21621366   2.045   0.707   9.114 -0.7258 -0.3401  0.8360
  186SAPI  H16R21367   2.100   0.801   9.095  2.5284 -2.1865  0.3368
  186SAPI  H16S21368   1.939   0.738   9.128 -1.2870 -1.4010 -0.7369
  186SAPI  C21721369   2.041   0.623   8.991  0.3639  0.6227  0.1011
  186SAPI  H17R21370   1.980   0.670   8.910 -3.3839 -1.5535  1.4043
  186SAPI  H17S21371   1.996   0.523   9.010  0.3613  0.6190  0.0765
  186SAPI  C21821372   2.183   0.587   8.926 -0.1130  0.2360 -0.1145
  186SAPI  H18R21373   2.263   0.601   9.002 -0.6001 -0.7524  0.6075
  186SAPI  H18S21374   2.203   0.657   8.842  1.1794 -3.1597 -2.8485
  186SAPI  C21921375   2.180   0.455   8.853 -0.0362 -0.1853 -0.3720
  186SAPI  H19R21376   2.175   0.373   8.928 -0.0903 -0.2438 -0.4395
  186SAPI  H19S21377   2.274   0.442   8.796 -0.5555 -0.6638 -1.1375
  186SAPI  C22021378   2.066   0.444   8.747 -0.7882  0.2652 -0.1523
  186SAPI  H20R21379   2.062   0.349   8.689  1.3418  0.8569 -1.3845
  186SAPI  H20S21380   2.072   0.528   8.674 -1.1873 -1.5772 -2.3905
  186SAPI  H20T21381   1.968   0.460   8.798 -0.9557 -0.7806 -0.1257
  186SAPI   C3321382   2.281   0.440  10.014  0.0702 -0.3672 -0.5308
  186SAPI   H3X21383   2.255   0.543   9.981  0.1673  0.2000  1.0710
  186SAPI   H3Y21384   2.198   0.398  10.074 -0.0787 -1.2393 -1.3245
  186SAPI   C3421385   2.284   0.349   9.887 -0.3520  0.5442  0.2959
  186SAPI   H4X21386   2.179   0.317   9.873 -0.4034  0.5828  0.5814
  186SAPI   H4Y21387   2.339   0.257   9.915 -0.1974  1.2498  2.5056
  186SAPI   C3521388   2.354   0.411   9.763 -1.1551 -0.2331  0.0936
  186SAPI   H5X21389   2.458   0.426   9.801 -1.2575  0.9780 -0.0670
  186SAPI   H5Y21390   2.319   0.514   9.744  3.3935  0.8712 -4.6841
  186SAPI   C3621391   2.338   0.323   9.636 -1.2278  0.0462  0.5116
  186SAPI   H6X21392   2.233   0.292   9.621 -1.7026  1.6996  0.2169
  186SAPI   H6Y21393   2.398   0.230   9.651 -2.6345 -0.9058  0.3767
  186SAPI   C3721394   2.406   0.390   9.510  0.3932  0.2441 -0.2278
  186SAPI   H7X21395   2.516   0.378   9.514  0.4092 -0.7085 -2.3728
  186SAPI   H7Y21396   2.369   0.494   9.495 -0.5712  0.2250  1.6621
  186SAPI   C3821397   2.360   0.314   9.383  0.6024  0.0265  0.1172
  186SAPI   H8X21398   2.254   0.343   9.366  1.2651  1.6219 -1.6750
  186SAPI   H8Y21399   2.361   0.206   9.406 -0.9403  0.7222  4.3111
  186SAPI   C3921400   2.433   0.357   9.256  0.0103 -0.2197  0.2972
  186SAPI   H9X21401   2.544   0.354   9.271 -0.1045 -0.9163  1.1261
  186SAPI   H9Y21402   2.407   0.462   9.230 -0.4252 -0.2957  0.4214
  186SAPI  C31021403   2.395   0.282   9.126  0.5717 -0.2507 -0.7310
  186SAPI  H10X21404   2.473   0.297   9.048  0.5393  0.2325 -0.6738
  186SAPI  H10Y21405   2.292   0.309   9.093  0.2170 -2.8800 -2.0384
  186SAPI  C31121406   2.376   0.132   9.147 -0.2210 -0.6200  0.1887
  186SAPI  H11X21407   2.284   0.113   9.208 -0.0977  2.0910  1.3633
  186SAPI  H11Y21408   2.459   0.100   9.213 -0.8927  1.2568  2.0655
  186SAPI  C31221409   2.373   0.041   9.030 -0.5933  0.3231 -0.0914
  186SAPI  H12X21410   2.290   0.069   8.962  1.1304 -0.5743 -2.7376
  186SAPI  H12Y21411   2.336  -0.059   9.061 -1.1770  1.0141  1.5384
  186SAPI  C31321412   2.508   0.037   8.957  0.5121  0.1423 -0.2825
  186SAPI  H13X21413   2.586  -0.001   9.026  1.7338 -0.3829 -1.8826
  186SAPI  H13Y21414   2.530   0.144   8.937  0.2057 -0.2346 -3.0592
  186SAPI  C31421415   2.519  -0.035   8.828  0.3622 -0.0004  0.6772
  186SAPI  H14X21416   2.465  -0.132   8.836 -2.4193  1.3141 -0.8601
  186SAPI  H14Y21417   2.626  -0.066   8.824  0.3942  0.2200 -0.4774
  186SAPI  C31521418   2.465   0.045   8.704  0.1258 -0.4186 -0.3817
  186SAPI  H15X21419   2.355   0.054   8.712 -0.0140 -1.1175 -1.3536
  186SAPI  H15Y21420   2.476  -0.017   8.613 -1.4231 -0.1847 -0.7483
  186SAPI  C31621421   2.516   0.182   8.685  0.4309 -1.7136 -0.0872
  186SAPI  H16X21422   2.626   0.182   8.704  0.2399  0.0995  1.1798
  186SAPI  H16Y21423   2.470   0.254   8.755 -0.2459 -0.4540 -1.7674
  186SAPI  C31721424   2.475   0.238   8.544 -0.3824  0.0027 -0.5959
  186SAPI  H17X21425   2.514   0.170   8.466 -2.0097 -0.3817 -1.0973
  186SAPI  H17Y21426   2.520   0.339   8.529  3.6189 -1.5370 -0.2345
  186SAPI  C31821427   2.325   0.259   8.543 -0.1266  0.0011  0.2288
  186SAPI  H18X21428   2.269   0.165   8.527  0.9982 -0.5094 -0.8747
  186SAPI  H18Y21429   2.297   0.331   8.462  1.0011  3.3273  2.5983
  186SAPI  H18Z21430   2.293   0.294   8.643  0.4878  1.6208 -0.1098
  187SAPI   C1221431   4.737   0.098   6.552 -0.0772  0.4467 -0.1231
  187SAPI    H221432   4.763   0.008   6.612 -0.3081 -0.1032 -0.8392
  187SAPI    O221433   4.691   0.200   6.639 -0.3991  0.0746 -0.2824
  187SAPI   HO221434   4.641   0.148   6.702 -0.4929  1.1197  0.5085
  187SAPI   C1321435   4.869   0.133   6.477  0.0196  0.6079  0.1222
  187SAPI    H321436   4.886   0.045   6.411 -1.3338 -0.2496  0.8543
  187SAPI    O321437   4.985   0.151   6.559 -0.0100  0.0330 -0.0390
  187SAPI   HO321438   4.977   0.234   6.607 -1.1549  0.6421 -1.2294
  187SAPI   C1421439   4.839   0.241   6.381  0.4833 -1.0979  0.5089
  187SAPI    H421440   4.805   0.331   6.437  1.3614 -0.6562  0.3500
  187SAPI    O421441   4.950   0.288   6.312 -0.5892 -0.4682  0.3462
  187SAPI   HO421442   4.925   0.351   6.244 -1.7166  0.0196  1.1783
  187SAPI   C1521443   4.723   0.214   6.291  0.7617  0.1573  0.5424
  187SAPI    H521444   4.759   0.134   6.223  0.5777 -0.1388  0.7918
  187SAPI    O521445   4.689   0.335   6.217 -0.5019  0.2957 -0.3039
  187SAPI   HO521446   4.731   0.323   6.132 -4.4892 -4.7773 -2.0480
  187SAPI   C1621447   4.597   0.169   6.357 -0.1795  0.2926  0.1034
  187SAPI    H621448   4.550   0.256   6.407  0.3716  0.7768 -0.2028
  187SAPI    O621449   4.500   0.129   6.264  0.2859 -0.1160  0.1857
  187SAPI   HO621450   4.453   0.068   6.321  1.7070  0.1149  1.6800
  187SAPI   C1121451   4.634   0.057   6.450 -0.5739 -0.2076  0.3557
  187SAPI    H121452   4.679  -0.012   6.376  1.2900  2.5076 -1.2454
  187SAPI     P21453   4.488  -0.148   6.516  0.1781 -0.3121  0.4684
  187SAPI   O1321454   4.540  -0.212   6.393 -0.5236 -0.1876 -0.0309
  187SAPI   O1421455   4.341  -0.167   6.532 -0.0805  0.3084 -0.5995
  187SAPI   O1221456   4.513   0.014   6.508 -0.1099  0.3995  0.4932
  187SAPI   O1121457   4.574  -0.191   6.642  0.1936 -0.1286 -0.1165
  187SAPI    C121458   4.594  -0.333   6.669 -0.2864  0.2719 -0.8924
  187SAPI    HA21459   4.500  -0.390   6.680  0.2991 -0.3012  1.6016
  187SAPI    HB21460   4.655  -0.385   6.591 -0.5866 -3.4075  1.0874
  187SAPI    C221461   4.663  -0.346   6.809 -0.2782 -0.0357  0.3178
  187SAPI    HS21462   4.680  -0.454   6.829 -2.1295 -0.7886 -1.7938
  187SAPI   O2121463   4.583  -0.289   6.909 -0.0277 -0.3027  0.1893
  187SAPI   C2121464   4.487  -0.375   6.950 -0.7892  0.2125 -0.0613
  187SAPI   O2221465   4.466  -0.487   6.895 -0.2593 -0.3123  0.2391
  187SAPI   C2221466   4.410  -0.319   7.065 -0.4246  0.3366 -0.4423
  187SAPI   H2R21467   4.480  -0.280   7.141 -0.3257  0.4379 -0.5843
  187SAPI   H2S21468   4.352  -0.233   7.023 -0.6849  0.1353 -0.5001
  187SAPI    C321469   4.803  -0.281   6.803  0.3199  0.7305  0.8715
  187SAPI    HX21470   4.793  -0.175   6.770 -1.1331  0.0744 -0.9417
  187SAPI    HY21471   4.866  -0.339   6.732 -0.3369 -0.5790  1.3283
  187SAPI   O3121472   4.854  -0.283   6.937  0.2344  0.4749  0.5769
  187SAPI   C3121473   4.872  -0.173   6.997 -0.5369 -0.5722  0.2248
  187SAPI   O3221474   4.839  -0.062   6.953 -0.5379 -0.4260  0.3458
  187SAPI   C3221475   4.948  -0.195   7.130 -0.8339 -0.9903  0.5532
  187SAPI   H2X21476   5.004  -0.099   7.135  0.4903 -1.6730 -0.5540
  187SAPI   H2Y21477   5.013  -0.285   7.127 -0.0408 -0.4050 -0.8324
  187SAPI   C2321478   4.302  -0.421   7.119 -0.0225 -0.6220 -0.4848
  187SAPI   H3R21479   4.345  -0.523   7.131  0.5767 -0.2542  0.6306
  187SAPI   H3S21480   4.228  -0.429   7.036 -0.8836  1.8980 -0.0477
  187SAPI   C2421481   4.229  -0.363   7.237  0.5268 -0.0608 -0.4949
  187SAPI   H4R21482   4.147  -0.422   7.283  0.4011 -0.6451 -1.4429
  187SAPI   H4S21483   4.181  -0.268   7.207  1.0234 -0.0207 -1.2007
  187SAPI   C2521484   4.327  -0.335   7.339  0.3649  0.4282 -0.2968
  187SAPI   H5R21485   4.370  -0.424   7.389 -1.9239 -0.9174 -0.5892
  187SAPI   C2621486   4.356  -0.220   7.402  0.0374  0.1195  0.0605
  187SAPI   H6R21487   4.433  -0.230   7.479 -0.3342 -2.2675  0.2015
  187SAPI   C2721488   4.296  -0.087   7.370  0.7725 -0.7028  0.6517
  187SAPI   H7R21489   4.305  -0.029   7.465  0.5426 -1.9596  1.4676
  187SAPI   H7S21490   4.188  -0.088   7.345  0.7710  1.6894  0.3256
  187SAPI   C2821491   4.361  -0.022   7.251  0.1785 -0.4452 -0.2323
  187SAPI   H8R21492   4.312  -0.047   7.156 -0.8292 -0.6576  0.3276
  187SAPI   C2921493   4.461   0.061   7.247  0.1860 -0.0704  0.3318
  187SAPI   H9R21494   4.495   0.095   7.148  0.0510  1.8872  0.9143
  187SAPI  C21021495   4.529   0.132   7.356  0.2382  0.0808  0.5719
  187SAPI  H10R21496   4.497   0.075   7.447  2.0002 -1.2212  0.4219
  187SAPI  H10S21497   4.482   0.232   7.363 -0.9747 -0.3940 -0.3469
  187SAPI  C21121498   4.676   0.146   7.364  0.4525 -0.6326  0.0406
  187SAPI  H11R21499   4.738   0.097   7.287  1.1401  0.2942 -0.0136
  187SAPI  C21221500   4.734   0.200   7.469  0.0493  0.2028 -0.4108
  187SAPI  H12R21501   4.843   0.216   7.472  0.2984 -1.3650 -0.3256
  187SAPI  C21321502   4.664   0.250   7.592  0.4307 -0.0299 -0.5747
  187SAPI  H13R21503   4.690   0.175   7.669  1.3903  1.9994  1.1804
  187SAPI  H13S21504   4.553   0.249   7.594  0.4052  1.3987  1.4358
  187SAPI  C21421505   4.719   0.385   7.643 -0.1107 -0.5377 -0.5886
  187SAPI  H14R21506   4.702   0.473   7.578  0.1120  0.2221  0.3709
  187SAPI  C21521507   4.787   0.400   7.761 -0.3164 -0.0320  0.8372
  187SAPI  H15R21508   4.818   0.500   7.794 -2.9934  1.3894 -0.6301
  187SAPI  C21621509   4.813   0.280   7.849  0.3430 -0.7747 -0.3062
  187SAPI  H16R21510   4.884   0.312   7.928 -2.1369  0.7939  1.4164
  187SAPI  H16S21511   4.857   0.189   7.802 -1.3033 -2.3728  1.1070
  187SAPI  C21721512   4.705   0.226   7.947  0.5240  0.2545  0.9683
  187SAPI  H17R21513   4.636   0.169   7.881 -0.2552  1.3606  0.7928
  187SAPI  H17S21514   4.647   0.310   7.992 -1.1284 -0.0211 -0.5474
  187SAPI  C21821515   4.750   0.136   8.057 -0.5032  0.0890 -0.1092
  187SAPI  H18R21516   4.847   0.166   8.102 -0.5365 -0.3713  0.2757
  187SAPI  H18S21517   4.762   0.033   8.018  1.8409  1.0330 -2.1367
  187SAPI  C21921518   4.645   0.142   8.170  0.5331  0.1613 -0.7473
  187SAPI  H19R21519   4.557   0.094   8.124  0.7508 -0.8204 -0.1679
  187SAPI  H19S21520   4.623   0.249   8.193  0.0107 -0.4456  1.9610
  187SAPI  C22021521   4.685   0.071   8.300  0.6103  0.1331 -0.4671
  187SAPI  H20R21522   4.778   0.010   8.296  0.5665  0.1170 -1.3948
  187SAPI  H20S21523   4.599   0.011   8.337  1.3775  0.9304  2.9953
  187SAPI  H20T21524   4.687   0.154   8.374 -2.0209  3.0127 -3.3188
  187SAPI   C3321525   4.852  -0.210   7.245  0.4690  0.1190 -0.2902
  187SAPI   H3X21526   4.789  -0.299   7.223  0.9283 -1.3238  3.5534
  187SAPI   H3Y21527   4.785  -0.122   7.253  0.6990  0.1425  2.0665
  187SAPI   C3421528   4.908  -0.236   7.378 -0.3271 -0.5191  0.0035
  187SAPI   H4X21529   4.994  -0.168   7.399  0.3658 -0.0978 -3.5204
  187SAPI   H4Y21530   4.944  -0.341   7.385 -2.0576 -1.1640 -0.3977
  187SAPI   C3521531   4.793  -0.218   7.477 -0.4043 -1.0198 -0.1593
  187SAPI   H5X21532   4.704  -0.284   7.464 -2.1775  0.5744  2.8292
  187SAPI   H5Y21533   4.743  -0.120   7.467 -0.1417 -0.7515  1.0198
  187SAPI   C3621534   4.837  -0.226   7.623 -0.3623 -0.8401 -0.3658
  187SAPI   H6X21535   4.899  -0.317   7.638  1.5822  0.5581  0.5428
  187SAPI   H6Y21536   4.746  -0.230   7.687  1.3158  0.1215  2.2607
  187SAPI   C3721537   4.907  -0.097   7.672 -0.3193  0.0450 -0.2990
  187SAPI   H7X21538   4.837  -0.021   7.633  0.6811  1.5950  0.8067
  187SAPI   H7Y21539   5.002  -0.091   7.615  0.2312 -1.1932  0.4394
  187SAPI   C3821540   4.933  -0.098   7.821 -0.9644  0.7076  0.1294
  187SAPI   H8X21541   4.838  -0.122   7.872  0.2361 -0.4729  1.9252
  187SAPI   H8Y21542   4.971   0.001   7.856 -1.2923  0.5471  0.9620
  187SAPI   C3921543   5.038  -0.197   7.863 -0.5567  0.9727 -0.3330
  187SAPI   H9X21544   5.141  -0.175   7.826  0.0868  0.4318  1.0756
  187SAPI   H9Y21545   5.006  -0.288   7.808  1.1257 -0.1620  0.4784
  187SAPI  C31021546   5.041  -0.207   8.014 -0.8210 -0.0409 -0.2239
  187SAPI  H10X21547   4.942  -0.236   8.056  0.3960 -1.5089  1.8334
  187SAPI  H10Y21548   5.055  -0.107   8.062 -1.0954  0.3699 -0.9754
  187SAPI  C31121549   5.138  -0.313   8.060 -0.5019  0.2840  0.1426
  187SAPI  H11X21550   5.213  -0.335   7.982  0.1221 -1.3765  1.1582
  187SAPI  H11Y21551   5.075  -0.403   8.070  0.6500 -0.6386 -0.6831
  187SAPI  C31221552   5.223  -0.290   8.191 -0.1305  0.0740 -0.3897
  187SAPI  H12X21553   5.295  -0.209   8.171  0.5901 -0.4059  0.2038
  187SAPI  H12Y21554   5.276  -0.384   8.219 -2.6402 -0.9608  1.3860
  187SAPI  C31321555   5.126  -0.250   8.303  0.7951 -0.7481 -0.2981
  187SAPI  H13X21556   5.074  -0.155   8.276  2.5764  0.9629  1.9508
  187SAPI  H13Y21557   5.186  -0.230   8.393 -0.8515  0.2843  0.6304
  187SAPI  C31421558   5.031  -0.360   8.351 -0.7686  0.5904 -0.2036
  187SAPI  H14X21559   5.083  -0.454   8.381 -3.2217 -0.7373  0.1679
  187SAPI  H14Y21560   4.969  -0.387   8.263  1.3573 -0.1999 -1.5163
  187SAPI  C31521561   4.954  -0.312   8.471  0.2915 -0.6232 -0.1803
  187SAPI  H15X21562   4.880  -0.237   8.435 -0.0525 -1.2656 -0.8494
  187SAPI  H15Y21563   5.022  -0.271   8.549 -1.0195  0.1509  0.6032
  187SAPI  C31621564   4.871  -0.434   8.534  0.9271  0.0782  0.1868
  187SAPI  H16X21565   4.944  -0.504   8.580  1.1146 -0.5482 -1.0257
  187SAPI  H16Y21566   4.810  -0.486   8.457  0.7239  1.1910 -0.4183
  187SAPI  C31721567   4.781  -0.391   8.650  0.0289 -0.4756  0.3676
  187SAPI  H17X21568   4.718  -0.304   8.620  0.7058 -0.0129  0.2588
  187SAPI  H17Y21569   4.839  -0.350   8.736 -0.1184  0.7990 -0.1054
  187SAPI  C31821570   4.677  -0.503   8.688 -0.6564 -0.3550 -0.5531
  187SAPI  H18X21571   4.635  -0.483   8.789  2.6379 -2.2767  1.3718
  187SAPI  H18Y21572   4.732  -0.598   8.703  1.2346  0.6475 -0.8438
  187SAPI  H18Z21573   4.604  -0.511   8.604 -0.0663  0.3194 -1.1472
  188SAPI   C1221574   0.841   3.930   6.642 -0.2148 -0.3986  0.2542
  188SAPI    H221575   0.774   3.843   6.652 -1.5368  0.4036 -1.1243
  188SAPI    O221576   0.802   4.020   6.745 -0.0747 -0.2695 -0.3718
  188SAPI   HO221577   0.707   4.026   6.737 -0.3596  0.3323  2.3179
  188SAPI   C1321578   0.993   3.892   6.653 -0.0618 -0.3655 -0.6248
  188SAPI    H321579   1.002   3.817   6.571 -3.2340 -1.2167 -0.3539
  188SAPI    O321580   1.025   3.828   6.774 -0.0845 -0.4231  0.0309
  188SAPI   HO321581   1.006   3.898   6.837  1.0648 -0.7210  0.7438
  188SAPI   C1421582   1.076   4.020   6.630 -0.1545 -0.5462  0.2684
  188SAPI    H421583   1.055   4.089   6.715 -0.7915  2.6857 -2.3195
  188SAPI    O421584   1.212   3.986   6.643 -0.3282 -0.0793 -0.3168
  188SAPI   HO421585   1.236   3.917   6.581  0.6083  0.3614 -0.4663
  188SAPI   C1521586   1.047   4.093   6.502  0.4926 -1.0113 -0.2806
  188SAPI    H521587   1.067   4.031   6.411 -0.6705  0.4823 -1.6085
  188SAPI    O521588   1.128   4.210   6.485  0.4296 -0.3384 -0.6566
  188SAPI   HO521589   1.096   4.272   6.551  0.2887 -0.9483 -0.1513
  188SAPI   C1621590   0.897   4.122   6.491  0.7822 -0.3162  0.2592
  188SAPI    H621591   0.863   4.189   6.573  2.4092  0.7389  0.1006
  188SAPI    O621592   0.873   4.190   6.369 -0.2594 -0.0426  0.7558
  188SAPI   HO621593   0.790   4.237   6.373 -0.1376  0.4499 -1.3924
  188SAPI   C1121594   0.815   3.990   6.504 -0.5313 -0.6467  0.1960
  188SAPI    H121595   0.855   3.918   6.430 -2.5814 -1.4604 -0.1903
  188SAPI     P21596   0.585   3.890   6.426  0.5065  0.5844 -0.6078
  188SAPI   O1321597   0.667   3.785   6.358  0.3653  0.1188 -0.1187
  188SAPI   O1421598   0.477   3.944   6.353 -0.1564 -0.2887  0.4171
  188SAPI   O1221599   0.684   4.011   6.477 -0.0718 -0.0018 -0.6106
  188SAPI   O1121600   0.540   3.825   6.561 -0.0583  0.4225 -0.3711
  188SAPI    C121601   0.416   3.864   6.627 -0.1728  0.1700 -0.3090
  188SAPI    HA21602   0.357   3.935   6.566  1.2628  1.4865 -0.2312
  188SAPI    HB21603   0.355   3.776   6.657  1.4784 -0.6174  0.8880
  188SAPI    C221604   0.448   3.933   6.759 -0.1812 -0.3887  0.0469
  188SAPI    HS21605   0.353   3.956   6.811 -0.4287  0.5383 -0.7947
  188SAPI   O2121606   0.519   4.059   6.736 -0.2760  0.1732 -0.2644
  188SAPI   C2121607   0.435   4.157   6.690  0.4393  0.7833 -1.0495
  188SAPI   O2221608   0.315   4.137   6.679 -0.3990 -0.5245  0.1082
  188SAPI   C2221609   0.520   4.280   6.666  0.0444 -0.5345  0.1920
  188SAPI   H2R21610   0.608   4.247   6.607 -0.1427  1.6514 -1.4207
  188SAPI   H2S21611   0.456   4.349   6.608 -0.4713 -0.1134  1.2276
  188SAPI    C321612   0.538   3.851   6.857  0.0428  0.6913 -0.2129
  188SAPI    HX21613   0.636   3.831   6.808 -0.2947 -2.3159  0.1457
  188SAPI    HY21614   0.491   3.751   6.865  2.2781 -0.6948 -2.6121
  188SAPI   O3121615   0.562   3.914   6.984  0.1176 -0.0689 -0.1124
  188SAPI   C3121616   0.458   3.939   7.067 -0.5920  0.1945  0.0611
  188SAPI   O3221617   0.344   3.902   7.054  0.3562  0.0741 -0.1415
  188SAPI   C3221618   0.522   3.991   7.204 -0.1189 -0.5218  0.4179
  188SAPI   H2X21619   0.570   4.089   7.185 -0.1603 -0.1665  2.0429
  188SAPI   H2Y21620   0.605   3.924   7.235  0.8172 -0.5738 -1.9790
  188SAPI   C2321621   0.562   4.346   6.799  0.2742 -0.5155  0.3736
  188SAPI   H3R21622   0.631   4.432   6.788 -1.9727  1.2827 -0.4885
  188SAPI   H3S21623   0.605   4.261   6.858  0.3354  0.3177  1.5776
  188SAPI   C2421624   0.431   4.390   6.872 -0.2288  0.2124 -0.0420
  188SAPI   H4R21625   0.397   4.299   6.927  1.8501 -1.2047 -0.9699
  188SAPI   H4S21626   0.347   4.408   6.801 -0.3633  0.7935  0.2576
  188SAPI   C2521627   0.436   4.511   6.969 -0.3132 -0.4538  0.3465
  188SAPI   H5R21628   0.377   4.596   6.933 -0.9021 -0.5235  1.1224
  188SAPI   C2621629   0.468   4.502   7.099 -0.2520 -0.0950  0.2950
  188SAPI   H6R21630   0.463   4.594   7.159 -2.1092 -0.1029  0.2079
  188SAPI   C2721631   0.518   4.379   7.167  0.2260  0.3817  0.2014
  188SAPI   H7R21632   0.623   4.391   7.200  1.2454  0.0518 -2.6401
  188SAPI   H7S21633   0.545   4.292   7.103  0.9838 -1.1653  2.4826
  188SAPI   C2821634   0.409   4.337   7.257 -0.1607  0.2800 -0.1300
  188SAPI   H8R21635   0.330   4.278   7.210 -2.0873  1.5085  1.4083
  188SAPI   C2921636   0.395   4.372   7.389  0.5976  0.1003  0.5837
  188SAPI   H9R21637   0.309   4.338   7.448  0.1073 -0.6684 -0.5528
  188SAPI  C21021638   0.499   4.458   7.460  0.2436 -0.2288  0.3652
  188SAPI  H10R21639   0.590   4.479   7.400  0.9488 -1.1345  1.0918
  188SAPI  H10S21640   0.531   4.395   7.546  1.8756  1.1747  0.8633
  188SAPI  C21121641   0.430   4.590   7.505  0.1615 -0.4761  0.1629
  188SAPI  H11R21642   0.367   4.643   7.431  2.7580  0.2594 -1.6409
  188SAPI  C21221643   0.415   4.635   7.628 -0.2515 -0.4944 -0.0868
  188SAPI  H12R21644   0.360   4.729   7.644 -0.6237 -0.6058 -0.6740
  188SAPI  C21321645   0.465   4.567   7.755 -0.1466 -0.2143  0.0816
  188SAPI  H13R21646   0.473   4.458   7.732 -3.1335 -0.5079  0.0345
  188SAPI  H13S21647   0.383   4.574   7.830 -1.3938 -1.3220 -1.1191
  188SAPI  C21421648   0.590   4.635   7.818 -0.2184 -0.2930 -0.0871
  188SAPI  H14R21649   0.670   4.651   7.744  0.0473 -2.3131 -0.3067
  188SAPI  C21521650   0.611   4.650   7.949  0.0065 -0.7060  0.0890
  188SAPI  H15R21651   0.713   4.676   7.979  0.7295 -1.3270 -1.6723
  188SAPI  C21621652   0.519   4.621   8.067  0.3308 -0.6239 -0.0222
  188SAPI  H16R21653   0.413   4.610   8.037 -0.0255  2.2097 -0.0960
  188SAPI  H16S21654   0.514   4.698   8.146  0.3748  0.8827 -1.4412
  188SAPI  C21721655   0.550   4.497   8.159 -0.3785 -0.4721 -0.6809
  188SAPI  H17R21656   0.608   4.526   8.249 -0.5365 -1.9135 -0.0888
  188SAPI  H17S21657   0.601   4.422   8.096  0.2602 -0.8558  0.2733
  188SAPI  C21821658   0.423   4.435   8.213 -0.0133  0.1474  0.0732
  188SAPI  H18R21659   0.368   4.404   8.121  0.7315  0.5634 -0.5218
  188SAPI  H18S21660   0.358   4.511   8.260  0.7267  1.4310 -0.9214
  188SAPI  C21921661   0.458   4.315   8.296  0.6159  0.1256 -0.4748
  188SAPI  H19R21662   0.513   4.350   8.386 -0.8462  1.9178 -0.2274
  188SAPI  H19S21663   0.526   4.245   8.243  0.5580 -0.6555  0.4438
  188SAPI  C22021664   0.342   4.223   8.336  0.5409 -0.0938 -0.3013
  188SAPI  H20R21665   0.262   4.282   8.387  1.5397  1.1473 -0.1218
  188SAPI  H20S21666   0.386   4.140   8.395 -0.7260  0.2498  1.2270
  188SAPI  H20T21667   0.306   4.178   8.242  3.2283  0.1816 -1.5348
  188SAPI   C3321668   0.426   3.994   7.324 -0.6523  0.6812 -0.2731
  188SAPI   H3X21669   0.390   3.892   7.349  1.4528 -0.1174 -0.3374
  188SAPI   H3Y21670   0.344   4.069   7.316  3.2271  5.4605  0.0333
  188SAPI   C3421671   0.509   4.042   7.441  0.2513 -0.7942  0.6224
  188SAPI   H4X21672   0.559   4.134   7.405  1.4313 -2.1445 -1.4172
  188SAPI   H4Y21673   0.597   3.976   7.458 -0.7538 -2.6927 -1.0644
  188SAPI   C3521674   0.442   4.047   7.573 -0.2799  0.2488 -0.2948
  188SAPI   H5X21675   0.407   3.948   7.609  3.1375 -0.2663  2.0308
  188SAPI   H5Y21676   0.346   4.101   7.559 -2.6080 -3.3452  0.4484
  188SAPI   C3621677   0.527   4.117   7.681  0.1960  0.1393 -0.1436
  188SAPI   H6X21678   0.551   4.222   7.654 -0.2313  0.3257  0.1890
  188SAPI   H6Y21679   0.618   4.054   7.693  0.5982  0.9130  1.0888
  188SAPI   C3721680   0.458   4.112   7.820 -0.7221  0.2295  0.5052
  188SAPI   H7X21681   0.435   4.006   7.840  0.2311 -0.3072 -1.0346
  188SAPI   H7Y21682   0.358   4.161   7.809 -0.1864  1.4735  0.9603
  188SAPI   C3821683   0.539   4.181   7.924  0.2845 -0.1991 -0.7123
  188SAPI   H8X21684   0.464   4.198   8.005 -0.6458 -2.6456 -0.9821
  188SAPI   H8Y21685   0.581   4.278   7.891 -1.2316 -0.0472 -2.3442
  188SAPI   C3921686   0.657   4.107   7.980 -0.2995 -0.2957  0.2435
  188SAPI   H9X21687   0.701   4.188   8.042  2.5911 -1.2349 -0.4064
  188SAPI   H9Y21688   0.715   4.075   7.891 -0.6898 -2.0201  0.5734
  188SAPI  C31021689   0.627   3.973   8.048 -0.5700 -1.2479  0.5422
  188SAPI  H10X21690   0.566   3.907   7.983 -0.5277 -0.3871 -0.4100
  188SAPI  H10Y21691   0.577   3.990   8.146  1.4023 -1.4129  1.6193
  188SAPI  C31121692   0.754   3.895   8.074  0.2503  0.7736  0.1753
  188SAPI  H11X21693   0.793   3.863   7.975 -1.3959  0.7088 -0.4888
  188SAPI  H11Y21694   0.728   3.800   8.125 -0.2842  1.2864  0.8828
  188SAPI  C31221695   0.862   3.976   8.149  1.0672  0.4162 -0.1881
  188SAPI  H12X21696   0.820   4.028   8.238  2.1947  0.7264  0.1782
  188SAPI  H12Y21697   0.907   4.047   8.077 -0.0505  0.6334 -0.7003
  188SAPI  C31321698   0.963   3.879   8.196 -0.1555  0.3269  0.1122
  188SAPI  H13X21699   1.065   3.923   8.199  0.9670 -2.0995  0.3378
  188SAPI  H13Y21700   0.960   3.799   8.119  1.8449  1.3122 -1.0549
  188SAPI  C31421701   0.933   3.814   8.328 -0.1669  0.1746  0.5332
  188SAPI  H14X21702   0.837   3.759   8.316  0.7491 -1.2380 -0.5605
  188SAPI  H14Y21703   0.911   3.896   8.401 -3.8753  0.7498 -0.9893
  188SAPI  C31521704   1.039   3.724   8.380 -0.4374 -0.3295  0.4740
  188SAPI  H15X21705   1.132   3.775   8.347 -0.4850 -0.7035 -0.2636
  188SAPI  H15Y21706   1.033   3.631   8.319 -0.5811  0.3111 -0.5132
  188SAPI  C31621707   1.032   3.690   8.535  0.6818  0.4428  0.4737
  188SAPI  H16X21708   1.088   3.596   8.557  2.7624  1.4780 -0.0816
  188SAPI  H16Y21709   0.927   3.672   8.567 -0.6037  3.6299 -1.5346
  188SAPI  C31721710   1.084   3.797   8.625 -0.7423  0.4917 -0.2020
  188SAPI  H17X21711   1.040   3.898   8.622 -0.0602  0.7804 -1.2840
  188SAPI  H17Y21712   1.190   3.813   8.596 -0.5527 -2.9231 -1.9963
  188SAPI  C31821713   1.078   3.751   8.771  0.6458 -0.0406  0.0107
  188SAPI  H18X21714   0.971   3.725   8.785  1.2201 -2.5283  0.2751
  188SAPI  H18Y21715   1.102   3.832   8.843  0.3839 -0.6020  0.7310
  188SAPI  H18Z21716   1.130   3.655   8.790  2.6078  0.9217 -0.2627
  189POPC     N21717   5.834   5.170  11.390 -0.3775  1.0853  0.1237
  189POPC   C1221718   5.878   5.125  11.258  0.0309  0.7017 -0.3053
  189POPC  H12A21719   5.855   5.206  11.191  1.0582  0.4096 -1.0420
  189POPC  H12B21720   5.811   5.045  11.231  0.6642  0.0082  0.1027
  189POPC   C1321721   5.917   5.284  11.438  0.2602  0.2177 -0.1439
  189POPC  H13A21722   6.021   5.253  11.434  0.5725  0.7821  1.8877
  189POPC  H13B21723   5.895   5.374  11.383 -2.6217  0.9183  1.9236
  189POPC  H13C21724   5.898   5.301  11.543 -0.2460 -0.4801 -0.1233
  189POPC   C1421725   5.692   5.211  11.383 -0.0324  0.8013 -0.8306
  189POPC  H14A21726   5.678   5.285  11.305 -2.2351 -0.7820 -2.0702
  189POPC  H14B21727   5.626   5.129  11.359 -2.5455  2.3446  0.4216
  189POPC  H14C21728   5.660   5.261  11.473 -0.1433 -0.7640  0.0267
  189POPC   C1521729   5.856   5.057  11.487  0.7248 -0.6369 -0.1329
  189POPC  H15A21730   5.772   4.990  11.489  1.0841 -1.1130  2.1780
  189POPC  H15B21731   5.856   5.089  11.590  3.0468 -3.0982  0.7585
  189POPC  H15C21732   5.942   4.999  11.457 -0.5335 -2.2830 -0.7104
  189POPC   C1121733   6.022   5.075  11.233  0.0296  0.0007  0.0220
  189POPC  H11A21734   6.031   5.027  11.133  0.0798 -0.7329  0.3663
  189POPC  H11B21735   6.039   4.999  11.312  0.9216  0.7745  0.5959
  189POPC     P21736   6.114   5.300  11.145  0.0717 -0.0990 -0.0009
  189POPC   O1321737   6.248   5.367  11.149  0.3821  0.2433  0.6220
  189POPC   O1421738   5.991   5.378  11.157 -1.0698 -0.1712 -0.1829
  189POPC   O1221739   6.114   5.183  11.248 -0.3042 -0.1727 -0.5584
  189POPC   O1121740   6.101   5.218  11.012 -0.1003  0.6557  0.3941
  189POPC    C121741   6.195   5.138  10.956 -0.0839  0.5492 -0.2456
  189POPC    HA21742   6.160   5.033  10.945  1.1932  0.1231 -0.4526
  189POPC    HB21743   6.295   5.146  11.004 -0.5170  0.5072  0.6874
  189POPC    C221744   6.211   5.200  10.815  0.6104 -0.3919  0.0224
  189POPC    HS21745   6.229   5.308  10.834  0.6182 -0.9624  3.8840
  189POPC   O2121746   6.080   5.167  10.754  0.1954 -0.0586 -0.2116
  189POPC   C2121747   6.041   5.265  10.678  0.2591  0.5572  0.2164
  189POPC   O2221748   6.087   5.375  10.654  0.5910  0.2518 -0.3888
  189POPC   C2221749   5.918   5.206  10.602 -0.4917 -0.5911  0.0639
  189POPC   H2R21750   5.825   5.199  10.662 -2.7080  2.6496 -2.5712
  189POPC   H2S21751   5.948   5.102  10.578 -1.2408 -0.3078 -2.5120
  189POPC    C321752   6.323   5.141  10.726 -0.2859 -0.1615 -0.4550
  189POPC    HX21753   6.313   5.031  10.725  0.1314 -0.2465  1.1356
  189POPC    HY21754   6.422   5.162  10.772 -1.0648  0.6342  0.9525
  189POPC   O3121755   6.319   5.194  10.589 -0.2766 -0.3103 -0.0995
  189POPC   C3121756   6.304   5.112  10.488 -1.0456 -0.1947 -0.1055
  189POPC   O3221757   6.313   4.993  10.499 -0.1612 -0.9102 -0.2947
  189POPC   C3221758   6.284   5.187  10.364  0.6898 -0.4677  1.0026
  189POPC   H2X21759   6.381   5.221  10.323  1.0773  0.2935  2.4793
  189POPC   H2Y21760   6.224   5.278  10.388  0.4189 -0.2907 -0.2231
  189POPC   C2321761   5.880   5.281  10.468  0.1091 -0.1901 -0.2582
  189POPC   H3R21762   5.975   5.311  10.419  1.2047 -1.9644  0.6928
  189POPC   H3S21763   5.817   5.368  10.495  0.0895 -0.3720  0.2791
  189POPC   C2421764   5.802   5.186  10.376  1.1591 -0.3435  0.4777
  189POPC   H4R21765   5.709   5.151  10.427  0.2002  1.5519  0.1235
  189POPC   H4S21766   5.851   5.096  10.333  1.4557 -0.5322  1.1887
  189POPC   C2521767   5.758   5.264  10.253 -0.1978 -0.0578  1.0029
  189POPC   H5R21768   5.850   5.302  10.204 -1.1577  0.9880 -0.0528
  189POPC   H5S21769   5.689   5.348  10.276 -2.4879  0.0183 -4.5056
  189POPC   C2621770   5.689   5.166  10.158 -0.1696  0.5479 -0.2326
  189POPC   H6R21771   5.629   5.097  10.221 -1.6174  0.3305 -1.7722
  189POPC   H6S21772   5.772   5.105  10.118 -0.1838  0.0859  0.4218
  189POPC   C2721773   5.626   5.244  10.047  0.0941  0.1734  0.1266
  189POPC   H7R21774   5.718   5.282   9.998  0.1618  1.0863  0.9340
  189POPC   H7S21775   5.584   5.337  10.090  0.4149  0.3424  0.0767
  189POPC   C2821776   5.525   5.167   9.961 -1.2917 -0.3879  0.1455
  189POPC   H8R21777   5.468   5.251   9.915  0.5950  0.8633 -0.0368
  189POPC   H8S21778   5.450   5.102  10.011 -0.7830 -0.7842  0.3889
  189POPC   C2921779   5.594   5.087   9.857  0.2583  0.0180  1.2744
  189POPC   H9121780   5.654   5.002   9.894 -1.1499 -0.9726  1.3729
  189POPC  C21021781   5.582   5.092   9.722  0.1473 -0.1418  0.3755
  189POPC  H10121782   5.641   5.023   9.660 -1.1598 -1.5594  0.6232
  189POPC  C21121783   5.489   5.186   9.647  0.0212 -0.6797  0.1783
  189POPC  H11R21784   5.555   5.245   9.580 -0.7745 -0.3891 -0.3709
  189POPC  H11S21785   5.433   5.264   9.703  3.5942  0.9114  1.7949
  189POPC  C21221786   5.378   5.114   9.567 -0.1794  0.2919 -0.2096
  189POPC  H12R21787   5.303   5.193   9.546 -1.2635  0.0669  2.4908
  189POPC  H12S21788   5.338   5.042   9.641 -1.4171  1.4832  0.3150
  189POPC  C21321789   5.428   5.035   9.445 -0.3604 -0.0286 -0.1039
  189POPC  H13R21790   5.504   4.958   9.471 -1.6449 -1.2994 -0.0200
  189POPC  H13S21791   5.477   5.110   9.379  1.0159 -0.7046  0.1099
  189POPC  C21421792   5.310   4.975   9.374  0.3461  0.1677  0.0720
  189POPC  H14R21793   5.226   5.048   9.373 -0.6766 -0.9781  0.9272
  189POPC  H14S21794   5.281   4.885   9.432  0.1390 -0.8901 -1.6044
  189POPC  C21521795   5.340   4.926   9.235  0.6021 -0.5959  0.1941
  189POPC  H15R21796   5.361   4.817   9.242  1.5319 -0.3609  1.4032
  189POPC  H15S21797   5.430   4.985   9.206 -0.2934  1.2710  1.0175
  189POPC  C21621798   5.222   4.969   9.146  0.5075  0.2074 -0.5857
  189POPC  H16R21799   5.223   5.077   9.119  1.5356  0.3399 -0.0726
  189POPC  H16S21800   5.119   4.958   9.187  0.0786  3.2067 -0.5609
  189POPC  C21721801   5.232   4.897   9.010  0.0790  0.1847 -0.0625
  189POPC  H17R21802   5.146   4.942   8.957 -0.6184 -0.0787  0.8202
  189POPC  H17S21803   5.208   4.789   9.021  0.7778 -0.1404 -1.5433
  189POPC  C21821804   5.365   4.906   8.928  0.3090 -0.7853  0.1151
  189POPC  H18R21805   5.450   4.859   8.983  0.5642 -1.0301 -0.4755
  189POPC  H18S21806   5.392   5.011   8.908 -0.7630 -0.5750 -0.2936
  189POPC  H18T21807   5.352   4.857   8.829  0.3992 -0.3160 -0.1320
  189POPC   C3321808   6.207   5.107  10.251 -0.9103 -0.0034  0.8535
  189POPC   H3X21809   6.105   5.078  10.282 -0.4560 -2.0975  0.5442
  189POPC   H3Y21810   6.260   5.011  10.232  1.1732  0.7644  2.3448
  189POPC   C3421811   6.187   5.185  10.119  0.5294  0.0907  0.3582
  189POPC   H4X21812   6.278   5.224  10.070 -1.0046  1.6125 -1.4363
  189POPC   H4Y21813   6.138   5.280  10.148 -0.4502 -0.3741  0.2750
  189POPC   C3521814   6.110   5.101  10.007 -0.5753 -0.3697  0.0151
  189POPC   H5X21815   6.007   5.084  10.044 -0.5696  1.0024  0.6999
  189POPC   H5Y21816   6.151   4.999   9.989 -1.4870 -0.7215 -0.0793
  189POPC   C3621817   6.106   5.170   9.872  1.0657 -0.0676  0.8533
  189POPC   H6X21818   6.209   5.175   9.829  0.1670 -1.0876 -1.5481
  189POPC   H6Y21819   6.081   5.278   9.883  1.4657  0.1770 -0.5263
  189POPC   C3721820   6.020   5.093   9.765 -0.4871 -1.0462 -0.5243
  189POPC   H7X21821   5.921   5.089   9.817 -0.4273  1.3710 -0.1225
  189POPC   H7Y21822   6.056   4.988   9.755  3.4440  0.2335 -1.7000
  189POPC   C3821823   6.022   5.180   9.640  0.4904 -0.2662 -0.4041
  189POPC   H8X21824   6.120   5.188   9.590  0.8901 -0.8036  0.2827
  189POPC   H8Y21825   5.982   5.280   9.665 -0.9253 -1.1283  0.9627
  189POPC   C3921826   5.920   5.126   9.539 -0.0359  0.4259 -0.0453
  189POPC   H9X21827   5.816   5.124   9.579 -0.8248 -0.2193 -2.0240
  189POPC   H9Y21828   5.945   5.022   9.510  1.1002  0.5820  0.3129
  189POPC  C31021829   5.913   5.205   9.409  0.2634 -0.5249 -0.0718
  189POPC  H10X21830   5.861   5.158   9.323  0.3415  1.1236 -1.0760
  189POPC  H10Y21831   6.018   5.209   9.372 -0.5794  0.6699 -2.5161
  189POPC  C31121832   5.856   5.347   9.414 -0.5171 -0.3455 -0.2142
  189POPC  H11X21833   5.875   5.372   9.521  2.0064 -1.3417 -0.3513
  189POPC  H11Y21834   5.746   5.351   9.402 -0.7848  2.4280  2.0219
  189POPC  C31221835   5.928   5.457   9.333  0.1091 -0.0082 -0.3003
  189POPC  H12X21836   6.038   5.438   9.331 -0.1074 -1.4286 -0.0667
  189POPC  H12Y21837   5.912   5.559   9.373 -1.2130  0.0615 -0.9440
  189POPC  C31321838   5.886   5.455   9.188 -0.2500 -0.1634  0.3892
  189POPC  H13X21839   5.903   5.553   9.137  0.1511 -0.3891  0.0890
  189POPC  H13Y21840   5.774   5.458   9.188 -0.3109 -1.0511  2.6019
  189POPC  C31421841   5.952   5.345   9.100 -0.9410 -0.5664 -0.1633
  189POPC  H14X21842   5.898   5.248   9.110 -1.0873 -0.4642  0.0246
  189POPC  H14Y21843   6.053   5.323   9.140 -1.1572 -0.0748  0.6647
  189POPC  C31521844   5.963   5.383   8.949  0.6942  0.0852 -0.1316
  189POPC  H15X21845   6.036   5.318   8.897  0.5996 -0.6507  0.6395
  189POPC  H15Y21846   5.994   5.490   8.952  0.7797  0.0952  3.3680
  189POPC  C31621847   5.833   5.383   8.864  1.0685 -0.0577 -0.3293
  189POPC  H16X21848   5.863   5.406   8.760  3.0913  1.2491  0.4840
  189POPC  H16Y21849   5.758   5.458   8.897  0.5418 -0.7624  0.1184
  189POPC  H16Z21850   5.792   5.279   8.859 -1.6939  1.0218 -3.5874
  190POPC     N21851   1.507   1.977  11.205  0.8683 -0.6716 -0.3558
  190POPC   C1221852   1.476   2.109  11.137  0.0068 -0.3383 -0.0823
  190POPC  H12A21853   1.572   2.146  11.104  1.1863 -2.5897  0.6017
  190POPC  H12B21854   1.434   2.184  11.202  0.1057  0.0362 -0.4439
  190POPC   C1321855   1.388   1.896  11.233  0.0486  0.4206 -0.2107
  190POPC  H13A21856   1.326   1.946  11.306  1.6356  1.1973  0.6498
  190POPC  H13B21857   1.325   1.888  11.145  0.1249 -0.9425 -0.1608
  190POPC  H13C21858   1.426   1.799  11.261  1.9162  1.5657  1.5478
  190POPC   C1421859   1.596   1.889  11.128 -0.4857  0.1532  0.3166
  190POPC  H14A21860   1.623   1.807  11.192  0.8645  1.1637  1.1120
  190POPC  H14B21861   1.545   1.849  11.042  0.7901  0.2993 -0.5362
  190POPC  H14C21862   1.681   1.942  11.087  0.2142 -0.7350  0.5959
  190POPC   C1521863   1.565   2.004  11.342  0.5812 -0.4068 -0.0440
  190POPC  H15A21864   1.601   1.911  11.382  0.8335 -0.2472  0.1015
  190POPC  H15B21865   1.494   2.036  11.417  2.3627 -0.3402  1.6999
  190POPC  H15C21866   1.633   2.087  11.348 -2.0519  1.9343 -0.3399
  190POPC   C1121867   1.373   2.097  11.015 -0.1616  0.3724  0.1458
  190POPC  H11A21868   1.408   2.026  10.937  0.7656  1.0166 -0.0475
  190POPC  H11B21869   1.364   2.195  10.964 -0.5297  0.0277 -0.4647
  190POPC     P21870   1.149   2.164  11.139  0.1028 -0.0244  0.0629
  190POPC   O1321871   1.224   2.243  11.243  0.3099  1.0218 -0.0881
  190POPC   O1421872   1.036   2.087  11.199  0.6637 -0.3730  0.1362
  190POPC   O1221873   1.239   2.065  11.051 -0.5820  0.1333 -0.4870
  190POPC   O1121874   1.084   2.264  11.025 -0.2587 -0.1610 -0.3306
  190POPC    C121875   1.008   2.212  10.915 -0.0352 -0.0959 -0.2571
  190POPC    HA21876   0.920   2.277  10.899 -0.5721 -1.3813 -3.0654
  190POPC    HB21877   0.973   2.108  10.936  0.1035 -0.0905  0.0083
  190POPC    C221878   1.099   2.190  10.790 -0.1071  0.0105  0.0280
  190POPC    HS21879   1.198   2.146  10.812  0.9508  1.0203 -2.4187
  190POPC   O2121880   1.121   2.327  10.744  0.6607 -0.0018 -0.4386
  190POPC   C2121881   1.223   2.350  10.667 -0.2201  0.6796 -0.6135
  190POPC   O2221882   1.305   2.267  10.623  0.0458  0.0875 -0.6500
  190POPC   C2221883   1.210   2.487  10.624  0.0636 -0.2939 -0.4776
  190POPC   H2R21884   1.297   2.506  10.558  0.6050  2.1361  0.7983
  190POPC   H2S21885   1.206   2.559  10.708 -0.2828 -0.5724 -0.2525
  190POPC    C321886   1.021   2.115  10.679 -0.0237  0.5561 -0.1835
  190POPC    HX21887   0.933   2.181  10.660 -2.0717 -1.7990  0.7108
  190POPC    HY21888   0.961   2.033  10.723 -1.5170  2.7144  2.0864
  190POPC   O3121889   1.086   2.090  10.556 -0.6773 -0.0259  0.2909
  190POPC   C3121890   1.184   2.005  10.570 -0.7570 -0.0056  0.3338
  190POPC   O3221891   1.190   1.921  10.662 -0.0275  0.2477 -0.0691
  190POPC   C3221892   1.279   1.998  10.446 -0.2761 -0.0778  0.4134
  190POPC   H2X21893   1.333   1.902  10.437 -0.1890  0.1011 -1.2132
  190POPC   H2Y21894   1.347   2.085  10.458  0.5071 -0.5550 -0.4465
  190POPC   C2321895   1.071   2.496  10.542 -0.2869  0.5946  0.3048
  190POPC   H3R21896   1.032   2.597  10.567 -0.8625  0.0814  1.5594
  190POPC   H3S21897   0.986   2.435  10.579 -0.9756  0.6783 -1.0829
  190POPC   C2421898   1.079   2.466  10.390  0.5070  0.7854  0.1109
  190POPC   H4R21899   1.119   2.363  10.379  0.0552  0.7276 -1.1464
  190POPC   H4S21900   1.149   2.529  10.330 -0.0454  0.3321 -1.0385
  190POPC   C2521901   0.942   2.473  10.330 -0.2060 -0.1234  0.0538
  190POPC   H5R21902   0.916   2.581  10.328 -1.6330 -0.4326  0.6695
  190POPC   H5S21903   0.859   2.424  10.385  1.7265 -2.0485  1.4125
  190POPC   C2621904   0.926   2.403  10.195  0.5721 -0.5681 -0.1320
  190POPC   H6R21905   0.820   2.418  10.166  0.1353 -1.3541  0.9827
  190POPC   H6S21906   0.943   2.295  10.216  0.2599 -0.6366 -0.2378
  190POPC   C2721907   1.024   2.463  10.091  0.1521  0.0791 -0.4814
  190POPC   H7R21908   1.130   2.459  10.123  0.7628 -2.2467 -2.5048
  190POPC   H7S21909   0.987   2.566  10.076  0.9670  0.5287  0.5192
  190POPC   C2821910   1.012   2.382   9.969  0.6255  0.2607 -0.4303
  190POPC   H8R21911   0.904   2.374   9.941  0.5864 -1.6261  0.1138
  190POPC   H8S21912   1.046   2.278   9.988 -1.4022 -0.1661  1.3494
  190POPC   C2921913   1.098   2.434   9.863  0.6801 -0.6041  0.6050
  190POPC   H9121914   1.185   2.492   9.896 -0.3531  0.9716  0.6796
  190POPC  C21021915   1.064   2.421   9.731 -0.2746  0.1030  0.1171
  190POPC  H10121916   1.138   2.465   9.664  1.2590 -0.4532  1.3760
  190POPC  C21121917   0.953   2.352   9.659  0.4845 -0.1586  0.4767
  190POPC  H11R21918   0.921   2.265   9.720 -0.4585  1.0707  1.8048
  190POPC  H11S21919   1.002   2.305   9.571 -1.8519 -0.4803 -0.7207
  190POPC  C21221920   0.841   2.453   9.607  0.1396 -0.1698 -0.2208
  190POPC  H12R21921   0.886   2.552   9.584  0.1223 -0.4566 -1.5785
  190POPC  H12S21922   0.773   2.450   9.695 -0.0353  0.9675 -0.3108
  190POPC  C21321923   0.753   2.408   9.491 -0.3766  0.5394  0.3045
  190POPC  H13R21924   0.657   2.464   9.480 -0.7841 -0.4755 -1.9682
  190POPC  H13S21925   0.714   2.307   9.518 -0.7065  0.3358 -0.8778
  190POPC  C21421926   0.830   2.391   9.352 -0.1916 -0.9005  0.4364
  190POPC  H14R21927   0.917   2.327   9.379  0.2390 -0.4939  0.0310
  190POPC  H14S21928   0.871   2.486   9.312 -0.0554 -2.2292 -2.8529
  190POPC  C21521929   0.752   2.311   9.247  0.2308  0.0449  0.1058
  190POPC  H15R21930   0.663   2.372   9.219  1.3716  1.6370 -0.2379
  190POPC  H15S21931   0.729   2.212   9.290 -0.3639  0.7425  1.4560
  190POPC  C21621932   0.846   2.287   9.127  0.0079  0.2429 -0.0349
  190POPC  H16R21933   0.936   2.239   9.171 -0.9308 -1.2792  0.3236
  190POPC  H16S21934   0.884   2.380   9.082 -0.5052  0.2685 -0.4248
  190POPC  C21721935   0.781   2.202   9.015  0.1021  0.3489  0.3726
  190POPC  H17R21936   0.727   2.132   9.083  0.6180  0.4060  0.8532
  190POPC  H17S21937   0.866   2.161   8.958  1.6409  3.4958  0.1867
  190POPC  C21821938   0.688   2.283   8.930  0.1445  0.3527 -0.7574
  190POPC  H18R21939   0.727   2.384   8.908  2.3682 -0.1730  0.4745
  190POPC  H18S21940   0.594   2.284   8.990  0.0562  2.6403 -0.8543
  190POPC  H18T21941   0.680   2.232   8.832  0.5225  2.0685 -1.7006
  190POPC   C3321942   1.189   2.027  10.319  0.0283  0.0475  0.9250
  190POPC   H3X21943   1.187   2.138  10.316  1.8101  0.1302 -2.8533
  190POPC   H3Y21944   1.088   1.981  10.319 -1.0013  2.0003 -1.9237
  190POPC   C3421945   1.271   1.980  10.192 -0.0451  0.0049 -0.5004
  190POPC   H4X21946   1.294   1.873  10.212  1.6207  0.2020 -1.2140
  190POPC   H4Y21947   1.367   2.035  10.191 -0.6565  1.0864 -0.8042
  190POPC   C3521948   1.194   2.018  10.065 -0.7980 -1.0140  0.6013
  190POPC   H5X21949   1.170   2.126  10.072 -0.4448 -0.9726  1.2458
  190POPC   H5Y21950   1.102   1.956  10.062 -2.0382  0.7554 -1.4915
  190POPC   C3621951   1.284   1.984   9.945 -0.0905 -0.3207 -0.0219
  190POPC   H6X21952   1.276   1.874   9.927  4.4335 -0.9592  0.8619
  190POPC   H6Y21953   1.389   2.016   9.957  0.6596 -2.1763 -1.1283
  190POPC   C3721954   1.227   2.052   9.814 -0.0936  0.0671 -0.1133
  190POPC   H7X21955   1.254   2.159   9.824 -2.7151  0.9725 -1.6602
  190POPC   H7Y21956   1.116   2.046   9.818 -0.0323 -1.0899  3.2233
  190POPC   C3821957   1.274   1.992   9.685 -0.4403  0.2618 -0.5287
  190POPC   H8X21958   1.274   1.881   9.687 -0.5052  0.2724 -0.0449
  190POPC   H8Y21959   1.379   2.017   9.657 -0.9072  1.6535 -1.1552
  190POPC   C3921960   1.183   2.053   9.564  0.3449  0.4547 -0.2164
  190POPC   H9X21961   1.201   2.162   9.552  1.3272  0.1098 -2.3465
  190POPC   H9Y21962   1.075   2.047   9.592  0.9071 -2.5473  1.7232
  190POPC  C31021963   1.214   1.991   9.425  0.5616 -0.3615 -0.4100
  190POPC  H10X21964   1.174   1.887   9.421  1.8644 -0.8613 -0.7480
  190POPC  H10Y21965   1.324   1.983   9.419  0.7301  1.1761  0.2489
  190POPC  C31121966   1.165   2.071   9.308  0.1219 -0.3066 -0.1216
  190POPC  H11X21967   1.221   2.166   9.320  0.9817 -0.7058 -0.7962
  190POPC  H11Y21968   1.057   2.096   9.297  0.5267  1.1451 -1.0478
  190POPC  C31221969   1.210   2.002   9.172 -0.1120  0.3194 -0.2032
  190POPC  H12X21970   1.141   1.915   9.162 -2.1177  1.6423  1.1900
  190POPC  H12Y21971   1.317   1.972   9.170 -0.9011 -2.9004 -0.5039
  190POPC  C31321972   1.192   2.091   9.055 -0.1948 -0.5201 -1.1760
  190POPC  H13X21973   1.257   2.180   9.063  0.6334 -1.2389  0.5401
  190POPC  H13Y21974   1.088   2.130   9.055  0.1143  0.3334 -0.0365
  190POPC  C31421975   1.221   2.030   8.913 -0.0868  0.2021  0.6165
  190POPC  H14X21976   1.157   1.940   8.903  0.4470 -0.5494  3.2518
  190POPC  H14Y21977   1.328   1.999   8.917 -0.1534 -0.1660 -0.2863
  190POPC  C31521978   1.197   2.116   8.794  0.3002 -0.0999  0.6615
  190POPC  H15X21979   1.274   2.194   8.812  0.9425 -0.4852 -0.3415
  190POPC  H15Y21980   1.099   2.165   8.811 -0.4219 -1.4143  0.3418
  190POPC  C31621981   1.209   2.051   8.657  0.8458  0.0989 -0.1078
  190POPC  H16X21982   1.296   1.983   8.647  1.0616  0.5394 -1.3631
  190POPC  H16Y21983   1.234   2.134   8.588 -0.1519  1.5588  1.1819
  190POPC  H16Z21984   1.115   2.004   8.621  2.4322 -1.1260 -2.9565
  191POPC     N21985   3.671   1.797   6.335 -0.2780  0.1111 -0.1814
  191POPC   C1221986   3.644   1.823   6.491  0.2698 -0.0649 -0.2590
  191POPC  H12A21987   3.632   1.929   6.511  0.5779 -0.0223 -0.2925
  191POPC  H12B21988   3.730   1.791   6.547 -0.4462  0.4203  1.1737
  191POPC   C1321989   3.566   1.863   6.247 -0.3420 -0.0582 -0.1433
  191POPC  H13A21990   3.559   1.966   6.279 -1.3839 -0.2640  0.3438
  191POPC  H13B21991   3.585   1.861   6.141  1.0275  1.6545  0.0250
  191POPC  H13C21992   3.469   1.824   6.275 -0.6854  0.4163 -0.6605
  191POPC   C1421993   3.811   1.835   6.302 -0.0212  0.1252  0.0341
  191POPC  H14A21994   3.831   1.941   6.311  1.8492 -0.0643 -1.4015
  191POPC  H14B21995   3.876   1.788   6.374 -2.0008 -0.4685  1.5260
  191POPC  H14C21996   3.843   1.806   6.203 -0.8879 -0.4067 -0.1020
  191POPC   C1521997   3.649   1.651   6.318  0.0490 -0.5358  0.1203
  191POPC  H15A21998   3.626   1.632   6.214  1.5173  2.5161 -0.8905
  191POPC  H15B21999   3.563   1.614   6.371 -0.9579  0.7118 -0.5656
  191POPC  H15C22000   3.730   1.592   6.359  1.7669  1.3938 -0.3044
  191POPC   C1122001   3.516   1.754   6.548 -0.3039 -0.1290 -0.2185
  191POPC  H11A22002   3.503   1.775   6.656  2.7503 -0.5233  0.2950
  191POPC  H11B22003   3.526   1.644   6.540  3.7043  0.0495  0.4614
  191POPC     P22004   3.324   1.928   6.487 -0.2544 -0.1165  0.1963
  191POPC   O1322005   3.244   1.954   6.363 -0.2478  1.6459  0.0908
  191POPC   O1422006   3.429   2.033   6.521  0.0154 -0.2472 -0.2874
  191POPC   O1222007   3.399   1.790   6.471 -0.0185 -0.2007 -0.5702
  191POPC   O1122008   3.236   1.897   6.619  0.6417 -1.0499  0.3818
  191POPC    C122009   3.122   1.812   6.611 -0.5193 -0.7453 -0.1848
  191POPC    HA22010   3.140   1.732   6.536 -0.0206 -1.9374  1.1481
  191POPC    HB22011   3.050   1.882   6.564  1.4422  1.0244 -0.7050
  191POPC    C222012   3.073   1.759   6.752  0.5096 -0.1944 -0.2260
  191POPC    HS22013   3.129   1.666   6.777 -2.1556 -2.2703 -1.4638
  191POPC   O2122014   2.931   1.733   6.755 -1.0275 -0.1451  0.1260
  191POPC   C2122015   2.899   1.624   6.685  0.2466  0.6985  0.3694
  191POPC   O2222016   2.983   1.548   6.634  0.2603 -0.0412 -0.1374
  191POPC   C2222017   2.750   1.599   6.691  0.2246  0.8382  0.2539
  191POPC   H2R22018   2.702   1.641   6.599  2.1636  1.6217 -0.4580
  191POPC   H2S22019   2.695   1.645   6.776 -1.2736 -0.2104 -0.1030
  191POPC    C322020   3.094   1.874   6.850 -0.7663 -0.0538 -0.3770
  191POPC    HX22021   3.028   1.957   6.818 -0.5890  0.4911  0.6474
  191POPC    HY22022   3.199   1.909   6.856  0.1089 -2.2529 -1.6216
  191POPC   O3122023   3.064   1.827   6.980  0.0557  0.7958 -0.1302
  191POPC   C3122024   2.939   1.827   7.028  0.5996 -0.2282 -0.2714
  191POPC   O3222025   2.850   1.896   6.983  0.6247  0.9616 -0.0147
  191POPC   C3222026   2.922   1.735   7.157 -0.1134 -0.4174  0.4251
  191POPC   H2X22027   3.015   1.675   7.162 -1.9109 -3.4253  0.6137
  191POPC   H2Y22028   2.835   1.667   7.144 -1.7432  1.6855 -0.1667
  191POPC   C2322029   2.702   1.453   6.700 -0.0868 -0.2647  0.3648
  191POPC   H3R22030   2.748   1.398   6.615  2.2485 -0.6395  1.7897
  191POPC   H3S22031   2.593   1.438   6.688  0.1879 -3.1249  0.8417
  191POPC   C2422032   2.719   1.394   6.847 -0.2582 -0.1329  0.6590
  191POPC   H4R22033   2.700   1.285   6.841  1.7910 -0.5223  0.5794
  191POPC   H4S22034   2.640   1.439   6.912 -1.0086  1.0138 -0.9879
  191POPC   C2522035   2.860   1.404   6.917  0.4248  0.4713 -0.2679
  191POPC   H5R22036   2.881   1.511   6.939 -3.0432  1.0712  0.8666
  191POPC   H5S22037   2.944   1.372   6.851 -0.2298  2.7955 -2.3784
  191POPC   C2622038   2.859   1.323   7.047  0.6578  0.0408 -0.3496
  191POPC   H6R22039   2.827   1.216   7.040  3.4970 -1.1467  2.4791
  191POPC   H6S22040   2.795   1.379   7.119  0.2654  1.2178 -1.5723
  191POPC   C2722041   3.002   1.326   7.108  0.0043  0.6322  0.5562
  191POPC   H7R22042   3.044   1.416   7.057 -0.8580  0.3977 -0.6282
  191POPC   H7S22043   3.050   1.236   7.066 -2.2091  0.2829 -1.4426
  191POPC   C2822044   3.013   1.339   7.262  0.0990 -0.4198  0.0998
  191POPC   H8R22045   2.956   1.430   7.289 -0.7990 -1.0115  0.2426
  191POPC   H8S22046   3.118   1.354   7.296 -0.2498 -2.0137  2.1347
  191POPC   C2922047   2.955   1.224   7.335  0.3233  0.0308 -0.5343
  191POPC   H9122048   2.951   1.130   7.279  0.3561 -0.5543  0.4312
  191POPC  C21022049   2.909   1.224   7.459 -0.8134 -0.1991 -0.5765
  191POPC  H10122050   2.859   1.135   7.499  0.7258 -1.6448 -1.7187
  191POPC  C21122051   2.926   1.347   7.550 -0.5686 -0.8280 -0.2381
  191POPC  H11R22052   2.826   1.376   7.587 -0.4639 -1.1728  0.3254
  191POPC  H11S22053   2.957   1.445   7.509 -3.1018 -0.0060 -0.3762
  191POPC  C21222054   2.999   1.316   7.684  0.1407  0.3927  0.5366
  191POPC  H12R22055   3.019   1.413   7.734 -0.8974  1.8768 -1.7148
  191POPC  H12S22056   3.092   1.259   7.663  0.0019  0.4416 -0.2719
  191POPC  C21322057   2.920   1.232   7.785 -0.6917 -0.1217  1.1155
  191POPC  H13R22058   2.922   1.129   7.743  0.0149 -0.2143  1.3754
  191POPC  H13S22059   2.814   1.264   7.773 -1.2846 -2.6932 -1.7350
  191POPC  C21422060   2.983   1.227   7.924 -0.8048  1.3091 -0.2122
  191POPC  H14R22061   2.967   1.324   7.977  0.3244  2.3965 -1.7730
  191POPC  H14S22062   3.093   1.214   7.924 -0.6338  2.5925  0.6103
  191POPC  C21522063   2.911   1.112   8.003 -0.2456 -0.3758 -0.0936
  191POPC  H15R22064   2.937   1.017   7.951 -1.9846 -0.1235 -1.5175
  191POPC  H15S22065   2.804   1.136   8.019 -0.5012 -1.1856 -0.5644
  191POPC  C21622066   2.975   1.103   8.143  0.1429  0.6153 -0.5424
  191POPC  H16R22067   2.936   1.177   8.216  2.0958  1.3000 -0.1165
  191POPC  H16S22068   3.085   1.116   8.147  0.1954 -0.0293  0.5894
  191POPC  C21722069   2.943   0.961   8.209 -0.3282  0.9214  0.0811
  191POPC  H17R22070   2.835   0.937   8.193  0.0246 -0.7081 -0.0493
  191POPC  H17S22071   2.957   0.977   8.318  1.3666 -0.0613  0.0419
  191POPC  C21822072   3.027   0.838   8.165  0.2136  0.6027  0.9406
  191POPC  H18R22073   3.135   0.858   8.183  0.0007  1.9645  0.8102
  191POPC  H18S22074   3.017   0.822   8.055 -1.7153 -0.3443  1.2109
  191POPC  H18T22075   2.981   0.746   8.208 -2.1028  0.2565 -1.9325
  191POPC   C3322076   2.901   1.821   7.282  0.1879  0.4358 -0.4687
  191POPC   H3X22077   2.797   1.860   7.292  0.2176  0.2674  0.6641
  191POPC   H3Y22078   2.975   1.903   7.288  1.9568 -1.1859  1.6903
  191POPC   C3422079   2.921   1.730   7.409 -0.3680 -0.1047 -1.1495
  191POPC   H4X22080   3.025   1.691   7.410  0.0557  1.0111 -0.8319
  191POPC   H4Y22081   2.860   1.638   7.392 -0.5608 -0.3708  0.8279
  191POPC   C3522082   2.892   1.788   7.551  0.1549  0.3312  0.5952
  191POPC   H5X22083   2.817   1.870   7.547  0.7000  0.8249  0.2280
  191POPC   H5Y22084   2.987   1.834   7.584  1.1843 -1.7507  0.6715
  191POPC   C3622085   2.859   1.685   7.660 -1.0019 -0.0280  0.0021
  191POPC   H6X22086   2.929   1.599   7.665 -1.2590 -0.2662 -0.4101
  191POPC   H6Y22087   2.757   1.645   7.642 -0.9479 -0.1684  0.0072
  191POPC   C3722088   2.852   1.737   7.803 -0.5263 -0.0717 -0.5613
  191POPC   H7X22089   2.785   1.825   7.809  0.8479  0.9272  0.8339
  191POPC   H7Y22090   2.954   1.753   7.842 -1.1378  1.2939  0.5696
  191POPC   C3822091   2.784   1.638   7.899  0.1163 -0.0275 -0.1776
  191POPC   H8X22092   2.856   1.553   7.906  0.4781  0.3238  0.4947
  191POPC   H8Y22093   2.690   1.614   7.846 -0.1587 -0.8612  0.6600
  191POPC   C3922094   2.756   1.711   8.032  0.7404 -0.3746 -0.1784
  191POPC   H9X22095   2.668   1.663   8.081 -0.1880  1.8385  0.4550
  191POPC   H9Y22096   2.717   1.813   8.012 -1.3000 -1.1589 -0.4787
  191POPC  C31022097   2.867   1.693   8.129  0.9841 -0.1773 -0.3571
  191POPC  H10X22098   2.962   1.738   8.093  0.6437  0.0604 -0.9656
  191POPC  H10Y22099   2.890   1.584   8.140  0.4099 -0.5102 -2.1596
  191POPC  C31122100   2.852   1.731   8.273 -0.1854  0.0655  0.3624
  191POPC  H11X22101   2.768   1.676   8.320  0.0118 -0.4352  0.1360
  191POPC  H11Y22102   2.838   1.841   8.280 -0.5997 -0.0813  2.9677
  191POPC  C31222103   2.964   1.681   8.363 -0.5171  0.6866  0.1301
  191POPC  H12X22104   3.067   1.715   8.338 -0.7101  0.5892 -0.8239
  191POPC  H12Y22105   2.972   1.571   8.350 -0.3839  0.7168 -0.0397
  191POPC  C31322106   2.928   1.718   8.505 -0.3739  0.1678 -0.9291
  191POPC  H13X22107   2.823   1.694   8.532 -0.2143 -1.5961 -1.7475
  191POPC  H13Y22108   2.932   1.828   8.516 -1.2644  0.2445 -1.2827
  191POPC  C31422109   3.015   1.656   8.620 -0.2622  0.9360  0.1479
  191POPC  H14X22110   3.120   1.646   8.585 -0.1134  1.0106  0.5572
  191POPC  H14Y22111   2.976   1.560   8.659  0.7834 -0.0602 -1.1514
  191POPC  C31522112   3.024   1.763   8.736  0.4957  0.7770  0.5192
  191POPC  H15X22113   3.048   1.709   8.830 -1.0100 -0.2333  0.3515
  191POPC  H15Y22114   2.917   1.795   8.746 -0.2840 -1.4577 -0.1838
  191POPC  C31622115   3.128   1.881   8.722  0.9072  0.2028 -0.1076
  191POPC  H16X22116   3.233   1.846   8.710  1.1258  1.2680 -1.4330
  191POPC  H16Y22117   3.140   1.948   8.810  0.6645  1.5036 -1.0375
  191POPC  H16Z22118   3.111   1.942   8.631 -2.5065  0.9305  0.8433
  192POPC     N22119   0.977   4.502   6.225  1.0038 -0.4846 -0.0473
  192POPC   C1222120   1.063   4.406   6.153  0.0650 -0.1580  0.2606
  192POPC  H12A22121   1.023   4.387   6.054  3.5791 -1.1202 -1.1463
  192POPC  H12B22122   1.049   4.313   6.206 -2.8907  1.1866  2.0817
  192POPC   C1322123   0.996   4.640   6.178 -0.1397 -0.7852  0.0452
  192POPC  H13A22124   0.984   4.644   6.070 -0.0717 -0.9086  0.0327
  192POPC  H13B22125   0.936   4.710   6.235  0.1520 -0.2944 -0.2438
  192POPC  H13C22126   1.091   4.681   6.207 -0.5490 -0.6988  1.3286
  192POPC   C1422127   0.834   4.472   6.197  0.0110 -0.1895  0.6864
  192POPC  H14A22128   0.804   4.399   6.272  1.6141 -1.6557 -0.0383
  192POPC  H14B22129   0.763   4.553   6.210 -2.3266 -1.8886 -0.6769
  192POPC  H14C22130   0.809   4.430   6.101  0.1389 -0.0945  0.6113
  192POPC   C1522131   0.996   4.493   6.371 -0.1843  0.2728 -1.2057
  192POPC  H15A22132   1.086   4.546   6.400 -0.5610  0.8626 -1.1044
  192POPC  H15B22133   0.994   4.391   6.405 -0.4415  0.2072 -1.4170
  192POPC  H15C22134   0.909   4.534   6.420 -0.5768 -3.2820  1.5053
  192POPC   C1122135   1.220   4.424   6.133  0.4233 -0.0952  0.1456
  192POPC  H11A22136   1.238   4.502   6.056  2.6754 -2.0341 -1.4562
  192POPC  H11B22137   1.260   4.329   6.091 -1.7960 -0.9395 -0.1973
  192POPC     P22138   1.355   4.567   6.303  0.4122 -0.5021 -0.1657
  192POPC   O1322139   1.271   4.646   6.391 -0.2624  0.1846 -0.1835
  192POPC   O1422140   1.406   4.629   6.181 -0.2166  0.0814 -0.0786
  192POPC   O1222141   1.274   4.437   6.261  0.5311 -0.6921  0.5792
  192POPC   O1122142   1.468   4.494   6.386 -0.6339 -0.0625  0.0608
  192POPC    C122143   1.449   4.383   6.481 -0.3122 -0.3041  0.1777
  192POPC    HA22144   1.528   4.309   6.457  1.2055  2.0628 -2.8566
  192POPC    HB22145   1.350   4.335   6.470 -0.5317  0.6245 -2.3609
  192POPC    C222146   1.469   4.433   6.626 -0.6860  0.2089 -0.6107
  192POPC    HS22147   1.417   4.529   6.642  2.1196  2.1573 -2.3900
  192POPC   O2122148   1.612   4.446   6.640  0.7449  0.0598  0.5343
  192POPC   C2122149   1.645   4.540   6.725  0.4889 -0.1065 -0.0434
  192POPC   O2222150   1.574   4.613   6.782  0.2549  0.1451 -0.4295
  192POPC   C2222151   1.792   4.561   6.720  0.3336  0.2891  0.4920
  192POPC   H2R22152   1.817   4.643   6.649  2.7785  0.7578  1.8103
  192POPC   H2S22153   1.850   4.474   6.682 -0.7012 -0.3580  0.3411
  192POPC    C322154   1.420   4.324   6.735  0.3170 -0.1221 -0.9750
  192POPC    HX22155   1.472   4.228   6.718 -0.7699 -1.4418  2.3880
  192POPC    HY22156   1.313   4.303   6.717 -0.2063  0.8211  0.7853
  192POPC   O3122157   1.425   4.380   6.866 -0.6784 -0.6811 -0.3749
  192POPC   C3122158   1.511   4.323   6.958  0.0435  0.1607  0.8186
  192POPC   O3222159   1.573   4.221   6.932 -0.4308 -0.4455  0.7343
  192POPC   C3222160   1.513   4.411   7.090 -0.2301 -0.3275  0.5832
  192POPC   H2X22161   1.408   4.404   7.123 -0.1739 -0.7812  0.6677
  192POPC   H2Y22162   1.539   4.517   7.068  0.3146 -0.5568  0.0952
  192POPC   C2322163   1.838   4.600   6.854 -0.4077  0.1879  0.2030
  192POPC   H3R22164   1.808   4.540   6.943 -0.6731 -0.6932 -0.4709
  192POPC   H3S22165   1.802   4.703   6.877  1.1694  1.0177 -0.9264
  192POPC   C2422166   1.991   4.623   6.876 -0.3105  0.1521  0.2391
  192POPC   H4R22167   2.049   4.655   6.787 -0.9365 -1.3311 -0.7544
  192POPC   H4S22168   2.036   4.526   6.906 -0.7061  0.3958  1.6936
  192POPC   C2522169   2.022   4.724   6.993  0.4683 -0.8936  0.2480
  192POPC   H5R22170   1.986   4.827   6.972 -0.3058 -1.0732  0.6345
  192POPC   H5S22171   2.133   4.725   6.999  0.6085 -0.7373 -1.8697
  192POPC   C2622172   1.958   4.693   7.128 -0.2354 -0.0014  0.0460
  192POPC   H6R22173   1.999   4.594   7.156  3.4023  1.8938  2.1123
  192POPC   H6S22174   1.847   4.688   7.118 -0.1048 -1.0430 -0.9946
  192POPC   C2722175   2.016   4.792   7.234 -0.7072 -0.8831 -0.0949
  192POPC   H7R22176   1.990   4.899   7.221 -1.1900 -1.1388 -1.3017
  192POPC   H7S22177   2.127   4.797   7.236 -0.7752  1.6123  1.2095
  192POPC   C2822178   1.964   4.757   7.375 -0.4131 -0.2742  0.8124
  192POPC   H8R22179   1.967   4.648   7.396 -1.3990 -0.2858  0.9281
  192POPC   H8S22180   1.855   4.776   7.374 -0.6135 -0.4991  4.3529
  192POPC   C2922181   2.016   4.853   7.478  0.1117  0.2961  0.1983
  192POPC   H9122182   2.041   4.954   7.444 -1.0981  0.7619  0.6252
  192POPC  C21022183   2.023   4.840   7.608 -0.4240  0.6602 -1.1007
  192POPC  H10122184   2.063   4.929   7.660  1.3783 -0.9546  0.4766
  192POPC  C21122185   1.986   4.723   7.697  0.1326 -0.0772  0.5500
  192POPC  H11R22186   1.948   4.634   7.643 -0.4060  0.3675  0.1853
  192POPC  H11S22187   1.906   4.755   7.767 -0.2287  3.1410 -1.1211
  192POPC  C21222188   2.103   4.670   7.782 -0.1845 -0.6207  0.8094
  192POPC  H12R22189   2.189   4.647   7.715 -0.9168 -0.9641 -0.0433
  192POPC  H12S22190   2.072   4.575   7.831  1.1730 -0.8441  1.2591
  192POPC  C21322191   2.156   4.768   7.888 -0.3651 -1.0085 -0.1585
  192POPC  H13R22192   2.072   4.779   7.961  0.1104 -0.9688  0.3910
  192POPC  H13S22193   2.180   4.866   7.843 -2.1416 -0.7375 -0.6145
  192POPC  C21422194   2.267   4.700   7.967  0.0145 -0.1385  0.3843
  192POPC  H14R22195   2.349   4.675   7.897 -2.3779 -0.2397 -2.5846
  192POPC  H14S22196   2.216   4.608   8.002 -0.6471  0.4086  0.8801
  192POPC  C21522197   2.324   4.786   8.082  0.3763 -0.0786  0.0204
  192POPC  H15R22198   2.240   4.835   8.136  0.9650 -2.5409  3.5651
  192POPC  H15S22199   2.396   4.858   8.040 -1.3966  0.9060 -1.4704
  192POPC  C21622200   2.383   4.700   8.190 -0.4391 -0.6104  0.9313
  192POPC  H16R22201   2.315   4.618   8.219 -3.0592  0.8908 -0.5700
  192POPC  H16S22202   2.408   4.764   8.277  4.2182  1.5793 -1.5706
  192POPC  C21722203   2.518   4.634   8.156  0.6617 -0.2320  0.0022
  192POPC  H17R22204   2.610   4.694   8.139  1.4185 -1.6222 -1.0480
  192POPC  H17S22205   2.500   4.576   8.064  2.1899  1.7638 -1.6362
  192POPC  C21822206   2.543   4.531   8.270  0.0923 -1.0654 -0.1127
  192POPC  H18R22207   2.524   4.574   8.370  1.6733  1.2025 -0.6926
  192POPC  H18S22208   2.648   4.496   8.260  0.6891  0.5056  0.3931
  192POPC  H18T22209   2.475   4.445   8.253 -2.1494  0.8170 -1.1968
  192POPC   C3322210   1.621   4.370   7.192  0.5789  0.0666 -0.3161
  192POPC   H3X22211   1.718   4.418   7.168  1.2185 -2.2874 -2.9405
  192POPC   H3Y22212   1.629   4.260   7.201 -1.2347 -0.0599  0.1702
  192POPC   C3422213   1.567   4.424   7.329  0.0924  0.3306  0.0317
  192POPC   H4X22214   1.460   4.396   7.345  0.1626  0.7686  1.3723
  192POPC   H4Y22215   1.583   4.534   7.336  2.3324  0.1476 -1.4981
  192POPC   C3522216   1.645   4.358   7.443  0.5704  0.2813 -0.5713
  192POPC   H5X22217   1.742   4.404   7.472  0.4663 -0.6812  1.4592
  192POPC   H5Y22218   1.665   4.251   7.424 -2.1680 -0.5056  0.4460
  192POPC   C3622219   1.565   4.372   7.570 -0.3764  0.4821 -0.5280
  192POPC   H6X22220   1.467   4.324   7.556  0.0712 -0.0373 -2.0316
  192POPC   H6Y22221   1.569   4.478   7.604 -1.2446  0.1214  0.7625
  192POPC   C3722222   1.625   4.287   7.685  0.3736 -0.2372 -0.5227
  192POPC   H7X22223   1.734   4.303   7.694  0.7610 -2.5337 -0.5564
  192POPC   H7Y22224   1.616   4.179   7.661  1.8312 -0.3502 -0.6148
  192POPC   C3822225   1.538   4.327   7.806  0.1513  0.5552  1.0717
  192POPC   H8X22226   1.524   4.232   7.861 -0.2234  0.0795  0.1763
  192POPC   H8Y22227   1.435   4.351   7.772 -0.6250 -2.4198  1.0174
  192POPC   C3922228   1.592   4.439   7.900  0.8451  0.1012  0.3171
  192POPC   H9X22229   1.510   4.461   7.971 -0.7904  1.3199 -1.8481
  192POPC   H9Y22230   1.619   4.534   7.849 -1.8813  1.4182  1.1408
  192POPC  C31022231   1.708   4.378   7.981 -0.3163  0.5035 -0.5757
  192POPC  H10X22232   1.788   4.342   7.912 -0.7805 -0.2910 -0.7098
  192POPC  H10Y22233   1.661   4.293   8.033 -2.4192 -0.6041 -3.9450
  192POPC  C31122234   1.772   4.493   8.069 -0.9611  0.3772  0.1767
  192POPC  H11X22235   1.717   4.588   8.056 -0.6566  0.5893  0.4057
  192POPC  H11Y22236   1.874   4.522   8.034 -0.5039  1.2479  2.0554
  192POPC  C31222237   1.789   4.457   8.211 -0.1712  0.9950  0.4932
  192POPC  H12X22238   1.876   4.388   8.204 -0.7885  0.1095  1.2212
  192POPC  H12Y22239   1.704   4.395   8.247 -2.6159  3.5353 -0.5135
  192POPC  C31322240   1.829   4.576   8.301 -0.6367  0.1774  0.0338
  192POPC  H13X22241   1.826   4.524   8.399 -0.6577 -1.2123 -0.6829
  192POPC  H13Y22242   1.755   4.659   8.300  1.1298  1.8832  1.6087
  192POPC  C31422243   1.965   4.629   8.271 -0.2138 -0.8455 -0.6978
  192POPC  H14X22244   1.974   4.684   8.174  2.4547  0.3735  0.1576
  192POPC  H14Y22245   2.040   4.548   8.281  1.3857  0.7264  0.9363
  192POPC  C31522246   2.020   4.741   8.355  0.0490 -1.0535 -0.6412
  192POPC  H15X22247   2.124   4.762   8.325 -0.0957 -2.1475 -2.0314
  192POPC  H15Y22248   2.018   4.696   8.456  0.4714 -2.4872 -1.2510
  192POPC  C31622249   1.944   4.874   8.369  0.4358  0.0926 -0.1894
  192POPC  H16X22250   1.961   4.940   8.280  0.6652 -0.3028 -0.4398
  192POPC  H16Y22251   1.966   4.927   8.464  0.8097 -0.7874  0.2263
  192POPC  H16Z22252   1.835   4.852   8.377  0.5585 -0.7711 -0.7789
  193SOD    SOD22253   1.535   4.697  16.961 -0.2748 -0.3606  0.2075
  194SOD    SOD22254   0.029   2.473   1.823 -0.2969  0.1836  0.3609
  195SOD    SOD22255   1.453   3.209   2.976 -0.0359  0.1243  0.3084
  196SOD    SOD22256   0.861   3.989  10.920  0.1393 -0.3715 -0.0041
  197SOD    SOD22257   4.043   4.580  16.964 -0.1300  0.3967  0.1874
  198SOD    SOD22258   3.773   3.364   5.469  0.0093  0.0800  0.6671
  199SOD    SOD22259   0.907   5.689  14.216  0.0204  0.0544 -0.0385
  200SOD    SOD22260   6.056   6.678  13.290  0.0442  0.3360 -0.3292
  201SOD    SOD22261   5.061   5.229   0.488 -0.0167  0.6889  0.1337
  202SOD    SOD22262   6.307   5.595  13.546 -0.8600  0.2321  0.1554
  203SOD    SOD22263   4.496   3.884  11.821  0.0200 -0.3476  0.4343
  204SOD    SOD22264   2.390   0.575  16.855 -0.4843  0.2540  0.0558
  205SOD    SOD22265   2.063   4.907   3.596 -0.3954  0.0063  0.0544
  206SOD    SOD22266   5.522   5.350   2.885 -0.0034  0.6469  0.6927
  207SOD    SOD22267   3.033   2.497   0.814  0.1906  0.3349  0.1529
  208SOD    SOD22268   4.228   4.625   3.669  0.0219 -0.1152 -0.0405
  209SOD    SOD22269   1.498   2.380  16.199 -0.0981  0.3480 -0.0251
  210SOD    SOD22270   1.320   4.626  15.174 -0.0678 -0.1775 -0.6663
  211SOD    SOD22271   6.252   2.386  16.893  0.4937  0.0084  0.1307
  212SOD    SOD22272   2.785   1.725  11.898 -0.0971  0.2279 -0.3960
  213SOD    SOD22273   0.776   1.204  14.694  0.0070  0.1684 -0.0745
  214SOD    SOD22274   1.957   6.291   6.069 -0.3568  0.1868  0.0343
  215SOD    SOD22275   4.359   5.946  15.009  0.0333 -0.1592  0.5386
  216SOD    SOD22276   3.097   2.842  11.718 -0.2079 -0.4558 -0.3726
  217SOD    SOD22277   3.142   1.394   6.229 -0.2478 -0.1404  0.2173
  218SOD    SOD22278   6.703   5.605   3.610  0.5346 -0.0529 -0.0773
  219SOD    SOD22279   0.090   3.607  14.310  0.0012  0.0964 -0.3237
  220SOD    SOD22280   2.709   4.235   4.718  0.1245 -0.3287  0.1256
  221SOD    SOD22281   2.857   2.901   5.864  0.0265  0.1181 -0.0656
  222SOD    SOD22282   3.711   6.704   5.943  0.4179  0.1762  0.0386
  223SOD    SOD22283   6.055   5.420  12.607  0.0675  0.7229  0.2507
  224SOD    SOD22284   4.552   3.067   0.553  0.4418 -0.3234 -0.2388
  225SOD    SOD22285   0.998   5.570  11.471 -0.2083  0.3488 -0.9133
  226SOD    SOD22286   0.517   3.964   0.625  0.0640 -0.1254  0.1082
  227SOD    SOD22287   3.753   4.398  17.278 -0.0973 -0.2732  0.3174
  228SOD    SOD22288   3.793   4.491   5.592 -0.6270  0.2796  0.0387
  229SOD    SOD22289   5.279   0.524   3.098 -0.6275 -0.4596  0.3226
  230SOD    SOD22290   5.878   6.422  12.882  0.0424  0.4192  0.7190
  231SOD    SOD22291   2.328   0.672   0.798 -0.3288  0.1860  0.3253
  232SOD    SOD22292   2.470   0.976  15.318  0.3005 -0.3250  0.9494
  233SOD    SOD22293   5.361   1.494  14.741 -0.5140 -0.2348 -0.2197
  234SOD    SOD22294   1.002   0.161  12.448  0.1891 -0.1685  0.3423
  235SOD    SOD22295   6.055   1.594   6.397 -0.0065 -0.0283 -0.2346
  236SOD    SOD22296   6.329   0.814  16.775  0.0792  0.2868  0.5854
  237SOD    SOD22297   0.900   6.179  16.064 -0.3670  0.5583 -0.0481
  238SOD    SOD22298   1.452   3.916  17.259  0.6056 -0.4038 -0.3834
  239SOD    SOD22299   4.966   0.639  16.898 -0.2021 -0.2991  0.3654
  240SOD    SOD22300   1.229   2.031   2.446 -0.1392 -0.1003 -0.6136
  241SOD    SOD22301   6.726   2.965  12.725 -0.1083  0.1499 -0.5834
  242SOD    SOD22302   3.511   0.701  12.357  0.0768 -0.0757 -0.5104
  243SOD    SOD22303   5.783   4.444   0.161  0.1949 -0.3487  0.0937
  244SOD    SOD22304   4.805   5.360   2.069 -0.6266 -0.5289  0.1152
  245SOD    SOD22305   4.720   3.804   2.280  0.2130 -0.0434  0.1312
  246SOD    SOD22306   0.567   0.279   6.213 -0.0348  0.1413  0.0855
  247SOD    SOD22307   5.861   2.981  16.809  0.3395  0.2263  0.2918
  248SOD    SOD22308   0.209   0.566  15.629 -0.1871  0.1168 -0.3645
  249SOD    SOD22309   1.172   3.173  14.068  0.1275  0.2193 -0.4344
  250SOD    SOD22310   0.535   1.797  12.366 -0.1590  0.1064  0.1439
  251SOD    SOD22311   2.354   2.033   3.387  0.6232 -0.2423 -0.5446
  252SOD    SOD22312   6.538   2.615  14.911  0.1904 -0.2547  0.0488
  253SOD    SOD22313   2.551   5.303  17.061 -0.0293  0.0547 -0.3645
  254SOD    SOD22314   0.665   1.320  12.941 -0.1020  0.4160 -0.3116
  255SOD    SOD22315   1.346   3.126  15.295  0.1830  0.2606 -0.0424
  256SOD    SOD22316   3.028   0.949   5.159 -0.2757 -0.2360 -0.3315
  257SOD    SOD22317   1.588   3.876   5.832  0.3812  0.4017 -0.6366
  258SOD    SOD22318   5.118   6.174   0.205 -0.5230  0.2182 -0.1110
  259SOD    SOD22319   4.311   2.212  12.831 -0.5318  0.2941  0.3274
  260SOD    SOD22320   4.629   6.201  12.928 -0.0386 -0.1291 -0.0934
  261SOD    SOD22321   5.177   2.563   6.496 -0.3753  0.1450  0.3713
  262SOD    SOD22322   0.284   2.033  10.922 -0.0418  0.3769  0.1115
  263SOD    SOD22323   0.819   1.702   2.599  0.4075  0.5999  0.1349
  264SOD    SOD22324   0.572   1.002   5.855 -0.1685  0.1614 -0.0739
  265SOD    SOD22325   1.150   1.297  10.778 -0.4411  0.0583  0.6073
  266SOD    SOD22326   2.699   4.856   3.763 -0.0212  0.2922 -0.6356
  267SOD    SOD22327   2.252   4.908  11.090 -0.7845 -0.4311 -0.3919
  268SOD    SOD22328   3.068   5.365  13.715  0.1967 -0.2391  0.7005
  269SOD    SOD22329   3.452   4.478  11.366 -0.4045  0.0053  0.0124
  270CLA    CLA22330   5.399   4.346  13.261  0.4785 -0.1202  0.0817
  271CLA    CLA22331   1.145   6.526  14.477 -0.3492  0.4756  0.1219
  272CLA    CLA22332   4.238   0.245  13.126  0.0057 -0.2168  0.3307
  273CLA    CLA22333   2.966   5.695  15.225  0.3041 -0.6424 -0.3283
  274CLA    CLA22334   3.575   5.439  17.120  0.2106  0.0083 -0.1123
  275CLA    CLA22335   2.649   4.636  17.051 -0.5019  0.1464  0.1358
  276CLA    CLA22336   3.493   5.480   3.315  0.1681 -0.1307  0.1211
  277CLA    CLA22337   1.934   6.423   1.971 -0.0059 -0.4627  0.3664
  278CLA    CLA22338   3.462   5.317  12.378  0.0122  0.1939 -0.0719
  279CLA    CLA22339   5.211   4.281   2.617 -0.0379 -0.1578  0.4198
  280CLA    CLA22340   0.932   3.240  15.458 -0.0085 -0.2369  0.0704
  281CLA    CLA22341   5.480   3.445  14.122  0.0989  0.5762  0.6261
  282CLA    CLA22342   6.065   5.993   2.017 -0.0954  0.3258  0.1789
  283CLA    CLA22343   4.230   3.394   2.441 -0.2207 -0.3939  0.4187
  284CLA    CLA22344   1.539   0.891  17.119  0.0707  0.0125 -0.2064
  285CLA    CLA22345   3.563   2.004   0.434 -0.0469 -0.0968 -0.0460
  286CLA    CLA22346   0.550   0.700   1.875 -0.5797 -0.1228 -0.3170
  287CLA    CLA22347   5.843   5.534  13.778 -0.3658  0.2283 -0.4491
  288CLA    CLA22348   5.861   1.563  16.081 -0.0008  0.0998 -0.3013
  289CLA    CLA22349   0.757   6.509  16.432  0.1693  0.0753  0.1274
  290CLA    CLA22350   2.139   1.935  15.787  0.1866 -0.2388  0.0248
  291CLA    CLA22351   3.884   2.559  16.819 -0.0001 -0.2667 -0.7776
  292CLA    CLA22352   5.714   4.994  16.360 -0.3572 -0.0997 -0.0614
  293CLA    CLA22353   0.153   0.826  12.492 -0.1460 -0.4882 -0.1671
  294CLA    CLA22354   0.956   6.184  16.680 -0.0713  0.1506 -0.2675
  295CLA    CLA22355   6.366   3.164  16.975  0.0417 -0.0781  0.0077
  296CLA    CLA22356   5.354   1.765   2.264  0.3886  0.1776  0.0303
  297CLA    CLA22357   2.275   0.504   1.281 -0.5075  0.1506  0.1291
  298CLA    CLA22358   1.220   3.214  16.397  0.0392  0.2054  0.7020
  299CLA    CLA22359   2.749   6.708  15.340  0.0702 -0.3814  0.1311
  300CLA    CLA22360   3.210   3.395   0.989  0.1799 -0.6127 -0.1475
  301CLA    CLA22361   1.870   2.131   5.793 -0.0040  0.1780 -0.1362
  302CLA    CLA22362   2.029   0.746  11.703  0.3802  0.5283 -0.1708
  303CLA    CLA22363   1.946   0.969   0.672  0.3991 -0.0892 -0.7112
  304CLA    CLA22364   2.436   3.396   5.714 -0.0045  0.1527 -0.0149
  305CLA    CLA22365   5.481   4.602  15.389  0.0875 -0.1132 -0.1102
  306CLA    CLA22366   1.961   2.856  14.599 -0.3074  0.2256 -0.0562
  307CLA    CLA22367   4.027   1.164  14.899 -0.2568 -0.2211  0.2889
  308CLA    CLA22368   4.689   1.379   4.329 -0.0337  0.0332 -0.5022
  309CLA    CLA22369   5.761   6.162  15.742 -0.0548  0.0377 -0.0930
  310CLA    CLA22370   4.607   4.791   0.212  0.0167 -0.2251  0.1013
  311CLA    CLA22371   6.514   4.094   4.100 -0.2715  0.1610 -0.2351
  312CLA    CLA22372   1.377   0.710   1.913  0.0509  0.2838  0.0799
  313CLA    CLA22373   1.937   3.848  13.355 -0.4902 -0.4737 -0.0595
  314CLA    CLA22374   0.397   6.294  13.487  0.3582 -0.1167  0.1242
  315CLA    CLA22375   5.936   5.474   0.551 -0.4366 -0.1092 -0.2008
  316CLA    CLA22376   5.636   0.321  16.382 -0.0662  0.2923 -0.0202
  317CLA    CLA22377   0.490   2.063   2.383 -0.1275  0.0853 -0.2739
  318CLA    CLA22378   2.551   3.767  16.046  0.1635  0.0772 -0.6255
  319CLA    CLA22379   0.893   5.874   1.558  0.1603 -0.1852  0.4621
  320CLA    CLA22380   0.648   5.522  14.643 -0.1252 -0.1005 -0.4293
  321CLA    CLA22381   0.159   0.231  15.199  0.1717  0.5626 -0.1156
  322CLA    CLA22382   6.238   2.443  13.682  0.1863 -0.1211 -0.0321
  323TIP3   OH222383   4.151   3.538  14.040  0.0216 -0.9933  0.5694
  323TIP3    H122384   4.077   3.549  13.979 -0.4710 -1.6651  1.0253
  323TIP3    H222385   4.152   3.444  14.058  1.7151 -1.1827 -0.3011
  324TIP3   OH222386   5.770   3.598   4.094  0.2178 -0.2331 -0.5768
  324TIP3    H122387   5.693   3.608   4.038 -0.3705 -1.6365 -0.0415
  324TIP3    H222388   5.742   3.630   4.179  0.0966 -1.1082 -0.2831
  325TIP3   OH222389   1.087   3.111   5.824 -0.2694 -0.4955 -0.1728
  325TIP3    H122390   1.011   3.111   5.882 -0.8827 -1.4265 -0.9436
  325TIP3    H222391   1.053   3.085   5.739  0.9316 -1.1293 -0.4935
  326TIP3   OH222392   2.990   0.253   1.531  0.0394  0.0668  1.0904
  326TIP3    H122393   2.906   0.238   1.488  0.0393  1.3611  0.5767
  326TIP3    H222394   2.968   0.278   1.621 -0.0118 -1.6201  1.5652
  327TIP3   OH222395   1.878   2.915  11.172  0.0697  0.6612  0.1766
  327TIP3    H122396   1.788   2.947  11.167  0.6353  2.7167  1.7031
  327TIP3    H222397   1.922   2.956  11.097 -0.2697 -0.4538 -0.6487
  328TIP3   OH222398   6.162   2.102  16.598  0.0158 -0.5556 -0.1203
  328TIP3    H122399   6.114   2.027  16.563  1.1842 -1.3204 -0.1403
  328TIP3    H222400   6.227   2.063  16.657 -0.2346  0.5422  0.9190
  329TIP3   OH222401   6.385   0.317  11.969  0.3249  0.2123 -0.0101
  329TIP3    H122402   6.312   0.279  11.921  1.6099  2.1005 -3.9159
  329TIP3    H222403   6.457   0.255  11.957 -0.1071 -0.9035  2.5206
  330TIP3   OH222404   3.250   0.362  16.671  0.4346  0.2199  0.5414
  330TIP3    H122405   3.252   0.330  16.761 -0.4145  1.9520  1.2258
  330TIP3    H222406   3.234   0.456  16.679 -1.3568  0.1790 -1.4493
  331TIP3   OH222407   1.375   4.175   6.301 -0.2289 -0.0675  0.6677
  331TIP3    H122408   1.383   4.241   6.232 -1.1022 -1.0025 -0.3524
  331TIP3    H222409   1.293   4.196   6.345 -0.0938  0.0147  0.8845
  332TIP3   OH222410   3.448   4.021   3.407 -0.3232  0.4268  0.5161
  332TIP3    H122411   3.497   3.968   3.471  0.6723 -1.8602 -1.9370
  332TIP3    H222412   3.357   3.997   3.423 -0.0020 -0.9802  0.4125
  333TIP3   OH222413   6.445   5.897   4.599 -0.0472 -0.0237  0.0759
  333TIP3    H122414   6.402   5.866   4.520  2.3250 -0.5732 -1.0946
  333TIP3    H222415   6.512   5.831   4.617  1.8135  1.8583  0.4676
  334TIP3   OH222416   0.157   0.486   4.898  0.1480  0.2897 -0.1175
  334TIP3    H122417   0.148   0.538   4.818 -0.3162  0.7451  0.2245
  334TIP3    H222418   0.212   0.540   4.955  1.7431 -0.6901 -0.6772
  335TIP3   OH222419   1.480   0.332  16.833 -0.2995 -0.1453  0.2046
  335TIP3    H122420   1.502   0.295  16.919 -0.2842  1.1376  0.7805
  335TIP3    H222421   1.548   0.398  16.818  1.1645 -2.0254 -1.9575
  336TIP3   OH222422   2.293   4.930  13.866  0.1422  0.6754  0.0090
  336TIP3    H122423   2.346   5.005  13.841  0.6532 -0.4626 -2.6520
  336TIP3    H222424   2.203   4.960  13.855  0.3214  1.1722 -0.1394
  337TIP3   OH222425   3.702   4.957  14.939 -0.0854 -0.1612 -0.5447
  337TIP3    H122426   3.725   4.961  14.846 -0.6380  0.0069 -0.6787
  337TIP3    H222427   3.711   5.047  14.970 -2.0331  0.2167 -0.9694
  338TIP3   OH222428   0.460   2.011  12.378 -0.4843  0.1229  0.4234
  338TIP3    H122429   0.376   2.003  12.424 -0.7751 -0.1146 -0.1299
  338TIP3    H222430   0.521   2.042  12.444 -0.8714 -0.3016  0.9952
  339TIP3   OH222431   4.508   3.300  15.770  0.1198 -0.4915 -0.2016
  339TIP3    H122432   4.579   3.238  15.755  2.0263  1.2885  1.0458
  339TIP3    H222433   4.526   3.373  15.710 -1.9002 -0.9081 -1.4147
  340TIP3   OH222434   3.298   0.320  16.946  0.0946 -0.0020 -0.0408
  340TIP3    H122435   3.272   0.407  16.974 -0.7995  0.1783 -1.3225
  340TIP3    H222436   3.296   0.267  17.026  1.0136  1.2151  0.8207
  341TIP3   OH222437   4.357   6.593  10.943 -0.3478 -0.0423  0.3559
  341TIP3    H122438   4.400   6.671  10.907 -1.5647  0.5636  0.1852
  341TIP3    H222439   4.350   6.611  11.037 -1.3422  0.4131  0.2015
  342TIP3   OH222440   2.498   5.680   4.868 -0.5430 -0.3736 -0.9400
  342TIP3    H122441   2.469   5.771   4.873 -2.0334 -0.8432 -0.5906
  342TIP3    H222442   2.506   5.663   4.774  1.1322  0.4985 -1.0016
  343TIP3   OH222443   6.183   1.795   5.817  0.0496  0.2202 -0.3282
  343TIP3    H122444   6.230   1.843   5.885 -0.0297 -1.1592  0.7436
  343TIP3    H222445   6.139   1.863   5.766  0.3467  1.3145  0.8181
  344TIP3   OH222446   5.780   4.938  14.580 -0.0099  0.1916 -0.8820
  344TIP3    H122447   5.705   4.997  14.569 -0.5072 -0.3400 -0.3845
  344TIP3    H222448   5.847   4.972  14.520 -0.2165  1.3816 -0.4611
  345TIP3   OH222449   1.004   3.693  15.599 -0.4831  0.2105  0.8957
  345TIP3    H122450   0.954   3.762  15.556 -0.1157  0.1806  0.4247
  345TIP3    H222451   1.017   3.725  15.689  2.1512  2.0668 -0.0429
  346TIP3   OH222452   0.453   0.235   3.107  0.0946 -0.3504  0.4985
  346TIP3    H122453   0.469   0.242   3.201 -0.4003  2.1620  0.4801
  346TIP3    H222454   0.377   0.179   3.099  1.6129 -2.6813  1.3668
  347TIP3   OH222455   1.514   1.802   6.066 -0.2259  0.3587  0.0759
  347TIP3    H122456   1.565   1.809   5.986  2.3327  0.2935  1.6084
  347TIP3    H222457   1.516   1.890   6.103  0.3919 -0.0610  1.0715
  348TIP3   OH222458   6.238   4.915   3.245  0.7030 -0.3759  0.0977
  348TIP3    H122459   6.246   4.822   3.221  0.1774 -0.4248  0.1070
  348TIP3    H222460   6.145   4.935   3.234  0.7144  0.0022  0.6592
  349TIP3   OH222461   0.061   2.423  12.350  0.0373 -0.2000 -0.3122
  349TIP3    H122462   0.007   2.393  12.276 -0.7447 -2.2523  1.0058
  349TIP3    H222463   0.023   2.379  12.426  1.1461  1.4434  1.2641
  350TIP3   OH222464   6.132   2.110   0.642 -0.0574 -0.7261 -0.4785
  350TIP3    H122465   6.074   2.059   0.698 -0.2600 -0.6215 -0.5913
  350TIP3    H222466   6.212   2.057   0.634  0.9419  0.2969  1.8564
  351TIP3   OH222467   1.592   2.969   1.013 -0.7327  0.5431 -0.1689
  351TIP3    H122468   1.646   2.892   0.994 -2.3199 -0.3561 -1.2773
  351TIP3    H222469   1.596   2.978   1.108 -0.9426 -1.2812  0.0586
  352TIP3   OH222470   0.565   4.877  14.162  0.3223 -0.1514 -0.0316
  352TIP3    H122471   0.611   4.793  14.167  1.1047  0.3182  0.9598
  352TIP3    H222472   0.493   4.869  14.225  0.8911  0.2059  0.6750
  353TIP3   OH222473   5.751   2.372  10.708  0.2268  0.2575  0.6049
  353TIP3    H122474   5.749   2.398  10.801  0.2716  0.4129  0.5629
  353TIP3    H222475   5.839   2.336  10.696 -0.7064 -2.4658  1.3393
  354TIP3   OH222476   0.680   0.110  15.402  0.1651  0.7223 -0.4654
  354TIP3    H122477   0.602   0.093  15.454  0.0782  0.2966 -0.7306
  354TIP3    H222478   0.670   0.054  15.325 -0.2006  2.0872 -1.4472
  355TIP3   OH222479   4.803   3.319   5.267  0.5790 -0.4857 -0.2941
  355TIP3    H122480   4.714   3.354   5.262  0.2403 -1.3274 -0.3624
  355TIP3    H222481   4.803   3.266   5.347  1.5112  0.8028  0.6038
  356TIP3   OH222482   1.197   6.370   4.779  0.2825 -0.3078 -0.3557
  356TIP3    H122483   1.138   6.299   4.805  0.7809 -0.1724  1.2831
  356TIP3    H222484   1.146   6.422   4.718 -1.7080  0.3591  1.7362
  357TIP3   OH222485   1.683   0.195   2.630 -0.1482 -0.1344  0.1713
  357TIP3    H122486   1.605   0.140   2.632  0.1902 -0.6204  0.0653
  357TIP3    H222487   1.687   0.233   2.718 -0.3323 -0.3466  0.2728
  358TIP3   OH222488   4.491   5.450  13.563 -0.0257 -0.5447  0.3336
  358TIP3    H122489   4.459   5.529  13.521  0.0444 -0.1470  1.0112
  358TIP3    H222490   4.416   5.418  13.614  0.2321 -0.3669  0.8371
  359TIP3   OH222491   2.190   5.171  16.632 -0.2042  0.0043 -0.3973
  359TIP3    H122492   2.264   5.131  16.677 -0.2272 -0.0685 -0.4233
  359TIP3    H222493   2.221   5.182  16.542  0.0203  0.6161 -0.2492
  360TIP3   OH222494   2.036   0.358   1.443 -0.5278 -1.1808 -0.1221
  360TIP3    H122495   2.106   0.404   1.396 -1.1487 -1.5045 -1.4225
  360TIP3    H222496   1.990   0.427   1.491  0.2532 -0.8680  0.1920
  361TIP3   OH222497   0.620   2.802  16.759 -0.2970  0.0277  0.3600
  361TIP3    H122498   0.551   2.851  16.804  0.1928 -0.0674  1.2553
  361TIP3    H222499   0.692   2.865  16.753 -0.1472 -0.1538  0.2702
  362TIP3   OH222500   4.705   5.326  11.728 -0.1885  0.5930 -0.0144
  362TIP3    H122501   4.711   5.417  11.700 -1.5748  1.0055  0.8946
  362TIP3    H222502   4.618   5.298  11.698 -0.7241  0.3171  1.6844
  363TIP3   OH222503   2.713   0.800   3.630 -0.1018 -0.3314 -0.0566
  363TIP3    H122504   2.713   0.888   3.667  2.3397  0.6811 -2.1569
  363TIP3    H222505   2.621   0.783   3.611 -0.7148  1.4994  0.9484
  364TIP3   OH222506   1.051   0.476   6.135  0.3353  0.3480 -0.0339
  364TIP3    H122507   1.136   0.508   6.106  2.2375 -3.1080  1.1471
  364TIP3    H222508   1.007   0.448   6.054  0.7593  1.1107 -0.5452
  365TIP3   OH222509   4.209   2.548  16.165 -0.0262 -0.4393  0.6119
  365TIP3    H122510   4.262   2.613  16.211  0.7132 -0.4868 -0.1562
  365TIP3    H222511   4.237   2.554  16.074 -3.3558  1.6021 -0.4750
  366TIP3   OH222512   3.060   4.944   3.064 -0.0580 -0.5773  0.0848
  366TIP3    H122513   2.967   4.960   3.051 -0.0098  0.5895  1.0310
  366TIP3    H222514   3.066   4.851   3.084 -0.7930 -1.0887 -1.8552
  367TIP3   OH222515   1.017   0.219   5.463 -0.0765 -0.0406  0.2076
  367TIP3    H122516   1.070   0.249   5.537  1.1031 -2.9684  0.6865
  367TIP3    H222517   0.931   0.203   5.501 -0.4561  1.6002  0.1410
  368TIP3   OH222518   0.265   2.848   1.700  0.2308 -0.2976  0.5222
  368TIP3    H122519   0.309   2.794   1.634  0.9097 -0.5812  1.1894
  368TIP3    H222520   0.332   2.909   1.730 -0.0105 -0.3031  1.0891
  369TIP3   OH222521   3.720   3.866   3.251 -0.3207  0.1701  0.1470
  369TIP3    H122522   3.771   3.796   3.291 -0.5928 -0.1763 -0.1009
  369TIP3    H222523   3.649   3.821   3.205 -0.8250  0.6429  0.4490
  370TIP3   OH222524   3.376   0.731  15.047 -0.3924 -0.2536 -0.3220
  370TIP3    H122525   3.446   0.750  15.109 -0.6382  0.5701 -0.2795
  370TIP3    H222526   3.372   0.809  14.991 -0.9974 -0.4574 -0.5757
  371TIP3   OH222527   4.003   6.557   1.078 -0.3472 -0.0414  1.0422
  371TIP3    H122528   3.934   6.507   1.034 -0.3873  0.1068  0.9354
  371TIP3    H222529   3.957   6.621   1.132 -0.2968  0.4900  0.4731
  372TIP3   OH222530   3.006   1.995   5.274  0.2081  0.2729 -0.1070
  372TIP3    H122531   2.935   2.004   5.211 -1.2844 -2.3725  1.0421
  372TIP3    H222532   2.972   2.034   5.354  0.7251  0.4629  0.0237
  373TIP3   OH222533   4.065   0.368  12.141  0.3567 -0.1591 -0.2806
  373TIP3    H122534   4.100   0.379  12.053  0.2234 -0.4172 -0.3662
  373TIP3    H222535   4.107   0.288  12.174 -0.1901 -0.5043 -0.4064
  374TIP3   OH222536   6.462   3.013  15.347 -0.5492 -0.2877  0.2269
  374TIP3    H122537   6.404   3.077  15.390 -0.0105  0.7392 -0.5229
  374TIP3    H222538   6.406   2.937  15.333 -1.6547  0.5647 -0.2108
  375TIP3   OH222539   1.194   0.383  15.275  0.0188  0.0434 -0.1109
  375TIP3    H122540   1.244   0.443  15.331 -1.3698  1.2624 -0.1185
  375TIP3    H222541   1.107   0.421  15.272 -0.7066 -1.6019 -0.7518
  376TIP3   OH222542   5.987   1.974   2.110 -0.0989 -0.0795 -0.0609
  376TIP3    H122543   6.057   2.025   2.069  0.3234 -1.3991 -1.0602
  376TIP3    H222544   5.907   2.008   2.071  0.1452  0.1151 -0.3982
  377TIP3   OH222545   1.878   6.060   0.913  0.0402 -0.0683  0.0281
  377TIP3    H122546   1.801   6.113   0.891  0.3289  0.8539  1.1796
  377TIP3    H222547   1.915   6.101   0.991  0.8985 -1.3381  0.3287
  378TIP3   OH222548   3.603   1.120  10.618  0.2873  0.1557  0.4719
  378TIP3    H122549   3.598   1.113  10.714 -1.9623  1.4972  0.5423
  378TIP3    H222550   3.567   1.207  10.599  1.8228  0.4179 -1.5541
  379TIP3   OH222551   3.503   3.744  16.236  0.4947  0.4415  0.3857
  379TIP3    H122552   3.546   3.658  16.234 -0.0533  0.1733 -1.2233
  379TIP3    H222553   3.464   3.749  16.324 -2.4819 -2.5333 -0.5444
  380TIP3   OH222554   3.367   4.494   1.259 -0.0095  0.2808  0.4876
  380TIP3    H122555   3.285   4.457   1.291  0.4080  1.2391  2.9001
  380TIP3    H222556   3.344   4.582   1.230  0.3447  1.1697  2.6956
  381TIP3   OH222557   4.312   0.041   6.865 -0.1859  0.1200  0.5600
  381TIP3    H122558   4.289   0.126   6.903  0.7666  0.5387  0.2435
  381TIP3    H222559   4.408   0.041   6.866  0.0446  1.0576 -3.7074
  382TIP3   OH222560   2.638   6.047   1.979 -0.0570 -0.2851  0.1599
  382TIP3    H122561   2.563   6.016   1.928  0.7649 -0.4488 -0.9971
  382TIP3    H222562   2.631   5.999   2.062  0.5942 -2.8998 -1.1770
  383TIP3   OH222563   5.332   5.850   4.636  0.0841 -0.0628 -0.0828
  383TIP3    H122564   5.410   5.795   4.637 -1.0422 -1.7640 -0.4645
  383TIP3    H222565   5.319   5.871   4.543  0.0937  0.2211 -0.0206
  384TIP3   OH222566   1.829   5.729   5.259  0.3483 -0.3214 -0.1368
  384TIP3    H122567   1.768   5.699   5.326  2.3896 -1.5718  1.2795
  384TIP3    H222568   1.814   5.823   5.254 -0.8930 -0.4193  0.9809
  385TIP3   OH222569   2.076   4.197  14.981  0.3987  0.3913 -0.4611
  385TIP3    H122570   2.122   4.215  15.062  2.5576  1.5685 -1.8425
  385TIP3    H222571   2.025   4.119  14.999  1.9726 -0.2554  1.5767
  386TIP3   OH222572   2.518   4.874  12.835 -0.3138  0.1511 -0.5057
  386TIP3    H122573   2.594   4.836  12.880 -1.1174  0.1887  0.9445
  386TIP3    H222574   2.496   4.811  12.767 -0.7729 -1.3483  0.9693
  387TIP3   OH222575   6.197   0.440   5.542  0.8313  0.0135 -0.3397
  387TIP3    H122576   6.170   0.468   5.629  0.5825  1.2728 -0.8072
  387TIP3    H222577   6.118   0.448   5.488  1.6122  1.9595 -1.2932
  388TIP3   OH222578   5.095   2.961   0.821 -0.0739 -0.5470  0.6599
  388TIP3    H122579   5.104   2.925   0.733 -2.3736 -1.6640  0.8012
  388TIP3    H222580   5.038   2.899   0.867 -1.7455  1.6990  1.8497
  389TIP3   OH222581   0.962   3.930  15.406  0.1078  0.2510 -0.2959
  389TIP3    H122582   0.958   3.877  15.326 -0.7417  0.0496 -0.1344
  389TIP3    H222583   0.875   3.920  15.445  0.3158  0.8472  0.3338
  390TIP3   OH222584   3.353   2.825   2.872 -0.5783  1.0428  0.3126
  390TIP3    H122585   3.314   2.804   2.787  1.7091  2.1221 -1.0988
  390TIP3    H222586   3.416   2.754   2.887 -0.2763  1.3751  0.6292
  391TIP3   OH222587   3.482   0.220  16.748  0.2910 -0.4063  0.6860
  391TIP3    H122588   3.426   0.249  16.820 -0.8504 -0.5228 -0.1310
  391TIP3    H222589   3.494   0.297  16.694  1.0333 -0.3531  0.9135
  392TIP3   OH222590   1.397   1.112  16.473  0.0928 -0.1739  0.0744
  392TIP3    H122591   1.457   1.043  16.445  1.3403 -0.1509  2.4114
  392TIP3    H222592   1.310   1.079  16.453  0.7890 -0.3534 -3.1321
  393TIP3   OH222593   5.885   3.251  14.688  0.6203  0.3526  0.0254
  393TIP3    H122594   5.822   3.298  14.633  0.8490  1.0918  0.3743
  393TIP3    H222595   5.843   3.246  14.774  0.4537 -0.3930 -0.0964
  394TIP3   OH222596   4.829   2.739  13.993 -0.1927  0.2086 -0.1810
  394TIP3    H122597   4.885   2.702  13.924  0.6544 -0.5290  0.8793
  394TIP3    H222598   4.793   2.819  13.953  0.4152 -0.0980 -1.4127
  395TIP3   OH222599   2.578   4.201   5.553  0.0905  0.1096  0.7214
  395TIP3    H122600   2.556   4.205   5.646  0.2675 -1.0888  0.8323
  395TIP3    H222601   2.624   4.118   5.543 -1.6132 -0.7100 -0.7874
  396TIP3   OH222602   5.610   1.837   2.472 -0.0684 -0.2363 -0.1634
  396TIP3    H122603   5.657   1.893   2.410  2.0657 -1.2451  0.4551
  396TIP3    H222604   5.530   1.811   2.425  0.6694  0.3628 -1.8345
  397TIP3   OH222605   1.094   2.944  12.865  0.0255  0.4214  0.0274
  397TIP3    H122606   1.055   3.004  12.802 -0.0028 -1.1075 -1.4699
  397TIP3    H222607   1.050   2.860  12.851  0.4126 -0.1209  1.7036
  398TIP3   OH222608   2.005   5.108   1.101 -0.3415  0.7876 -0.4715
  398TIP3    H122609   1.937   5.153   1.051 -0.6253  1.0176  0.1079
  398TIP3    H222610   2.007   5.153   1.186  0.9693  1.1828 -0.6925
  399TIP3   OH222611   4.112   4.260  13.073  0.2371 -0.6039 -0.4478
  399TIP3    H122612   4.203   4.289  13.071  0.2933 -0.7741 -0.4103
  399TIP3    H222613   4.108   4.197  13.145 -0.1696  0.2319  0.2779
  400TIP3   OH222614   2.829   1.274  12.617 -0.2521 -0.3723  0.2774
  400TIP3    H122615   2.884   1.347  12.591 -0.2787 -0.7186 -0.7854
  400TIP3    H222616   2.783   1.305  12.695 -0.3924  0.7910 -0.2573
  401TIP3   OH222617   1.637   5.299   2.032  0.1946 -0.0395 -0.2171
  401TIP3    H122618   1.713   5.320   2.086 -0.0492  1.5338 -0.4392
  401TIP3    H222619   1.575   5.257   2.092 -0.9697  3.5668  1.3954
  402TIP3   OH222620   2.349   3.422   1.474  0.3343 -0.9474  0.1979
  402TIP3    H122621   2.379   3.337   1.440  0.7944 -0.3657 -0.8836
  402TIP3    H222622   2.295   3.458   1.404  1.2265  0.2452  0.0998
  403TIP3   OH222623   3.402   1.926   3.490 -0.2116 -0.2751 -0.0158
  403TIP3    H122624   3.473   1.988   3.474  0.4394 -1.0525 -0.2144
  403TIP3    H222625   3.400   1.916   3.585 -0.2805  0.0055  0.0134
  404TIP3   OH222626   3.053   3.600   3.241 -0.3004 -0.8219 -0.4097
  404TIP3    H122627   3.118   3.661   3.206 -2.2715  0.2743 -2.3665
  404TIP3    H222628   3.007   3.650   3.309 -0.9161 -0.6331 -0.9603
  405TIP3   OH222629   2.298   0.160  13.478  0.1503 -0.0425  0.1927
  405TIP3    H122630   2.279   0.094  13.411 -0.5545  0.5183 -0.1752
  405TIP3    H222631   2.212   0.188  13.510  0.4665  0.1041  0.9292
  406TIP3   OH222632   1.260   4.605   0.982  0.1105  0.1530 -0.0659
  406TIP3    H122633   1.206   4.619   1.060 -0.4960  0.6553 -0.5556
  406TIP3    H222634   1.308   4.687   0.972 -1.0524  0.7451 -1.1374
  407TIP3   OH222635   2.507   0.057  16.050 -0.3542  0.3230 -0.2792
  407TIP3    H122636   2.540  -0.019  16.099 -0.5821  0.8423  0.7113
  407TIP3    H222637   2.511   0.030  15.958  0.8972 -0.3651 -0.0452
  408TIP3   OH222638   5.018   1.157  17.313  0.1477  0.0269 -0.6659
  408TIP3    H122639   4.973   1.171  17.396 -1.0259 -1.4581 -1.0155
  408TIP3    H222640   4.972   1.084  17.272  0.7867  0.6165 -2.5689
  409TIP3   OH222641   5.439   2.809  12.615  0.3837 -0.2607 -0.2897
  409TIP3    H122642   5.407   2.858  12.539  0.8376  0.2203 -0.1730
  409TIP3    H222643   5.533   2.827  12.618  0.1508  0.9437  1.2567
  410TIP3   OH222644   1.190   5.145  15.066 -0.1281 -0.7896  0.3829
  410TIP3    H122645   1.157   5.116  14.981 -0.9742  0.9697  0.0560
  410TIP3    H222646   1.113   5.147  15.123  0.3183 -1.3443  1.0330
  411TIP3   OH222647   4.479   6.735   4.803 -0.0862  0.1550 -0.1126
  411TIP3    H122648   4.544   6.685   4.853  1.1107 -1.1751 -2.8313
  411TIP3    H222649   4.531   6.797   4.752 -1.2867  1.4992  0.2332
  412TIP3   OH222650   2.437   6.535   2.352  0.2430 -0.3636  0.1234
  412TIP3    H122651   2.496   6.535   2.428  0.0307 -0.8878  0.2913
  412TIP3    H222652   2.494   6.554   2.278  0.5324 -0.3299  0.3504
  413TIP3   OH222653   4.575   5.872   2.067  0.2868  0.0921  0.2016
  413TIP3    H122654   4.512   5.810   2.104  0.9702  0.3308  1.8428
  413TIP3    H222655   4.654   5.861   2.121  1.5631  0.0308 -1.6014
  414TIP3   OH222656   1.356   4.717   1.276 -0.4135 -0.6260 -0.3445
  414TIP3    H122657   1.306   4.787   1.234 -0.3837  0.2039  0.9489
  414TIP3    H222658   1.293   4.672   1.331 -0.9174 -2.9771 -2.6633
  415TIP3   OH222659   4.921   4.864   0.191  0.3935  0.0105  0.5507
  415TIP3    H122660   4.929   4.956   0.165 -1.3466  0.2712  0.7628
  415TIP3    H222661   4.827   4.846   0.183  0.8999 -2.3096 -1.3325
  416TIP3   OH222662   4.507   4.863  11.668 -0.4322  0.7703 -0.1150
  416TIP3    H122663   4.413   4.848  11.678 -0.3105 -0.9824 -1.2021
  416TIP3    H222664   4.546   4.776  11.671  1.1036  1.4121 -0.3430
  417TIP3   OH222665   0.472   4.980  16.042 -0.1966 -0.0276 -0.3382
  417TIP3    H122666   0.450   5.013  15.955 -1.4012  0.2113  0.0314
  417TIP3    H222667   0.519   4.898  16.026  1.4918  1.0654 -1.2395
  418TIP3   OH222668   2.996   4.191   4.102 -1.1562  0.3036 -0.1507
  418TIP3    H122669   3.053   4.174   4.027  0.7643 -1.4403  1.5686
  418TIP3    H222670   2.940   4.263   4.074  0.5781  0.8040 -2.6580
  419TIP3   OH222671   4.652   4.451  13.121 -0.1634 -0.8070 -0.1888
  419TIP3    H122672   4.617   4.428  13.207 -0.3164  0.6757  0.1629
  419TIP3    H222673   4.678   4.542  13.129 -1.0656 -0.3539 -1.9885
  420TIP3   OH222674   0.749   1.466   2.549  0.0386  0.0181  0.2520
  420TIP3    H122675   0.670   1.469   2.496  1.6196  0.6619 -2.2602
  420TIP3    H222676   0.748   1.379   2.590 -2.1037  0.1712  0.6393
  421TIP3   OH222677   3.662   2.436  15.468 -0.0245 -0.3992  0.4927
  421TIP3    H122678   3.726   2.398  15.408 -0.1379  0.4476 -0.1708
  421TIP3    H222679   3.679   2.391  15.551  0.6731 -0.9965  0.0459
  422TIP3   OH222680   3.217   3.366  10.873 -0.4938  0.0326 -0.2432
  422TIP3    H122681   3.241   3.435  10.811 -1.2597 -0.1228 -0.7169
  422TIP3    H222682   3.301   3.339  10.912 -0.2757  1.8211  0.6039
  423TIP3   OH222683   6.357   4.102  14.327 -0.2969  0.4245  0.1024
  423TIP3    H122684   6.389   4.187  14.357 -0.6168  0.2692  0.9077
  423TIP3    H222685   6.262   4.113  14.322 -0.3175  0.1908 -0.0178
  424TIP3   OH222686   0.997   2.018   2.874  0.4115  0.0791  1.2172
  424TIP3    H122687   1.004   2.035   2.968  4.7577 -1.0806  1.3053
  424TIP3    H222688   1.040   2.094   2.833  0.4408 -0.4248  0.2951
  425TIP3   OH222689   6.313   4.899  12.524  0.3896 -0.1602  0.1510
  425TIP3    H122690   6.347   4.821  12.481 -1.5054 -1.5287  0.9904
  425TIP3    H222691   6.277   4.952  12.453  0.9545 -0.4275 -0.3444
  426TIP3   OH222692   6.749   3.913   2.542 -0.3988 -0.3663 -0.2632
  426TIP3    H122693   6.810   3.924   2.469  0.4268  0.6285  0.5403
  426TIP3    H222694   6.715   4.001   2.558 -1.5224 -0.7916 -0.2373
  427TIP3   OH222695   2.870   0.077  15.621 -0.1574  0.1565  0.0694
  427TIP3    H122696   2.811   0.152  15.625 -1.5100 -0.8694  0.0113
  427TIP3    H222697   2.840   0.028  15.544  0.2745 -0.7901  0.4944
  428TIP3   OH222698   4.601   6.709  11.269  0.3882 -0.1732  0.0781
  428TIP3    H122699   4.658   6.701  11.192 -0.9019 -1.6490 -0.7827
  428TIP3    H222700   4.620   6.796  11.304  0.3688  0.9320 -2.4482
  429TIP3   OH222701   3.319   1.387  11.495  0.2154  0.1495  0.8626
  429TIP3    H122702   3.236   1.348  11.465 -0.4277  1.8046  0.3662
  429TIP3    H222703   3.336   1.344  11.579 -2.1752  1.0549  1.9184
  430TIP3   OH222704   5.864   4.582   5.774  0.2822 -0.0433 -0.1573
  430TIP3    H122705   5.840   4.600   5.683  0.2268 -0.1241 -0.1594
  430TIP3    H222706   5.836   4.660   5.823 -0.8172 -0.5072 -0.0201
  431TIP3   OH222707   0.587   0.095   6.068  0.1710  0.0446 -0.2284
  431TIP3    H122708   0.666   0.044   6.053  0.5224  0.4824  0.0966
  431TIP3    H222709   0.531   0.038   6.121  0.2830 -0.2515 -0.4270
  432TIP3   OH222710   0.553   5.510   6.366  0.0227 -0.1219 -0.4202
  432TIP3    H122711   0.553   5.416   6.348 -0.5653 -0.2808  0.3550
  432TIP3    H222712   0.467   5.527   6.403  0.5377  0.5097  0.5259
  433TIP3   OH222713   4.628   2.367   1.091  0.0792  0.0217 -0.0989
  433TIP3    H122714   4.540   2.404   1.087 -0.4831 -1.3354 -2.2074
  433TIP3    H222715   4.626   2.308   1.167 -0.1196  1.5279  1.1178
  434TIP3   OH222716   3.497   3.292  14.906  0.7635  0.5579 -0.4888
  434TIP3    H122717   3.528   3.363  14.850 -0.0855  1.1892 -0.1832
  434TIP3    H222718   3.403   3.308  14.915  0.6011 -0.4695 -0.2150
  435TIP3   OH222719   3.328   2.562  13.389  0.4266 -0.1317 -0.5568
  435TIP3    H122720   3.318   2.495  13.457 -0.0666  0.3222 -0.1759
  435TIP3    H222721   3.403   2.614  13.418  0.1650  0.1124 -0.3118
  436TIP3   OH222722   6.147   3.238   5.348  0.2548  0.1497 -0.1038
  436TIP3    H122723   6.234   3.221   5.383 -0.3137 -0.2737  1.1627
  436TIP3    H222724   6.124   3.326   5.380  0.2196  0.2602 -0.4305
  437TIP3   OH222725   2.927   4.380   5.094 -0.0158  0.3116 -0.2074
  437TIP3    H122726   2.912   4.469   5.124  2.1965  1.3348 -1.8408
  437TIP3    H222727   2.985   4.342   5.160  0.2553  0.5919 -0.2848
  438TIP3   OH222728   0.968   2.910  16.916 -0.1137  0.3334 -0.1425
  438TIP3    H122729   0.929   2.952  16.839 -0.8994  0.1085  0.1160
  438TIP3    H222730   1.061   2.901  16.895  0.1571  2.4583 -0.1006
  439TIP3   OH222731   3.374   3.601  11.059  0.0343 -0.3191 -0.7554
  439TIP3    H122732   3.392   3.507  11.057  0.0846 -0.3072 -0.9031
  439TIP3    H222733   3.286   3.610  11.022 -0.1033 -0.3379 -0.4331
  440TIP3   OH222734   3.202   1.970   1.964 -0.1177 -0.8765 -0.1743
  440TIP3    H122735   3.238   2.041   1.911 -0.3760 -1.3050 -0.9420
  440TIP3    H222736   3.227   1.890   1.917 -0.8041 -1.2422  0.0658
  441TIP3   OH222737   0.874   3.539   0.634 -0.2348  0.2088  0.3571
  441TIP3    H122738   0.897   3.463   0.688  0.3777  0.1346  0.0024
  441TIP3    H222739   0.807   3.506   0.574  1.6180 -0.7023 -1.3225
  442TIP3   OH222740   5.008   4.873  12.402 -0.6664  0.6463  0.4471
  442TIP3    H122741   4.931   4.900  12.452  0.6636  0.9661  2.4806
  442TIP3    H222742   5.028   4.785  12.436  0.8245  1.2567  1.2544
  443TIP3   OH222743   5.922   4.905  11.800  0.4905 -0.1767 -0.1168
  443TIP3    H122744   5.891   4.889  11.711 -1.3182  0.2897  0.3812
  443TIP3    H222745   5.935   5.000  11.804  4.0906 -0.4890 -0.8888
  444TIP3   OH222746   4.551   2.015   4.401  0.7283 -0.6205  0.0996
  444TIP3    H122747   4.505   1.993   4.482  0.2518  0.3865  0.1239
  444TIP3    H222748   4.558   1.932   4.354 -0.3294 -0.9569  0.5039
  445TIP3   OH222749   6.423   4.598  11.868 -0.2269 -0.0784  0.2276
  445TIP3    H122750   6.387   4.679  11.902  1.7003  2.0181 -2.2601
  445TIP3    H222751   6.378   4.584  11.785  0.7585 -0.4715 -0.2672
  446TIP3   OH222752   1.057   2.378   4.852 -0.8019  0.3701 -0.5962
  446TIP3    H122753   1.145   2.370   4.814  0.1920 -1.5844  1.8534
  446TIP3    H222754   1.052   2.469   4.881  0.5553  0.4253 -0.4730
  447TIP3   OH222755   1.664   6.343  14.388 -0.0879  0.3696 -0.3595
  447TIP3    H122756   1.683   6.366  14.479 -0.8774 -1.7308  0.3955
  447TIP3    H222757   1.740   6.292  14.360 -0.6170 -0.4734 -0.2822
  448TIP3   OH222758   6.596   3.214   1.844  0.1630 -0.0584 -0.2343
  448TIP3    H122759   6.611   3.303   1.876  0.8465  0.1077 -0.9694
  448TIP3    H222760   6.522   3.182   1.895 -1.4271  1.6701 -1.3305
  449TIP3   OH222761   0.681   6.506   0.588 -0.3472 -0.4626  0.1596
  449TIP3    H122762   0.636   6.546   0.663  0.4581  0.5256  0.1241
  449TIP3    H222763   0.627   6.430   0.566 -2.0560  0.7379  0.0556
  450TIP3   OH222764   5.298   5.980   5.676  0.5325  0.4182 -0.5070
  450TIP3    H122765   5.222   5.979   5.734 -1.6791 -2.3008 -3.0827
  450TIP3    H222766   5.360   5.920   5.715  0.6646  1.3502  0.7667
  451TIP3   OH222767   2.244   3.893  14.706  0.1945 -0.1555  0.0053
  451TIP3    H122768   2.237   3.918  14.799  0.0488 -0.0277 -0.0384
  451TIP3    H222769   2.316   3.947  14.673 -1.1545  1.4396 -0.4827
  452TIP3   OH222770   2.368   2.233   6.091 -0.0110  0.1029 -0.3405
  452TIP3    H122771   2.310   2.173   6.138  0.3338  0.0769  0.0486
  452TIP3    H222772   2.308   2.288   6.039 -0.3769 -0.0134 -0.0441
  453TIP3   OH222773   5.078   4.862   3.027 -0.1020 -0.2857 -0.2009
  453TIP3    H122774   5.028   4.898   3.100 -1.1433 -0.3117 -0.8747
  453TIP3    H222775   5.160   4.831   3.066  1.0138  3.0440  0.3630
  454TIP3   OH222776   4.740   0.537  14.558 -0.5037  0.3045 -0.7652
  454TIP3    H122777   4.688   0.617  14.558 -0.0245  0.6166 -1.0023
  454TIP3    H222778   4.786   0.538  14.475  2.2926  1.6135  0.6525
  455TIP3   OH222779   1.870   6.457  11.021 -0.1453  0.4672  0.1496
  455TIP3    H122780   1.824   6.456  11.105 -0.0423 -0.8238  0.2124
  455TIP3    H222781   1.803   6.437  10.957  0.3802 -2.1440  0.3103
  456TIP3   OH222782   5.581   2.013   4.762  0.5248 -0.2991 -0.3010
  456TIP3    H122783   5.597   2.064   4.842 -0.8950 -1.7433  1.0011
  456TIP3    H222784   5.510   2.060   4.718  1.3734  0.5553 -0.7986
  457TIP3   OH222785   3.886   4.795   0.436 -0.0987 -0.0488  0.1766
  457TIP3    H122786   3.868   4.825   0.525  0.9729 -1.5336  0.9433
  457TIP3    H222787   3.935   4.866   0.395  0.1119  0.3145  1.0515
  458TIP3   OH222788   1.108   2.637  12.212 -0.0211 -0.0110 -0.2464
  458TIP3    H122789   1.122   2.683  12.129 -1.2835  0.5398 -0.1713
  458TIP3    H222790   1.013   2.624  12.217  0.2039 -1.7232  0.2376
  459TIP3   OH222791   5.039   4.484   0.692  0.1005  0.4103  0.1579
  459TIP3    H122792   5.048   4.408   0.634  0.8689  1.1763 -0.7536
  459TIP3    H222793   4.971   4.459   0.754  2.0054 -2.0633  1.4760
  460TIP3   OH222794   2.363   1.580   1.105  0.0603  0.3952  0.1432
  460TIP3    H122795   2.273   1.582   1.137  0.3435  0.3127  0.9568
  460TIP3    H222796   2.377   1.667   1.066  0.1140  0.9759  1.3958
  461TIP3   OH222797   1.897   1.900   4.956 -0.6581 -0.4290 -0.4030
  461TIP3    H122798   1.879   1.951   5.035  1.7435 -1.2055  0.7511
  461TIP3    H222799   1.992   1.909   4.942 -0.0313 -4.4635 -0.1012
  462TIP3   OH222800   1.761   2.666   6.260 -0.1067 -0.2453 -0.5543
  462TIP3    H122801   1.807   2.747   6.239 -1.4273  0.5732 -0.4173
  462TIP3    H222802   1.707   2.688   6.337  0.0768 -1.4688 -0.0536
  463TIP3   OH222803   1.519   4.289   0.096  0.0307  0.0371 -0.1334
  463TIP3    H122804   1.577   4.335   0.156  0.3141 -0.7364  0.2041
  463TIP3    H222805   1.529   4.335   0.013  0.0557  0.7751  0.2703
  464TIP3   OH222806   4.979   4.312   1.615  0.1445 -0.1689  0.3433
  464TIP3    H122807   5.005   4.383   1.556  0.9718 -1.0750 -0.4078
  464TIP3    H222808   4.883   4.309   1.607  0.2426 -0.2985 -0.9946
  465TIP3   OH222809   2.449   0.580   3.997  0.0314 -0.3938  0.1582
  465TIP3    H122810   2.410   0.638   4.063  0.7296  2.4562 -1.7195
  465TIP3    H222811   2.540   0.610   3.990 -0.0651 -0.4655 -2.1550
  466TIP3   OH222812   6.352   2.761  11.710  0.0749  0.1682  0.6121
  466TIP3    H122813   6.342   2.856  11.721  0.8705  0.2791  0.4175
  466TIP3    H222814   6.279   2.736  11.653 -1.2275  0.3559  2.1361
  467TIP3   OH222815   6.205   4.538  14.417  0.3321 -0.2162  0.1769
  467TIP3    H122816   6.220   4.500  14.503 -1.1592 -2.2721 -0.3769
  467TIP3    H222817   6.110   4.532  14.405  0.3524  1.3111 -1.0669
  468TIP3   OH222818   2.464   2.470   3.124  0.7742  0.0752  0.9102
  468TIP3    H122819   2.390   2.415   3.099  1.8499 -2.0655  2.1038
  468TIP3    H222820   2.540   2.414   3.111  2.1384  1.9266  0.5200
  469TIP3   OH222821   3.064   1.229   4.343  0.1224  0.3988 -0.0752
  469TIP3    H122822   2.971   1.249   4.344  0.3358  1.6217  2.4520
  469TIP3    H222823   3.071   1.148   4.292 -2.5791 -0.9024  1.4462
  470TIP3   OH222824   0.229   6.516   1.040 -0.4980  0.1598  0.0052
  470TIP3    H122825   0.301   6.453   1.045 -1.5242 -1.3871 -2.6637
  470TIP3    H222826   0.262   6.586   0.984 -0.4914  0.3095  0.1966
  471TIP3   OH222827   3.112   2.888  14.055  0.1893 -0.3488  0.5676
  471TIP3    H122828   3.106   2.900  14.150  1.3583  0.9153  0.5064
  471TIP3    H222829   3.021   2.891  14.024 -0.1478 -0.0267  1.5588
  472TIP3   OH222830   4.954   0.028   2.390  0.6339  0.1592  0.2324
  472TIP3    H122831   5.042  -0.006   2.402  0.8964 -1.1612 -3.9023
  472TIP3    H222832   4.964   0.104   2.333 -0.8882 -2.5392 -4.1575
  473TIP3   OH222833   3.120   5.215   2.218  0.1402  0.4680  0.1369
  473TIP3    H122834   3.075   5.183   2.296  1.0015 -0.6871  0.1821
  473TIP3    H222835   3.102   5.149   2.151  1.3961  0.1984  0.0430
  474TIP3   OH222836   4.884   2.910   1.806  0.2104 -0.5460 -0.0891
  474TIP3    H122837   4.916   2.906   1.896  0.2891 -2.0369 -0.1613
  474TIP3    H222838   4.951   2.959   1.758  0.4207 -0.2019  0.5559
  475TIP3   OH222839   2.138   3.984  14.258 -0.3817  0.5678 -0.0857
  475TIP3    H122840   2.174   4.013  14.174 -2.7162 -0.1897 -1.4413
  475TIP3    H222841   2.050   4.020  14.259 -1.8105 -2.6533  0.1950
  476TIP3   OH222842   5.794   0.782  12.498 -0.2214  0.2580 -0.4579
  476TIP3    H122843   5.712   0.733  12.488  0.1471 -0.1717 -1.4730
  476TIP3    H222844   5.862   0.714  12.505  0.1268  0.6173 -0.3210
  477TIP3   OH222845   0.105   0.375   0.311 -0.0736  0.1693 -0.2508
  477TIP3    H122846   0.125   0.362   0.218 -1.1319  2.1337 -0.8215
  477TIP3    H222847   0.184   0.415   0.348 -0.0236  0.3656 -0.5648
  478TIP3   OH222848   2.880   5.131  15.615  0.3014  0.3593 -0.2382
  478TIP3    H122849   2.804   5.083  15.648  0.0247  0.2590 -1.0081
  478TIP3    H222850   2.849   5.172  15.534  1.2494 -0.1805 -0.8854
  479TIP3   OH222851   1.444   4.180  16.535 -0.5176  0.2562 -0.3626
  479TIP3    H122852   1.532   4.169  16.571 -0.2982  1.2394 -0.5488
  479TIP3    H222853   1.454   4.157  16.442 -0.6511 -0.4615 -0.1975
  480TIP3   OH222854   3.952   3.243   1.698 -0.1018 -0.3932  0.6309
  480TIP3    H122855   4.033   3.192   1.695 -0.3802 -0.8842  1.2098
  480TIP3    H222856   3.894   3.192   1.755 -1.3556 -0.8397 -0.9818
  481TIP3   OH222857   0.127   5.523  15.671 -0.0811  0.3156 -0.2169
  481TIP3    H122858   0.212   5.533  15.629  1.2055  1.9856  2.5231
  481TIP3    H222859   0.104   5.611  15.701 -1.6811 -0.4966  1.0993
  482TIP3   OH222860   6.296   5.901  14.081  0.8423  0.2595 -0.1606
  482TIP3    H122861   6.203   5.904  14.058  0.8132  0.6074  0.0019
  482TIP3    H222862   6.308   5.971  14.145  0.8231 -0.9434  1.2377
  483TIP3   OH222863   5.416   1.733   6.168 -0.4482  0.7439  0.2067
  483TIP3    H122864   5.431   1.732   6.262  0.8612  0.2791  0.0258
  483TIP3    H222865   5.374   1.649   6.149  0.7452  0.1229  0.1984
  484TIP3   OH222866   4.042   2.735  11.937  0.4450  0.0137  0.1937
  484TIP3    H122867   4.027   2.758  11.845  0.7766 -0.7966 -0.0733
  484TIP3    H222868   4.074   2.816  11.977 -1.5489  0.9358  0.0665
  485TIP3   OH222869   0.018   6.076  15.934 -0.0809 -0.6122  0.3234
  485TIP3    H122870   0.090   6.093  15.874 -0.3787 -1.8955 -0.4196
  485TIP3    H222871   0.014   6.155  15.990 -0.2001  0.9140 -1.7266
  486TIP3   OH222872   2.803   5.183  13.401  0.5890 -0.0863  0.0381
  486TIP3    H122873   2.730   5.122  13.399  2.0950 -1.9765 -2.2934
  486TIP3    H222874   2.857   5.153  13.474 -0.7315  1.1703  1.6119
  487TIP3   OH222875   3.107   6.265   4.730 -0.1133 -0.1102  0.5031
  487TIP3    H122876   3.117   6.266   4.635 -0.9597 -0.6479  0.3969
  487TIP3    H222877   3.071   6.351   4.751  0.3124  0.1030  0.3700
  488TIP3   OH222878   2.897   2.643  14.795  0.2097 -0.2224 -0.0935
  488TIP3    H122879   2.907   2.676  14.884 -2.3163  0.4904  0.0023
  488TIP3    H222880   2.899   2.548  14.803 -0.0192 -0.1609  0.7374
  489TIP3   OH222881   5.833   1.040   3.074  0.3458 -0.6287 -0.6180
  489TIP3    H122882   5.929   1.042   3.067  0.2249 -0.8992 -4.1546
  489TIP3    H222883   5.808   0.955   3.036 -1.2979 -1.3942  1.9156
  490TIP3   OH222884   1.989   3.563  10.891 -0.0126  0.3513 -0.2102
  490TIP3    H122885   2.053   3.492  10.888 -1.6164 -1.3633  1.9855
  490TIP3    H222886   1.904   3.518  10.883 -1.0638  2.0539  0.8241
  491TIP3   OH222887   4.959   0.648  11.900 -0.5351 -0.3733 -0.2238
  491TIP3    H122888   4.998   0.734  11.916 -1.2213  0.3551 -2.1962
  491TIP3    H222889   4.997   0.620  11.817 -1.5805 -1.2225 -0.4275
  492TIP3   OH222890   2.240   4.797   3.755 -0.4261 -0.5850  0.1340
  492TIP3    H122891   2.265   4.762   3.840  0.6183 -0.5836 -0.1614
  492TIP3    H222892   2.144   4.804   3.759 -0.5055 -1.8824  0.7910
  493TIP3   OH222893   6.101   4.198   2.860 -0.1224 -0.7104 -0.5496
  493TIP3    H122894   6.092   4.105   2.839 -1.3188 -0.5031 -1.0439
  493TIP3    H222895   6.193   4.218   2.842  0.1649 -1.8089 -0.3643
  494TIP3   OH222896   6.205   4.738   5.815  0.3000  0.2664 -0.1541
  494TIP3    H122897   6.180   4.647   5.828  0.2427  0.2517 -0.3594
  494TIP3    H222898   6.161   4.763   5.734 -0.6971  0.8417  0.5357
  495TIP3   OH222899   2.030   0.037   0.309  0.1553 -0.3447  0.1151
  495TIP3    H122900   1.990  -0.050   0.317 -4.3148  1.4173 -0.1583
  495TIP3    H222901   2.047   0.047   0.216 -0.3837 -0.5331 -0.0067
  496TIP3   OH222902   4.347   5.908  16.209 -0.3377  0.2319  0.0915
  496TIP3    H122903   4.423   5.909  16.152  0.4282 -1.9299  0.9822
  496TIP3    H222904   4.272   5.913  16.149  0.4466 -1.4010 -1.0827
  497TIP3   OH222905   6.554   6.133   0.491 -0.3519 -0.1399 -0.0793
  497TIP3    H122906   6.582   6.224   0.496 -3.0416  0.8960 -1.7016
  497TIP3    H222907   6.464   6.133   0.526 -1.0940 -1.7809 -1.7970
  498TIP3   OH222908   3.817   4.380  13.356 -0.1473  0.0827 -0.2868
  498TIP3    H122909   3.752   4.386  13.286  0.3196 -1.6081 -0.9221
  498TIP3    H222910   3.850   4.290  13.350 -0.0861 -0.1203  2.1010
  499TIP3   OH222911   5.848   3.053  10.792 -0.8651 -0.2753  0.1830
  499TIP3    H122912   5.906   3.104  10.736  1.1346 -0.6353  1.7985
  499TIP3    H222913   5.803   2.993  10.732  1.6234 -1.0814 -1.0189
  500TIP3   OH222914   3.963   1.174  12.567  0.2667 -0.0177  0.3423
  500TIP3    H122915   3.985   1.105  12.503 -0.2640 -0.3148  0.4784
  500TIP3    H222916   4.018   1.248  12.541 -0.5518  0.1545 -0.9848
  501TIP3   OH222917   2.738   5.576   0.190 -0.2642  0.1466 -0.0428
  501TIP3    H122918   2.659   5.544   0.233 -2.5087  0.6363 -3.3986
  501TIP3    H222919   2.760   5.508   0.126 -0.1837  1.5522 -1.5916
  502TIP3   OH222920   1.962   5.354   1.873  0.1973  0.2475 -0.3063
  502TIP3    H122921   1.931   5.313   1.954 -0.1794  0.9612 -0.0808
  502TIP3    H222922   2.056   5.333   1.870  0.6772  1.9205  1.3788
  503TIP3   OH222923   4.875   5.589   2.974 -0.2564 -0.0092 -0.3354
  503TIP3    H122924   4.849   5.670   3.017 -0.1021 -0.7633  1.2738
  503TIP3    H222925   4.824   5.521   3.018  0.1916 -0.8672 -1.1052
  504TIP3   OH222926   2.402   3.532   3.050 -0.1858 -0.2253  0.5744
  504TIP3    H122927   2.417   3.626   3.039 -1.6696 -0.0730 -0.3965
  504TIP3    H222928   2.434   3.512   3.138  0.7938  1.0391  0.5271
  505TIP3   OH222929   4.809   5.576  15.305 -0.3191 -0.6010  0.3298
  505TIP3    H122930   4.733   5.536  15.265 -0.1366  0.4097 -1.0856
  505TIP3    H222931   4.783   5.666  15.323  0.3278 -0.4209  0.4193
  506TIP3   OH222932   0.876   3.020   0.056 -0.0055 -0.7796  0.4623
  506TIP3    H122933   0.914   3.047  -0.027  0.1976  0.2273  0.8650
  506TIP3    H222934   0.950   2.985   0.106 -0.0711 -1.1003  0.3376
  507TIP3   OH222935   6.363   4.065  16.747  0.0419  0.1912 -0.0062
  507TIP3    H122936   6.290   4.126  16.745  0.0090  0.1620  0.2657
  507TIP3    H222937   6.351   4.010  16.669 -0.0732  0.3609 -0.1086
  508TIP3   OH222938   4.087   5.216   1.235 -0.7508  0.0282 -0.0403
  508TIP3    H122939   4.130   5.154   1.294  1.7138  0.4245 -1.2796
  508TIP3    H222940   4.112   5.187   1.147  1.9876  3.5785 -0.6852
  509TIP3   OH222941   1.029   0.821  13.521 -0.3851  0.1793 -0.0210
  509TIP3    H122942   1.092   0.865  13.577  0.9264 -0.8415 -0.6173
  509TIP3    H222943   0.969   0.777  13.581  0.2108  0.1764  0.5780
  510TIP3   OH222944   6.219   5.821   0.667  0.1791  0.4403  0.5585
  510TIP3    H122945   6.292   5.877   0.694  0.6324 -0.5712  1.5352
  510TIP3    H222946   6.260   5.738   0.644 -0.6245 -0.0457  0.8282
  511TIP3   OH222947   2.755   4.773   3.561 -0.0707 -0.6772  0.5467
  511TIP3    H122948   2.826   4.759   3.499  0.0582 -1.3932  0.8395
  511TIP3    H222949   2.678   4.791   3.507 -0.0188 -1.5595  0.1550
  512TIP3   OH222950   3.710   4.374  12.352  0.7822  0.0368  0.1416
  512TIP3    H122951   3.741   4.284  12.352 -1.4501 -0.7819  1.0117
  512TIP3    H222952   3.650   4.379  12.426  1.9242  2.6577  1.0104
  513TIP3   OH222953   6.336   6.043   3.602  0.0283  0.2026 -0.4069
  513TIP3    H122954   6.380   5.978   3.655 -3.0047 -0.7045  1.2368
  513TIP3    H222955   6.293   5.993   3.533 -0.5468  0.7138 -0.4315
  514TIP3   OH222956   2.781   0.982  13.773  0.1802  0.1368  0.2846
  514TIP3    H122957   2.691   1.008  13.751 -0.3403 -1.3480  0.5394
  514TIP3    H222958   2.797   1.022  13.858  0.8603  2.8185 -0.9770
  515TIP3   OH222959   2.770   2.173   1.423 -0.6151  0.2522 -0.1617
  515TIP3    H122960   2.789   2.262   1.392 -1.4744 -0.2120 -2.1050
  515TIP3    H222961   2.689   2.182   1.474 -1.8319  0.3273 -2.0125
  516TIP3   OH222962   0.499   4.435   1.396  0.3098 -0.1673  0.3831
  516TIP3    H122963   0.515   4.478   1.480  1.3195  0.5970 -0.1776
  516TIP3    H222964   0.415   4.470   1.367  0.6631  0.7099  0.3875
  517TIP3   OH222965   3.414   3.992   1.229  0.5624  0.1094  0.0717
  517TIP3    H122966   3.481   4.060   1.236  0.6228  0.0054  0.5121
  517TIP3    H222967   3.343   4.022   1.287  0.5014 -0.1021  0.1067
  518TIP3   OH222968   6.043   4.138   3.547  0.0536 -0.0686 -0.0947
  518TIP3    H122969   6.121   4.100   3.505  0.3988  0.9196 -0.3810
  518TIP3    H222970   6.050   4.232   3.529 -0.7081  0.1508  0.7025
  519TIP3   OH222971   4.222   0.112  13.410  0.0494  0.2252 -0.2177
  519TIP3    H122972   4.162   0.041  13.388  0.1067  0.1594 -0.1647
  519TIP3    H222973   4.252   0.146  13.326  0.4311 -0.1617 -0.2410
  520TIP3   OH222974   5.089   5.944   0.733  0.9121  0.3635 -0.5491
  520TIP3    H122975   5.167   5.932   0.679  0.1855 -0.6002 -1.4236
  520TIP3    H222976   5.040   5.863   0.723 -0.4671  1.1483 -0.4472
  521TIP3   OH222977   1.265   1.535  12.078 -0.0279  0.0319  0.1465
  521TIP3    H122978   1.251   1.488  11.996  2.0916  2.0159 -1.5054
  521TIP3    H222979   1.342   1.493  12.117  0.8430  0.9667 -0.4952
  522TIP3   OH222980   2.396   1.950   1.556 -0.1804 -0.1865 -0.1609
  522TIP3    H122981   2.329   1.960   1.489 -0.1308 -0.1634 -0.2067
  522TIP3    H222982   2.474   1.919   1.509 -0.1781 -0.2759 -0.0988
  523TIP3   OH222983   3.662   2.969   0.613  0.2332  0.3265 -0.2090
  523TIP3    H122984   3.666   2.983   0.519 -0.8952  1.1569 -0.1543
  523TIP3    H222985   3.709   2.887   0.627 -1.8955 -1.2833 -1.8222
  524TIP3   OH222986   4.099   1.010  13.247  0.3561 -0.2942 -0.2465
  524TIP3    H122987   4.104   1.071  13.320  1.7157  0.1714 -0.6914
  524TIP3    H222988   4.182   0.962  13.250  0.2632 -0.5376 -1.2483
  525TIP3   OH222989   0.120   2.579   3.236 -0.2305 -0.0739 -0.3501
  525TIP3    H122990   0.144   2.487   3.242  2.0861  0.5048  0.3601
  525TIP3    H222991   0.061   2.594   3.310 -0.3127 -0.9061 -0.2426
  526TIP3   OH222992   5.504   5.519   4.342 -0.2369  0.2796  0.1592
  526TIP3    H122993   5.498   5.455   4.412  2.0806  0.9083  1.0279
  526TIP3    H222994   5.489   5.469   4.261 -1.8416 -0.6489  0.9838
  527TIP3   OH222995   3.754   3.750  14.646  0.5037  0.2272 -0.0577
  527TIP3    H122996   3.812   3.781  14.716 -0.5865  2.4205 -0.0425
  527TIP3    H222997   3.797   3.776  14.565  0.2245  0.5624 -0.0975
  528TIP3   OH222998   5.670   5.325  12.869 -0.8209 -0.3143  0.2402
  528TIP3    H122999   5.654   5.329  12.963 -1.4607 -1.3968  0.1889
  528TIP3    H223000   5.600   5.268  12.835 -0.1533 -0.5473 -0.7771
  529TIP3   OH223001   5.947   2.498  10.527  0.0644  0.5165  0.1170
  529TIP3    H123002   5.974   2.411  10.556 -0.7888  0.2253  0.0840
  529TIP3    H223003   5.857   2.507  10.560 -0.4987  0.6770 -1.3776
  530TIP3   OH223004   0.415   6.691   0.337 -0.0664 -0.1607 -0.1041
  530TIP3    H123005   0.452   6.605   0.360 -1.1004 -0.4980  0.3668
  530TIP3    H223006   0.375   6.722   0.418 -1.7432 -0.3049 -0.8391
  531TIP3   OH223007   5.161   5.513  15.402 -0.0422  0.1161  0.3633
  531TIP3    H123008   5.209   5.573  15.459 -0.6399  2.6014 -1.5536
  531TIP3    H223009   5.178   5.545  15.314 -1.6501 -1.6512 -0.6722
  532TIP3   OH223010   4.296   6.740   2.894 -0.0772 -0.5171 -0.1601
  532TIP3    H123011   4.248   6.658   2.885  0.5409 -1.0425  1.0422
  532TIP3    H223012   4.385   6.713   2.917  0.2543  0.4839 -0.2215
  533TIP3   OH223013   3.769   5.679  12.483 -0.0792 -0.3225  0.1166
  533TIP3    H123014   3.819   5.698  12.562 -0.0894 -0.6686  0.2070
  533TIP3    H223015   3.807   5.597  12.450  1.2277  0.7989 -1.3012
  534TIP3   OH223016   4.989   0.062   0.234  0.1068 -0.6332 -0.0346
  534TIP3    H123017   5.011  -0.016   0.285  1.6775 -0.0188  0.2471
  534TIP3    H223018   4.929   0.029   0.166 -1.4485 -1.5878  1.6960
  535TIP3   OH223019   6.764   4.571  16.821 -0.2727  0.2982 -0.8310
  535TIP3    H123020   6.737   4.482  16.800 -0.8558  0.9875 -3.4198
  535TIP3    H223021   6.859   4.566  16.829 -0.3127 -0.5729 -0.8312
  536TIP3   OH223022   5.141   5.482  16.461  0.2158 -0.3521  0.0792
  536TIP3    H123023   5.189   5.476  16.544 -1.6855 -0.7166  1.2429
  536TIP3    H223024   5.056   5.519  16.486  0.1272  0.9844 -1.9803
  537TIP3   OH223025   5.186   5.079  11.990  0.0619 -0.3179  0.0857
  537TIP3    H123026   5.189   5.174  11.988 -0.3228 -0.2984  0.2854
  537TIP3    H223027   5.191   5.057  12.083  2.3204 -0.5843 -0.0441
  538TIP3   OH223028   2.885   4.548  13.700  0.0345 -0.0532  0.5455
  538TIP3    H123029   2.960   4.607  13.703  0.5731 -0.6299 -0.6620
  538TIP3    H223030   2.826   4.587  13.636 -1.0936  0.8022  2.0476
  539TIP3   OH223031   0.486   5.786  14.485 -0.6199 -0.4882  0.0730
  539TIP3    H123032   0.509   5.720  14.551  0.2718  0.0100  0.2768
  539TIP3    H223033   0.471   5.735  14.405  0.8073 -0.8962  0.0383
  540TIP3   OH223034   5.596   2.581  12.141 -0.4591  0.2639 -0.5249
  540TIP3    H123035   5.564   2.643  12.206  0.5743  2.1863 -1.7721
  540TIP3    H223036   5.517   2.553  12.094 -0.7724  2.2385 -1.2748
  541TIP3   OH223037   4.256   2.334   2.461 -0.3818 -0.6863 -0.2103
  541TIP3    H123038   4.345   2.356   2.488 -0.8458  3.2239 -1.1761
  541TIP3    H223039   4.267   2.273   2.388  1.2478 -2.9796  1.7952
  542TIP3   OH223040   2.431   2.380  15.151 -0.1750 -0.5529 -0.1542
  542TIP3    H123041   2.402   2.406  15.064 -0.2349  0.0788  0.0551
  542TIP3    H223042   2.506   2.322  15.135  0.6729  0.6308 -0.5879
  543TIP3   OH223043   6.594   0.356   3.821 -0.3756  0.2541  0.2239
  543TIP3    H123044   6.543   0.293   3.872 -0.9361  1.2650  0.9561
  543TIP3    H223045   6.633   0.414   3.886  0.9008  0.1109 -0.3877
  544TIP3   OH223046   3.209   1.784   4.719 -0.6876 -0.9868 -0.6859
  544TIP3    H123047   3.231   1.767   4.811 -1.7554  0.1926 -0.1788
  544TIP3    H223048   3.113   1.781   4.716 -0.6882 -0.4321 -1.6533
  545TIP3   OH223049   0.412   6.610  12.124 -0.1137 -0.0634 -0.4292
  545TIP3    H123050   0.376   6.690  12.161 -3.7844 -1.8501  0.2816
  545TIP3    H223051   0.336   6.557  12.102  2.1311 -3.4132 -0.8769
  546TIP3   OH223052   4.786   1.603   3.941  0.2618 -0.0378  0.2132
  546TIP3    H123053   4.723   1.606   3.869 -1.9622 -0.0214  2.0374
  546TIP3    H223054   4.801   1.510   3.956 -0.8529 -0.1177  0.9656
  547TIP3   OH223055   3.427   4.015   4.794  1.0723 -0.4106  0.4704
  547TIP3    H123056   3.466   4.079   4.855  2.2631 -2.6782  2.2419
  547TIP3    H223057   3.460   4.041   4.708 -0.7963  3.0138  0.5890
  548TIP3   OH223058   1.545   4.762   0.047  0.1863  1.0077 -0.3344
  548TIP3    H123059   1.615   4.747  -0.017  0.5832  0.2481  0.2523
  548TIP3    H223060   1.557   4.692   0.112 -0.8014  1.1809  0.0525
  549TIP3   OH223061   6.132   5.136  16.599 -0.0916 -0.4498 -0.2434
  549TIP3    H123062   6.100   5.128  16.689  0.5812  1.7158  0.2308
  549TIP3    H223063   6.191   5.061  16.588  2.1650  0.8275  2.1758
  550TIP3   OH223064   3.466   2.299  16.586  0.2063 -0.6708 -0.4370
  550TIP3    H123065   3.412   2.249  16.524 -1.7362  0.8694 -0.0863
  550TIP3    H223066   3.438   2.269  16.672  1.4492 -1.3391 -0.2420
  551TIP3   OH223067   0.927   3.873  12.447  0.4771 -0.0362  0.4367
  551TIP3    H123068   0.888   3.944  12.395 -1.5025 -0.5908  1.0775
  551TIP3    H223069   0.921   3.796  12.391 -0.3984 -0.3477  0.9353
  552TIP3   OH223070   4.260   6.195  15.291 -0.1567 -0.8852  0.3798
  552TIP3    H123071   4.274   6.289  15.278 -1.0663 -0.8311 -0.3205
  552TIP3    H223072   4.289   6.178  15.380 -0.0062  0.0681  0.5179
  553TIP3   OH223073   3.039   4.032   0.436  0.8895  0.3778 -0.0081
  553TIP3    H123074   2.999   4.118   0.449  1.9220  0.5492  2.3950
  553TIP3    H223075   3.110   4.048   0.373  0.5113  1.0915 -0.2619
  554TIP3   OH223076   0.952   1.295   0.229 -0.1919  0.0132  0.4225
  554TIP3    H123077   1.022   1.325   0.286  1.0073 -1.4030 -0.2418
  554TIP3    H223078   0.898   1.239   0.286 -0.4180  0.5708  0.7655
  555TIP3   OH223079   6.307   1.366   1.778  0.1247  0.1836 -0.7315
  555TIP3    H123080   6.267   1.281   1.755  1.3877 -0.8399  0.6414
  555TIP3    H223081   6.233   1.422   1.799 -0.7134 -1.5439  1.3696
  556TIP3   OH223082   2.305   5.506  11.523  0.8566  0.0677 -0.5491
  556TIP3    H123083   2.334   5.488  11.434 -1.7748  0.3553 -1.5641
  556TIP3    H223084   2.296   5.602  11.526  1.1381  0.0787  0.0951
  557TIP3   OH223085   5.822   6.349   5.114  0.0619  0.1550  0.4865
  557TIP3    H123086   5.877   6.341   5.036  0.0103  0.1947  0.4461
  557TIP3    H223087   5.738   6.382   5.082 -0.0633 -0.1257  0.5138
  558TIP3   OH223088   5.677   2.161  14.872  0.2795  0.4948  0.5894
  558TIP3    H123089   5.619   2.237  14.870  1.2839  1.2762 -1.7656
  558TIP3    H223090   5.765   2.197  14.861  0.8248 -0.9574 -0.1097
  559TIP3   OH223091   2.100   6.747   6.028  0.2021  0.2275  0.5482
  559TIP3    H123092   2.086   6.829   5.981 -0.0587 -0.7421 -1.1500
  559TIP3    H223093   2.145   6.773   6.108 -0.9428  2.1494  0.6414
  560TIP3   OH223094   1.139   3.483   5.211  0.1770  0.3849 -0.1416
  560TIP3    H123095   1.050   3.516   5.224  0.4104  1.4079 -0.9626
  560TIP3    H223096   1.195   3.549   5.252  0.6372  0.8414 -1.4649
  561TIP3   OH223097   1.261   4.087  14.702 -0.2027 -0.2910  0.3530
  561TIP3    H123098   1.294   3.998  14.703 -0.0006 -0.2528 -1.3575
  561TIP3    H223099   1.168   4.079  14.726 -0.7796 -1.2593 -1.9924
  562TIP3   OH223100   6.658   5.759   1.007 -0.3746 -1.0342  0.0093
  562TIP3    H123101   6.699   5.679   0.974  2.2316 -0.1574  0.8661
  562TIP3    H223102   6.621   5.735   1.092 -0.2289 -1.4951 -0.0575
  563TIP3   OH223103   4.424   0.520   5.683  0.1900  0.0670  0.4156
  563TIP3    H123104   4.411   0.552   5.594 -0.5265  0.6920  0.7317
  563TIP3    H223105   4.351   0.558   5.732 -0.1217 -1.2585  1.0117
  564TIP3   OH223106   3.690   4.794   3.982 -0.2829  0.5349  0.3447
  564TIP3    H123107   3.734   4.766   3.902  0.3808 -1.8001  1.4194
  564TIP3    H223108   3.605   4.752   3.980 -0.6281  1.2155  0.4444
  565TIP3   OH223109   2.346   5.003  12.476 -0.5107 -0.3475  0.5002
  565TIP3    H123110   2.392   4.938  12.422 -0.0715 -0.5200  1.0723
  565TIP3    H223111   2.253   4.984  12.462 -0.3897 -0.9365  0.4542
  566TIP3   OH223112   2.924   5.605  17.110 -0.3820  0.2676  0.4071
  566TIP3    H123113   2.845   5.591  17.057  0.1322  0.8445 -0.5471
  566TIP3    H223114   2.893   5.656  17.185 -0.8973  0.6558 -0.0509
  567TIP3   OH223115   4.516   6.628  12.263 -0.3819  0.6422  0.3024
  567TIP3    H123116   4.590   6.596  12.213 -0.6636 -3.4343  2.1618
  567TIP3    H223117   4.555   6.679  12.334  0.7059 -1.1018  1.0211
  568TIP3   OH223118   2.530   2.066   4.943 -0.3801  0.6384 -0.4117
  568TIP3    H123119   2.535   2.106   4.857 -0.6005  2.0291  0.1893
  568TIP3    H223120   2.438   2.074   4.969 -0.6610 -1.1946 -0.6649
  569TIP3   OH223121   6.755   4.217   3.466 -0.1542  0.0164 -0.2752
  569TIP3    H123122   6.811   4.204   3.542 -2.4319  1.2920  1.7545
  569TIP3    H223123   6.808   4.270   3.406  1.0181  0.6993  1.2953
  570TIP3   OH223124   3.007   0.474  16.419  0.3217 -0.2643 -0.5714
  570TIP3    H123125   3.057   0.399  16.449 -0.1954 -0.1191  0.6999
  570TIP3    H223126   2.930   0.437  16.376  1.1996 -0.4756 -2.0328
  571TIP3   OH223127   3.004   2.084   6.317 -0.0881 -0.1826  0.1189
  571TIP3    H123128   3.068   2.015   6.334 -0.6878 -0.4649  1.4414
  571TIP3    H223129   3.037   2.160   6.364 -0.2757 -0.0678  0.0665
  572TIP3   OH223130   4.771   5.917  12.440  0.1421 -0.0493  0.5735
  572TIP3    H123131   4.675   5.918  12.443  0.0748 -0.7101 -0.7206
  572TIP3    H223132   4.797   5.845  12.497 -0.2100 -0.8800 -0.2996
  573TIP3   OH223133   5.936   2.180  14.524 -0.2402 -0.1599 -0.1496
  573TIP3    H123134   5.848   2.213  14.542 -1.1130 -0.9270 -2.5339
  573TIP3    H223135   5.963   2.226  14.444  0.8131 -1.1489 -0.4010
  574TIP3   OH223136   2.376   1.313   1.023  0.1551  0.5741 -0.4062
  574TIP3    H123137   2.471   1.328   1.026  0.2901 -0.2929  0.2663
  574TIP3    H223138   2.338   1.397   1.047  0.7597  0.9300 -0.6767
  575TIP3   OH223139   3.955   2.765   1.155 -0.7700 -0.1008 -0.0827
  575TIP3    H123140   4.017   2.695   1.134 -1.8078 -0.9720 -0.3562
  575TIP3    H223141   4.010   2.839   1.182  0.3642 -0.9172 -0.0834
  576TIP3   OH223142   2.969   2.206  11.377  0.5570  0.2998  0.1076
  576TIP3    H123143   2.970   2.111  11.363 -0.5063  0.2966 -0.0661
  576TIP3    H223144   3.056   2.227  11.411  0.5133 -0.8686  0.9993
  577TIP3   OH223145   6.181   4.588   3.200  0.3714  0.7923  0.1043
  577TIP3    H123146   6.089   4.567   3.216  0.4555 -0.2194 -0.6599
  577TIP3    H223147   6.229   4.530   3.260  0.5347  0.5556 -0.2523
  578TIP3   OH223148   0.536   3.769   2.650 -0.3165 -0.1742 -0.1332
  578TIP3    H123149   0.574   3.701   2.705  0.1583 -0.0597 -0.3156
  578TIP3    H223150   0.556   3.851   2.696 -2.2858 -0.2345  0.9309
  579TIP3   OH223151   6.121   2.501   0.211  0.2434  0.1350 -0.1784
  579TIP3    H123152   6.057   2.450   0.160 -0.0753  1.2984 -0.9832
  579TIP3    H223153   6.094   2.592   0.199  2.3038  0.6950 -0.9113
  580TIP3   OH223154   4.986   1.158  14.978  0.1561  0.1198  0.3768
  580TIP3    H123155   4.933   1.142  14.900  1.1753  0.7902 -0.4725
  580TIP3    H223156   4.921   1.175  15.047 -0.7925  2.8057 -1.0261
  581TIP3   OH223157   1.529   3.937   5.081 -0.7307  0.4617  0.9978
  581TIP3    H123158   1.557   3.846   5.093 -0.8744  0.2495 -0.2213
  581TIP3    H223159   1.501   3.965   5.169  1.4484  0.0722  1.9065
  582TIP3   OH223160   1.916   1.583   0.357  0.3017 -0.0523 -0.0779
  582TIP3    H123161   1.866   1.568   0.437 -0.1849  1.7653  0.0018
  582TIP3    H223162   1.931   1.496   0.321 -1.5840 -0.7562  0.7250
  583TIP3   OH223163   4.261   6.146  14.206  0.2434 -0.4264 -0.7594
  583TIP3    H123164   4.339   6.091  14.220 -0.1538 -1.2945 -1.7790
  583TIP3    H223165   4.292   6.217  14.150  0.4443 -0.4430 -0.6693
  584TIP3   OH223166   5.669   2.204   4.952  0.4574 -0.3357  0.0206
  584TIP3    H123167   5.716   2.271   5.001  0.8269 -1.5414  1.3914
  584TIP3    H223168   5.604   2.170   5.013 -1.5558  0.5523 -1.4913
  585TIP3   OH223169   6.603   0.277   0.383 -0.9856  0.0582  0.2199
  585TIP3    H123170   6.688   0.310   0.354 -1.2630 -1.0652 -2.1071
  585TIP3    H223171   6.624   0.207   0.445 -0.2008 -0.1040 -0.2216
  586TIP3   OH223172   3.061   0.984  12.946 -0.3208 -0.3921 -0.3798
  586TIP3    H123173   3.021   1.019  12.866 -1.3578 -0.9827 -0.1455
  586TIP3    H223174   2.986   0.967  13.004  0.2900 -1.4231  0.1251
  587TIP3   OH223175   1.161   3.964   4.899 -0.2704 -0.1275 -0.2284
  587TIP3    H123176   1.086   3.911   4.872 -1.1376  0.7395  0.4202
  587TIP3    H223177   1.159   3.961   4.995 -0.6733  1.4977 -0.1587
  588TIP3   OH223178   5.690   3.604   5.225 -0.1964  0.5754 -0.2929
  588TIP3    H123179   5.770   3.565   5.189 -0.2665  0.2523 -0.1006
  588TIP3    H223180   5.622   3.581   5.161 -0.0305  1.3552 -0.7597
  589TIP3   OH223181   6.050   1.472   1.785  0.6394  0.3579  0.0248
  589TIP3    H123182   6.018   1.558   1.757  0.4458  0.9403  1.8791
  589TIP3    H223183   6.011   1.460   1.872  1.9155 -0.9101  0.4451
  590TIP3   OH223184   6.717   2.994  14.505  0.1102 -0.5401  0.1717
  590TIP3    H123185   6.760   2.910  14.519  0.9785 -0.1509 -0.0394
  590TIP3    H223186   6.647   2.997  14.570  0.3020 -1.2696  0.4205
  591TIP3   OH223187   1.769   3.171   2.068 -0.6459 -0.2873  0.3080
  591TIP3    H123188   1.815   3.213   2.140 -0.1425  0.9295 -0.6803
  591TIP3    H223189   1.774   3.078   2.087  1.3237 -0.1253  0.7618
  592TIP3   OH223190   1.256   1.311   2.327  0.0866 -0.0759 -0.1884
  592TIP3    H123191   1.185   1.249   2.310  0.1355  0.0977 -1.1040
  592TIP3    H223192   1.295   1.327   2.240  0.8699  0.2748  0.2183
  593TIP3   OH223193   3.604   6.250  17.105 -0.7208 -0.4199 -0.0586
  593TIP3    H123194   3.535   6.317  17.105  0.1696  0.5360  0.2464
  593TIP3    H223195   3.557   6.167  17.102 -1.9503  0.1334  1.8540
  594TIP3   OH223196   2.870   6.401  11.975  0.2068  0.4935 -0.7257
  594TIP3    H123197   2.925   6.328  11.945  1.6776  0.8546  0.8963
  594TIP3    H223198   2.845   6.447  11.895 -0.4600 -1.5745 -1.7466
  595TIP3   OH223199   3.093   2.452   3.810  0.2108  0.0569  0.3905
  595TIP3    H123200   3.017   2.434   3.754  1.0594  1.8208 -1.4598
  595TIP3    H223201   3.055   2.463   3.898 -1.5230 -0.2249 -0.2714
  596TIP3   OH223202   1.950   4.209  11.821  0.2222  0.2353  0.1965
  596TIP3    H123203   2.018   4.148  11.853  1.9234  1.8411 -0.1659
  596TIP3    H223204   1.962   4.210  11.726  0.2180  1.1147  0.1967
  597TIP3   OH223205   3.419   3.215   5.260 -0.2060 -0.2426 -0.5327
  597TIP3    H123206   3.392   3.247   5.174  0.6685 -2.8512 -1.8793
  597TIP3    H223207   3.339   3.177   5.297 -0.0585 -1.3869 -1.3335
  598TIP3   OH223208   0.971   1.496   5.857  0.2138 -0.1982  0.5600
  598TIP3    H123209   0.986   1.415   5.905  2.6689 -0.5274 -0.6014
  598TIP3    H223210   1.029   1.489   5.781 -1.2095  1.6652 -0.7849
  599TIP3   OH223211   3.845   5.967  13.616  0.0842 -0.1283 -0.2704
  599TIP3    H123212   3.785   5.973  13.542  0.6176  1.1265 -0.6186
  599TIP3    H223213   3.880   5.877  13.611 -0.5733 -0.3547 -0.9897
  600TIP3   OH223214   2.256   1.726  14.806  0.2149 -0.0426  0.0772
  600TIP3    H123215   2.186   1.781  14.843  0.2592 -0.3098  0.5771
  600TIP3    H223216   2.298   1.781  14.740 -1.0045 -0.1755 -0.8358
  601TIP3   OH223217   2.319   5.307  17.039 -0.3873 -0.1765  0.3205
  601TIP3    H123218   2.293   5.373  17.102 -1.8489 -1.2864  0.9533
  601TIP3    H223219   2.284   5.338  16.956 -0.0986  0.3640  0.3938
  602TIP3   OH223220   3.531   2.850  11.955 -0.1995  0.1558  0.2488
  602TIP3    H123221   3.506   2.854  11.863  0.9617  3.2308 -0.0782
  602TIP3    H223222   3.605   2.791  11.958 -1.2129 -1.1958 -0.4746
  603TIP3   OH223223   2.503   5.654   0.380 -0.8455  0.3490 -0.5752
  603TIP3    H123224   2.485   5.604   0.460 -1.7373 -2.6220 -2.4692
  603TIP3    H223225   2.416   5.676   0.346 -0.6139 -0.9956 -2.1624
  604TIP3   OH223226   1.352   4.842  13.455  0.4283 -0.0135  0.3848
  604TIP3    H123227   1.279   4.900  13.476 -0.1723 -1.2733  1.9813
  604TIP3    H223228   1.315   4.754  13.457  1.5105 -0.5458 -1.1115
  605TIP3   OH223229   4.593   3.376   4.479 -0.3213  0.3381  0.0856
  605TIP3    H123230   4.524   3.438   4.453 -0.6463 -0.3192 -0.6945
  605TIP3    H223231   4.617   3.402   4.567 -1.4712  0.6847  0.3186
  606TIP3   OH223232   1.838   6.644  17.045  0.1502 -0.1176  0.5740
  606TIP3    H123233   1.897   6.619  16.974 -1.6360 -0.1098 -0.9776
  606TIP3    H223234   1.897   6.668  17.118  2.0213 -0.5532 -0.7270
  607TIP3   OH223235   2.511   0.277  16.236  0.3369  0.4498 -0.1372
  607TIP3    H123236   2.430   0.227  16.226  0.5932  0.2753 -1.5302
  607TIP3    H223237   2.578   0.224  16.192  1.1730  0.7092  0.7672
  608TIP3   OH223238   0.941   1.263  12.415 -0.5235  0.0035  0.1662
  608TIP3    H123239   0.910   1.349  12.447  2.5865  1.1937  0.2840
  608TIP3    H223240   0.941   1.272  12.320 -3.6150 -1.2614 -0.0701
  609TIP3   OH223241   4.384   4.372   2.353  0.1236  0.3073 -0.4461
  609TIP3    H123242   4.310   4.430   2.365  0.0363  0.1743 -0.3378
  609TIP3    H223243   4.453   4.427   2.316 -0.2880  0.2555 -1.3058
  610TIP3   OH223244   0.951   0.816   5.410  0.0724 -0.0455 -0.1007
  610TIP3    H123245   0.928   0.880   5.342 -0.8713  1.2307  1.3628
  610TIP3    H223246   1.001   0.749   5.363 -0.6178  0.7318 -2.0720
  611TIP3   OH223247   6.212   1.496  16.974  0.3940 -0.3276 -0.0665
  611TIP3    H123248   6.161   1.576  16.958 -1.2026 -1.2376  0.1953
  611TIP3    H223249   6.300   1.527  16.993 -0.1232  1.3570 -0.2180
  612TIP3   OH223250   4.278   0.090   1.157 -0.1451 -0.2367 -0.1147
  612TIP3    H123251   4.316   0.005   1.179  0.7548  0.2040  0.1107
  612TIP3    H223252   4.354   0.148   1.151 -0.8557  1.0543  2.0445
  613TIP3   OH223253   0.325   4.275   3.229  0.0837  0.6665  0.2393
  613TIP3    H123254   0.345   4.226   3.309  2.1618 -2.3405 -1.8793
  613TIP3    H223255   0.404   4.327   3.212  1.0256 -1.1401 -1.3532
  614TIP3   OH223256   3.632   1.920  16.186  0.3690 -0.8646  0.2090
  614TIP3    H123257   3.724   1.924  16.161 -0.3784  0.3647 -2.9175
  614TIP3    H223258   3.586   1.899  16.104 -2.3630  2.1648  0.7307
  615TIP3   OH223259   1.629   5.399  17.066 -0.0363  0.0943 -0.2682
  615TIP3    H123260   1.643   5.473  17.007  1.4544  1.4840  1.6604
  615TIP3    H223261   1.694   5.412  17.135 -1.4926 -1.5738  1.5239
  616TIP3   OH223262   1.304   3.119  14.669 -0.3656 -0.0038  0.4533
  616TIP3    H123263   1.365   3.125  14.743 -0.3230  1.0782  0.3431
  616TIP3    H223264   1.228   3.074  14.706 -0.3341  0.5002  1.1662
  617TIP3   OH223265   3.541   4.570  16.257 -0.0960  0.3459 -0.2461
  617TIP3    H123266   3.565   4.551  16.166 -0.6475 -1.6827 -0.0112
  617TIP3    H223267   3.455   4.613  16.250 -0.4629 -0.4358 -0.6625
  618TIP3   OH223268   2.323   0.319   4.076  0.2969  0.7667  0.3063
  618TIP3    H123269   2.329   0.414   4.086  1.6045  0.6579  0.7675
  618TIP3    H223270   2.411   0.287   4.096  0.2403 -0.4403 -1.1564
  619TIP3   OH223271   3.466   4.702  11.297 -0.2684 -0.1611  0.1006
  619TIP3    H123272   3.433   4.778  11.344 -0.2270 -0.6805  0.9940
  619TIP3    H223273   3.434   4.713  11.207  2.3890  2.5918 -0.6855
  620TIP3   OH223274   3.778   0.919   3.729  0.6906  0.3359 -0.1738
  620TIP3    H123275   3.829   0.894   3.652  0.1448 -0.2246 -0.3609
  620TIP3    H223276   3.794   1.013   3.739  2.8792 -0.0470  0.6141
  621TIP3   OH223277   2.559   0.299  15.635 -0.2781  0.1613  0.1866
  621TIP3    H123278   2.592   0.338  15.554  2.5940  0.7777  1.5309
  621TIP3    H223279   2.544   0.207  15.613  0.1850  0.3783 -1.1099
  622TIP3   OH223280   4.703   4.597  14.809 -0.4642 -0.7736 -0.5925
  622TIP3    H123281   4.736   4.637  14.728  2.0501 -0.6729  0.3898
  622TIP3    H223282   4.702   4.503  14.790 -0.4779 -0.7057 -0.9481
  623TIP3   OH223283   0.705   3.224  12.440  0.4588  0.3721 -0.8888
  623TIP3    H123284   0.662   3.140  12.424 -0.3005  0.7530 -0.9242
  623TIP3    H223285   0.766   3.234  12.367 -0.1103  0.2704 -1.3865
  624TIP3   OH223286   1.746   3.822  12.299 -1.3514  0.4299 -0.2797
  624TIP3    H123287   1.653   3.843  12.285 -1.8674 -1.8539 -0.6842
  624TIP3    H223288   1.745   3.751  12.363  0.2324  1.2351  0.6915
  625TIP3   OH223289   3.064   1.206   0.258 -0.2264  0.3503 -0.2294
  625TIP3    H123290   2.994   1.268   0.237 -1.1606 -1.1766 -1.9072
  625TIP3    H223291   3.140   1.238   0.211 -0.9441 -0.2076 -1.8357
  626TIP3   OH223292   2.793   5.134  16.050  0.2080 -0.2056  0.5223
  626TIP3    H123293   2.759   5.198  15.987 -2.4858 -1.1463  0.8849
  626TIP3    H223294   2.779   5.050  16.008  1.4929 -0.7060  1.0429
  627TIP3   OH223295   6.344   0.029  17.044  0.0765  0.0115 -0.7914
  627TIP3    H123296   6.260   0.028  16.999  0.4493  0.1983 -1.5138
  627TIP3    H223297   6.408   0.049  16.975  0.5994  0.9509 -0.0590
  628TIP3   OH223298   4.474   0.203  15.407  0.4441  0.5240  0.4135
  628TIP3    H123299   4.440   0.257  15.336  2.2061  1.2920  0.1003
  628TIP3    H223300   4.403   0.201  15.472 -0.3384  1.7005 -0.3691
  629TIP3   OH223301   0.968   1.208   5.981 -0.0703  0.6419 -0.6593
  629TIP3    H123302   0.898   1.213   5.916 -0.5545 -2.3810 -0.5380
  629TIP3    H223303   1.033   1.148   5.942  0.6906  0.5319  0.7056
  630TIP3   OH223304   3.274   1.949   0.596  0.0625 -0.2710 -0.2080
  630TIP3    H123305   3.236   2.037   0.594 -3.6124 -1.6580  0.1507
  630TIP3    H223306   3.365   1.961   0.572 -0.3282  3.5979 -0.3206
  631TIP3   OH223307   5.749   3.360  12.727 -0.3952 -0.2826 -0.4094
  631TIP3    H123308   5.838   3.368  12.761 -0.8874 -2.1828  1.5795
  631TIP3    H223309   5.707   3.444  12.749  0.6176  0.2550 -0.4805
  632TIP3   OH223310   5.375   4.063  13.934  0.5729 -0.6202  0.3953
  632TIP3    H123311   5.289   4.097  13.960  0.3556  0.4034 -1.4466
  632TIP3    H223312   5.364   3.968  13.934 -0.9698 -0.4953 -0.9673
  633TIP3   OH223313   0.639   5.870   5.113  0.0994  0.1680  0.4981
  633TIP3    H123314   0.602   5.918   5.188 -0.2317 -1.0504  1.1566
  633TIP3    H223315   0.624   5.778   5.135  1.5605 -0.2790 -0.2724
  634TIP3   OH223316   4.159   4.338  14.922 -0.5923 -0.5433 -0.4436
  634TIP3    H123317   4.253   4.326  14.916 -0.4463 -0.6728  1.4632
  634TIP3    H223318   4.146   4.391  15.001 -2.1310 -0.7075 -0.5459
  635TIP3   OH223319   1.375   4.656  17.113 -0.8870 -0.0244 -0.0531
  635TIP3    H123320   1.347   4.667  17.204  1.3453 -0.8150  0.7928
  635TIP3    H223321   1.302   4.610  17.071 -1.8023  0.0237  1.4181
  636TIP3   OH223322   3.073   3.907   6.033 -0.1854 -0.3506 -0.2681
  636TIP3    H123323   3.067   3.951   6.118 -3.0268 -0.8397 -0.1102
  636TIP3    H223324   3.165   3.915   6.008  0.1712  2.4223  1.4627
  637TIP3   OH223325   1.185   5.310   1.459 -0.1472  0.1833  0.0761
  637TIP3    H123326   1.123   5.248   1.420  0.2722 -1.3865  1.7331
  637TIP3    H223327   1.131   5.384   1.486 -0.6486  0.6691 -2.0601
  638TIP3   OH223328   5.134   4.474  12.749  0.4806 -0.2123  0.2903
  638TIP3    H123329   5.196   4.515  12.811 -1.4917  2.7961  0.5121
  638TIP3    H223330   5.189   4.421  12.692  3.2438  1.9083  0.7449
  639TIP3   OH223331   2.457   0.922   3.851 -0.3746  0.1510  0.0110
  639TIP3    H123332   2.448   0.846   3.794 -0.6792  1.0805 -1.2196
  639TIP3    H223333   2.456   0.997   3.792  1.2249  1.0765  1.0738
  640TIP3   OH223334   4.275   1.370  16.885  0.3876  0.0477  0.3645
  640TIP3    H123335   4.263   1.364  16.979 -0.4018 -0.5712  0.2316
  640TIP3    H223336   4.187   1.361  16.848  0.7257 -0.0947 -0.4409
  641TIP3   OH223337   2.377   2.142  10.717 -0.2207 -0.0681 -0.3666
  641TIP3    H123338   2.384   2.197  10.795  1.1449 -2.0032  0.9738
  641TIP3    H223339   2.295   2.168  10.676 -2.0123 -0.3233  2.7934
  642TIP3   OH223340   0.207   6.254   2.017  0.1330  0.4740 -0.1393
  642TIP3    H123341   0.116   6.283   2.011 -0.3375 -0.9550 -0.4277
  642TIP3    H223342   0.237   6.285   2.102 -0.5201  1.2356 -0.1780
  643TIP3   OH223343   6.597   6.431   4.931 -0.4965  0.2309  0.0047
  643TIP3    H123344   6.553   6.504   4.888  2.7449  1.6248 -1.2466
  643TIP3    H223345   6.676   6.416   4.879  0.9843 -1.5210  2.5230
  644TIP3   OH223346   0.403   5.520   1.012  0.0779 -0.2641  0.2110
  644TIP3    H123347   0.477   5.537   1.071  1.0338 -0.5997 -0.8511
  644TIP3    H223348   0.329   5.564   1.053  1.0844  0.9466  0.8014
  645TIP3   OH223349   5.669   6.299  15.236  0.2573 -0.1673  0.0497
  645TIP3    H123350   5.666   6.289  15.141 -0.3716 -2.5048  0.2535
  645TIP3    H223351   5.747   6.250  15.263 -0.2564 -0.6012  0.8112
  646TIP3   OH223352   5.147   5.526  16.096  0.0197  0.2976  0.6964
  646TIP3    H123353   5.149   5.483  16.182 -1.8263  0.4177  0.8456
  646TIP3    H223354   5.054   5.537  16.077  0.3592 -0.3457 -1.6563
  647TIP3   OH223355   4.028   5.666  16.147  0.0421  0.0736 -0.1060
  647TIP3    H123356   3.969   5.608  16.196  1.7574 -1.8508 -0.1363
  647TIP3    H223357   3.996   5.754  16.164 -1.4635 -0.7582  1.7048
  648TIP3   OH223358   2.633   1.352  12.790  0.5161 -1.0856  0.2421
  648TIP3    H123359   2.566   1.417  12.769  1.8462 -0.5005 -2.7107
  648TIP3    H223360   2.609   1.320  12.877 -2.3676  0.5689  0.1808
  649TIP3   OH223361   3.494   1.051  16.892 -0.9117  0.4936 -0.3235
  649TIP3    H123362   3.427   1.107  16.931 -1.3859  0.6144 -1.2754
  649TIP3    H223363   3.575   1.101  16.899 -1.4793  1.7476 -1.9814
  650TIP3   OH223364   3.055   2.023  14.066  0.5754  0.4935  0.2349
  650TIP3    H123365   3.065   1.960  14.138  0.6599 -0.3309 -0.4901
  650TIP3    H223366   2.981   1.991  14.015  1.9187 -0.2464 -1.3496
  651TIP3   OH223367   4.180   5.302   3.552 -0.0679  0.4724  0.1514
  651TIP3    H123368   4.145   5.308   3.640  1.0941  2.2254  0.5535
  651TIP3    H223369   4.249   5.235   3.557 -1.3244 -0.8758  0.0463
  652TIP3   OH223370   3.110   1.641  16.661 -0.5661  0.3033  0.0419
  652TIP3    H123371   3.099   1.736  16.650 -0.7238  0.1878 -0.8193
  652TIP3    H223372   3.022   1.610  16.685 -1.0349  0.0943 -1.7909
  653TIP3   OH223373   5.285   4.075   6.101 -0.3381  0.7038  0.4967
  653TIP3    H123374   5.374   4.067   6.067 -0.0036  0.0445  1.4918
  653TIP3    H223375   5.252   3.985   6.103 -0.6193  0.8172  1.1916
  654TIP3   OH223376   5.300   6.388   3.623  0.5549 -0.1789 -0.0059
  654TIP3    H123377   5.323   6.409   3.533 -1.6889  0.4390 -0.5118
  654TIP3    H223378   5.372   6.424   3.675  2.0280 -0.7920 -1.5282
  655TIP3   OH223379   1.994   1.781   4.684 -0.5434 -0.2173  0.4540
  655TIP3    H123380   2.081   1.741   4.682 -0.6128 -0.4408  1.3814
  655TIP3    H223381   1.957   1.754   4.768 -1.6078 -0.3305 -0.0271
  656TIP3   OH223382   3.172   2.943   4.511  0.7855  0.5125 -0.0338
  656TIP3    H123383   3.112   2.875   4.540  1.5383 -1.2005 -2.1577
  656TIP3    H223384   3.210   2.978   4.591  1.7460 -2.9196  1.1873
  657TIP3   OH223385   0.605   4.777   2.628 -0.0112 -0.3607  0.2514
  657TIP3    H123386   0.693   4.809   2.609 -0.2895  0.2644 -0.0037
  657TIP3    H223387   0.566   4.764   2.541 -1.0424  1.8074  0.3465
  658TIP3   OH223388   6.019   2.457   0.972 -0.5702  0.2760 -0.4771
  658TIP3    H123389   5.924   2.467   0.965 -0.6487  0.3575  0.5014
  658TIP3    H223390   6.033   2.430   1.063  0.3267  0.0501 -0.6754
  659TIP3   OH223391   6.406   6.199   3.900  0.0200  0.1705 -0.1107
  659TIP3    H123392   6.445   6.179   3.985  0.3056  0.6330 -0.1300
  659TIP3    H223393   6.376   6.114   3.867  0.7297 -0.1403  0.0390
  660TIP3   OH223394   0.062   1.424   2.938  0.4028 -0.2874 -0.0179
  660TIP3    H123395   0.093   1.334   2.933  0.8244 -0.1207 -0.6070
  660TIP3    H223396   0.138   1.473   2.970  0.1023 -0.1777  0.5275
  661TIP3   OH223397   3.380   4.078   3.738 -0.4531 -0.3712  0.6749
  661TIP3    H123398   3.370   4.161   3.692 -0.9720 -1.7606 -1.9044
  661TIP3    H223399   3.337   4.091   3.822  0.7656  2.3848  0.9535
  662TIP3   OH223400   6.069   1.699   5.181  0.2565  0.1650 -0.5389
  662TIP3    H123401   6.026   1.627   5.226  0.2971 -0.6140 -1.6899
  662TIP3    H223402   6.010   1.722   5.109  0.9571  0.2299 -1.1157
  663TIP3   OH223403   1.825   3.344  14.502 -0.5533 -0.1377  0.4514
  663TIP3    H123404   1.813   3.250  14.489  1.7597 -0.3725 -0.5341
  663TIP3    H223405   1.837   3.354  14.596 -0.7272 -0.8421  0.5488
  664TIP3   OH223406   5.803   6.082   0.444  0.1860  0.2921 -0.3483
  664TIP3    H123407   5.826   6.159   0.394 -0.4844  2.3050  2.2109
  664TIP3    H223408   5.708   6.088   0.456  0.1843 -0.6706  0.2844
  665TIP3   OH223409   1.705   1.650   5.381  0.3602  0.4546 -0.7658
  665TIP3    H123410   1.777   1.705   5.350  1.5765  0.8602  2.4299
  665TIP3    H223411   1.649   1.710   5.431 -0.6393 -0.4433 -0.7753
  666TIP3   OH223412   5.056   0.449   3.850  0.1121 -0.2897 -0.7137
  666TIP3    H123413   4.972   0.481   3.819  0.5500 -0.0010 -1.6189
  666TIP3    H223414   5.034   0.375   3.907 -0.7315 -0.4756 -1.2671
  667TIP3   OH223415   5.657   4.328   2.811  0.2645  0.1778  0.2574
  667TIP3    H123416   5.732   4.353   2.865 -0.8381  0.7656  1.5886
  667TIP3    H223417   5.652   4.396   2.744  1.6390 -0.5448 -0.6037
  668TIP3   OH223418   6.212   0.902   6.337 -0.3201 -0.0738  0.4401
  668TIP3    H123419   6.157   0.868   6.267 -1.9941  0.2343  1.5430
  668TIP3    H223420   6.165   0.980   6.369  0.7619  0.2135  1.4018
  669TIP3   OH223421   6.208   5.834   1.188  0.5809 -0.2258 -0.0854
  669TIP3    H123422   6.215   5.747   1.226  0.4627  0.5510  1.7796
  669TIP3    H223423   6.286   5.842   1.132  0.9798 -1.2283  0.3091
  670TIP3   OH223424   2.697   4.568   5.678  0.6543  0.2231 -0.2080
  670TIP3    H123425   2.656   4.513   5.744 -0.1197  2.6929  1.5244
  670TIP3    H223426   2.763   4.618   5.726  2.3429 -0.1693 -1.9863
  671TIP3   OH223427   6.089   1.704   1.128 -0.1554  0.3219 -0.1042
  671TIP3    H123428   6.023   1.639   1.106 -0.0546 -0.2175  1.1241
  671TIP3    H223429   6.041   1.787   1.133 -0.4347  0.2089 -0.8196
  672TIP3   OH223430   4.664   3.235  11.819  0.3148 -0.2953  0.4756
  672TIP3    H123431   4.743   3.289  11.820 -1.6484  2.8613 -0.5812
  672TIP3    H223432   4.623   3.253  11.904  0.1426 -0.9465  0.5295
  673TIP3   OH223433   2.033   1.631   3.094  0.3648 -0.7182 -0.3863
  673TIP3    H123434   2.060   1.705   3.148 -0.1562 -0.1258 -0.9108
  673TIP3    H223435   2.090   1.635   3.017  1.2898 -1.7223  0.2227
  674TIP3   OH223436   1.533   2.753  16.293 -0.3304 -0.3845  0.6891
  674TIP3    H123437   1.591   2.739  16.218  0.2561  2.1458  0.6046
  674TIP3    H223438   1.588   2.733  16.369 -0.2525 -0.7817  0.5346
  675TIP3   OH223439   6.462   4.452  13.173 -0.1459 -0.0056 -0.0336
  675TIP3    H123440   6.431   4.497  13.252  0.2562  0.2158 -0.0001
  675TIP3    H223441   6.433   4.508  13.101  0.9865  0.6993  0.0404
  676TIP3   OH223442   2.260   1.300  11.013  0.1823  0.1590 -0.4317
  676TIP3    H123443   2.251   1.212  10.977  0.4883 -0.0717  0.0434
  676TIP3    H223444   2.331   1.339  10.962 -0.0024  0.1581 -0.6914
  677TIP3   OH223445   0.343   0.128  14.942  0.7989  0.0830  0.1737
  677TIP3    H123446   0.386   0.206  14.907  0.0481  0.4786  0.1070
  677TIP3    H223447   0.324   0.151  15.033  0.5714 -0.0103  0.1518
  678TIP3   OH223448   5.582   1.102  15.078  0.3117 -0.6718  0.3911
  678TIP3    H123449   5.581   1.197  15.096  0.0754 -0.5709 -0.1376
  678TIP3    H223450   5.598   1.096  14.984 -0.9219 -1.1252  0.1963
  679TIP3   OH223451   3.232   2.787   2.619 -0.6449  0.0226  0.1100
  679TIP3    H123452   3.187   2.868   2.599 -1.2869  0.0846  1.6857
  679TIP3    H223453   3.311   2.789   2.563 -0.7811  1.5816 -0.0666
  680TIP3   OH223454   5.312   4.139  15.828  0.1426 -0.1183 -0.0134
  680TIP3    H123455   5.245   4.190  15.782  1.1654  0.4203 -0.9573
  680TIP3    H223456   5.295   4.155  15.921 -0.7058  0.4319 -0.2525
  681TIP3   OH223457   2.378   4.951   2.973 -0.6094 -0.5163  0.0272
  681TIP3    H123458   2.469   4.976   2.991 -0.8415 -0.8471  1.8296
  681TIP3    H223459   2.383   4.898   2.893  0.9336 -1.4520  0.6955
  682TIP3   OH223460   3.594   3.510  15.844  0.2681  0.3246 -0.3832
  682TIP3    H123461   3.551   3.426  15.830  1.1506 -0.6978  2.4228
  682TIP3    H223462   3.668   3.510  15.783 -0.5205 -0.2980 -1.3590
  683TIP3   OH223463   5.279   4.468   3.528  0.3542  0.0977 -0.1142
  683TIP3    H123464   5.275   4.500   3.618 -0.4979 -2.0652  0.6967
  683TIP3    H223465   5.255   4.375   3.535  0.7577 -0.2480 -2.5166
  684TIP3   OH223466   3.020   0.489   2.910  0.0751 -0.2274 -0.4723
  684TIP3    H123467   3.069   0.407   2.903  0.7739  0.2719 -1.8500
  684TIP3    H223468   3.080   0.556   2.877 -1.2063  0.5305 -1.3538
  685TIP3   OH223469   0.662   4.282   2.905 -0.3898  0.3096 -0.0634
  685TIP3    H123470   0.663   4.312   2.814 -2.1440  1.2447  0.1827
  685TIP3    H223471   0.646   4.361   2.956 -2.1304 -0.5722  0.8348
  686TIP3   OH223472   6.746   0.969  10.574  0.0529 -0.0043  0.2653
  686TIP3    H123473   6.725   1.033  10.506  2.0813 -1.0267 -1.4347
  686TIP3    H223474   6.675   0.906  10.570 -1.5829  1.6447  1.4613
  687TIP3   OH223475   2.490   4.221  17.284 -0.2265 -0.4084  0.4691
  687TIP3    H123476   2.499   4.207  17.190 -0.2188 -0.9485  0.5453
  687TIP3    H223477   2.565   4.274  17.308  0.0001 -0.6255  0.2421
  688TIP3   OH223478   1.860   4.954   4.993  0.7069 -0.5011  0.1384
  688TIP3    H123479   1.804   4.894   5.042  0.2516 -0.7213 -0.6394
  688TIP3    H223480   1.949   4.925   5.012  0.5106 -1.0103  0.2802
  689TIP3   OH223481   4.585   2.666   6.179 -0.2122 -0.0549 -0.0104
  689TIP3    H123482   4.541   2.589   6.216  1.5230 -0.6554  0.9155
  689TIP3    H223483   4.676   2.657   6.206  0.1084  2.1959 -0.1296
  690TIP3   OH223484   2.743   4.241   3.324  0.4865 -0.3200  0.1909
  690TIP3    H123485   2.833   4.240   3.291  0.7632 -2.5258  0.8497
  690TIP3    H223486   2.717   4.149   3.326 -0.3645 -0.1491  3.7106
  691TIP3   OH223487   4.954   1.243   6.480 -0.7260  0.1975 -0.0268
  691TIP3    H123488   5.006   1.285   6.413 -0.1586  0.7064  0.7268
  691TIP3    H223489   5.013   1.180   6.521 -0.0564  2.0718  2.0888
  692TIP3   OH223490   4.768   6.047   4.330 -0.7100 -0.1304 -0.0146
  692TIP3    H123491   4.839   6.035   4.266 -0.7168  0.4843 -0.1472
  692TIP3    H223492   4.693   6.001   4.292 -0.0441 -1.9394  0.7533
  693TIP3   OH223493   1.134   4.276  16.654  0.2185  0.1820 -0.1898
  693TIP3    H123494   1.161   4.329  16.579 -0.0550 -0.2390 -0.5935
  693TIP3    H223495   1.148   4.185  16.626 -3.6006 -0.2446 -1.3154
  694TIP3   OH223496   5.931   1.121  13.334  0.4597 -0.1899  0.3836
  694TIP3    H123497   5.862   1.069  13.292 -0.4465  0.7777  0.6452
  694TIP3    H223498   5.989   1.145  13.262  0.3412 -0.7199  0.1043
  695TIP3   OH223499   6.263   4.849  11.876 -0.1362  0.3600  0.1451
  695TIP3    H123500   6.230   4.937  11.860 -1.1240  0.1004  0.6858
  695TIP3    H223501   6.232   4.798  11.801 -0.1366  0.3264  0.1679
  696TIP3   OH223502   3.479   3.428  13.657 -0.0849 -0.2010 -0.5272
  696TIP3    H123503   3.449   3.475  13.579 -2.3704  1.3020  1.1134
  696TIP3    H223504   3.398   3.406  13.704  1.2172 -0.1977  1.8659
  697TIP3   OH223505   0.384   3.989   1.590 -0.2226  1.1213 -0.3170
  697TIP3    H123506   0.460   3.952   1.546 -0.0625  2.1765 -0.9587
  697TIP3    H223507   0.316   3.992   1.523 -0.8652  0.1068  0.2745
  698TIP3   OH223508   3.757   4.689  14.986 -0.8592  0.0392 -0.2925
  698TIP3    H123509   3.715   4.769  14.955  0.9759  0.7892 -0.9912
  698TIP3    H223510   3.851   4.704  14.972 -0.4662 -2.2941 -0.5736
  699TIP3   OH223511   3.728   5.058  14.410 -0.8712  0.4123  0.1611
  699TIP3    H123512   3.685   4.973  14.413 -0.3603  0.1640  0.7232
  699TIP3    H223513   3.660   5.121  14.435 -1.8929  0.4545 -2.4428
  700TIP3   OH223514   4.455   3.608  15.733 -0.1524 -0.5378  0.6002
  700TIP3    H123515   4.535   3.648  15.699 -2.4655  1.8199 -2.7649
  700TIP3    H223516   4.419   3.672  15.794 -2.0750  1.1962 -2.1184
  701TIP3   OH223517   3.616   5.022   6.079 -0.1589  0.2064 -0.2486
  701TIP3    H123518   3.585   5.112   6.070 -0.1012  0.1590 -0.9280
  701TIP3    H223519   3.700   5.021   6.034 -0.1479 -0.1871 -0.2231
  702TIP3   OH223520   5.733   2.082  16.373 -0.6312 -0.0499  0.1860
  702TIP3    H123521   5.643   2.053  16.385 -1.1724  0.8345 -1.4308
  702TIP3    H223522   5.760   2.045  16.289  0.5146 -0.2790  0.6337
  703TIP3   OH223523   5.456   2.763  16.253 -0.3101 -0.0916 -0.2791
  703TIP3    H123524   5.374   2.756  16.300 -1.2295  0.6490 -1.7098
  703TIP3    H223525   5.456   2.688  16.194  1.0084 -1.2292  1.0710
  704TIP3   OH223526   2.560   0.402  16.855 -0.2820  0.2889 -0.3038
  704TIP3    H123527   2.567   0.342  16.928 -2.3673 -0.3844 -0.5952
  704TIP3    H223528   2.598   0.354  16.781  0.1303  0.2484 -0.0723
  705TIP3   OH223529   5.712   0.180   0.680  0.3381 -0.6278 -0.3865
  705TIP3    H123530   5.713   0.208   0.589  1.5469  2.3939  0.4504
  705TIP3    H223531   5.624   0.201   0.711  1.1151  2.3312  0.1344
  706TIP3   OH223532   4.235   4.895   3.009 -0.0182 -0.5231  0.4348
  706TIP3    H123533   4.268   4.805   3.017 -0.6220 -0.7889  0.0414
  706TIP3    H223534   4.144   4.889   3.037  0.2221  0.1837  1.4268
  707TIP3   OH223535   1.911   4.867  11.192  0.3106 -0.1759 -0.4274
  707TIP3    H123536   1.967   4.925  11.141 -0.8640  1.5488  0.1505
  707TIP3    H223537   1.835   4.851  11.137 -0.7368  1.2999  0.5033
  708TIP3   OH223538   4.305   0.014   4.500  0.1647  0.3633 -0.1698
  708TIP3    H123539   4.295   0.004   4.405 -1.1694 -1.3507  0.0968
  708TIP3    H223540   4.279  -0.071   4.536 -0.8939  1.4544  1.8319
  709TIP3   OH223541   5.270   3.252   5.659 -0.1115 -0.0433  0.2091
  709TIP3    H123542   5.344   3.312   5.668 -0.0155 -0.4261  2.3814
  709TIP3    H223543   5.199   3.292   5.709  0.5295 -2.5095  3.4584
  710TIP3   OH223544   0.199   4.067   5.993 -0.2327 -0.2209 -0.1265
  710TIP3    H123545   0.222   4.156   5.968 -3.2077  0.4084 -1.0608
  710TIP3    H223546   0.169   4.075   6.084 -0.1698 -0.3604 -0.0931
  711TIP3   OH223547   3.964   5.117  10.841 -0.5087  0.2150  0.1990
  711TIP3    H123548   3.897   5.106  10.908 -1.0968 -1.1382 -0.5619
  711TIP3    H223549   3.986   5.210  10.844  1.4091 -0.1893  4.0055
  712TIP3   OH223550   6.344   0.792  15.947 -0.0095  0.3626 -0.1256
  712TIP3    H123551   6.333   0.845  16.026 -2.7368 -0.5664  0.2315
  712TIP3    H223552   6.361   0.703  15.980 -1.6422 -0.1243 -0.5314
  713TIP3   OH223553   0.992   3.526   6.109  0.5910 -0.2122  0.2982
  713TIP3    H123554   0.925   3.458   6.123  0.6965 -0.4563 -0.3435
  713TIP3    H223555   1.064   3.480   6.065  0.2085  0.5285 -1.1809
  714TIP3   OH223556   0.879   3.522  16.073  0.4201  0.0591 -0.0624
  714TIP3    H123557   0.804   3.475  16.037  0.6307  0.2496 -0.7637
  714TIP3    H223558   0.938   3.453  16.105  0.7749 -0.1657 -1.1742
  715TIP3   OH223559   2.094   3.128   5.102  0.1805 -0.2737  0.0996
  715TIP3    H123560   2.070   3.038   5.080  0.0535  0.2242 -2.0239
  715TIP3    H223561   2.011   3.173   5.116  0.0803  0.1638 -1.7444
  716TIP3   OH223562   6.025   2.051   4.148 -0.2939 -0.0233  0.6088
  716TIP3    H123563   5.940   2.095   4.143  0.4881  1.4949 -0.2853
  716TIP3    H223564   6.066   2.090   4.225  1.0032  2.0794 -1.0298
  717TIP3   OH223565   5.403   1.235   6.597 -0.1708 -0.3910  0.0224
  717TIP3    H123566   5.324   1.266   6.643 -1.3525  0.3301 -2.3250
  717TIP3    H223567   5.459   1.312   6.591  0.3175 -0.6672  0.8389
  718TIP3   OH223568   4.595   3.190   5.534 -0.2241 -0.0294 -0.2004
  718TIP3    H123569   4.545   3.229   5.605 -1.5060 -0.5231 -0.8086
  718TIP3    H223570   4.537   3.194   5.458  0.8055 -0.2545 -1.0340
  719TIP3   OH223571   4.924   0.734  14.389 -0.1844  0.0683 -0.3063
  719TIP3    H123572   4.879   0.819  14.382  1.2696  0.7219 -3.1019
  719TIP3    H223573   5.006   0.754  14.434  0.2320  0.1887 -1.1136
  720TIP3   OH223574   2.943   5.995  17.087 -0.0800  0.4562  0.4056
  720TIP3    H123575   2.922   6.034  17.172 -1.2001  0.3494  0.1977
  720TIP3    H223576   2.967   6.069  17.032 -0.6541  0.6869  0.4546
  721TIP3   OH223577   3.756   4.322   0.948  0.0773  0.6833  0.2157
  721TIP3    H123578   3.823   4.375   0.991  0.5223  0.2803  0.0279
  721TIP3    H223579   3.685   4.384   0.929  0.0658  0.9565  1.1115
  722TIP3   OH223580   4.412   4.002  12.789  0.8355  0.5177 -0.0096
  722TIP3    H123581   4.338   3.942  12.790 -0.1884  1.6334  2.8020
  722TIP3    H223582   4.482   3.955  12.835  1.0292  0.3908 -0.4325
  723TIP3   OH223583   3.279   5.655  10.749  0.3710 -0.0634  0.1472
  723TIP3    H123584   3.259   5.743  10.781  0.5281  1.0675 -2.5784
  723TIP3    H223585   3.318   5.611  10.824  2.7542  3.0685  0.9771
  724TIP3   OH223586   1.922   2.487  16.371  0.3266 -0.3264 -0.0009
  724TIP3    H123587   1.924   2.511  16.278 -0.8464  0.4722  0.1630
  724TIP3    H223588   2.011   2.501  16.401  0.2525  1.5340 -0.5089
  725TIP3   OH223589   2.338   5.738  14.303 -0.1582 -0.5186 -0.0109
  725TIP3    H123590   2.370   5.740  14.213  0.9990 -0.5486  0.3823
  725TIP3    H223591   2.322   5.830  14.325 -0.1946 -0.4897 -0.1576
  726TIP3   OH223592   0.550   0.571  14.115  0.1221  0.6692  0.1862
  726TIP3    H123593   0.492   0.498  14.137  3.1818 -2.4087 -0.8517
  726TIP3    H223594   0.591   0.595  14.198 -0.7147  1.0742  0.4943
  727TIP3   OH223595   1.385   2.183   0.608  0.4921  0.2473 -0.5394
  727TIP3    H123596   1.310   2.219   0.562  0.5240  1.6111  0.4126
  727TIP3    H223597   1.401   2.099   0.565 -1.5165 -0.0546 -0.8080
  728TIP3   OH223598   4.898   1.490  14.836 -0.2469 -0.2920 -0.0417
  728TIP3    H123599   4.851   1.460  14.759 -1.3442  0.2501  0.3884
  728TIP3    H223600   4.840   1.469  14.910 -0.1862  1.0518  0.4331
  729TIP3   OH223601   6.282   5.295   2.431  0.6534 -0.1994 -0.3796
  729TIP3    H123602   6.328   5.212   2.420 -0.2692 -0.7694  0.0134
  729TIP3    H223603   6.235   5.287   2.513  1.5688  1.2216  0.3368
  730TIP3   OH223604   0.456   4.814  13.002  0.4729 -0.2383 -0.2749
  730TIP3    H123605   0.539   4.861  12.998  1.2422 -1.5338 -0.2708
  730TIP3    H223606   0.460   4.753  12.928 -0.0617 -0.9412  0.2603
  731TIP3   OH223607   4.666   1.971   1.825  0.7479 -0.1634  0.1503
  731TIP3    H123608   4.676   2.029   1.901  1.1178  0.8540 -0.6497
  731TIP3    H223609   4.602   2.016   1.770  1.8283  0.0307 -0.9747
  732TIP3   OH223610   1.682   5.555  15.534  0.8270  0.5112 -0.5969
  732TIP3    H123611   1.730   5.636  15.548  0.9649  0.4244 -0.5687
  732TIP3    H223612   1.676   5.547  15.439 -0.9356  1.5922 -0.6174
  733TIP3   OH223613   4.126   1.728   1.984 -0.1106  0.6795  0.7515
  733TIP3    H123614   4.113   1.766   1.897  1.4855 -0.7424 -0.1904
  733TIP3    H223615   4.182   1.790   2.029  0.7513  0.4830 -0.0110
  734TIP3   OH223616   4.531   0.731   4.950 -0.2919  0.5724  0.2511
  734TIP3    H123617   4.616   0.731   4.993  0.3503 -1.2562 -0.8832
  734TIP3    H223618   4.467   0.727   5.021  0.6517 -0.1295  1.0835
  735TIP3   OH223619   5.218   2.701  16.345  0.2111 -0.4473 -0.0618
  735TIP3    H123620   5.193   2.656  16.425  0.1647  1.2144  0.9033
  735TIP3    H223621   5.148   2.680  16.283  0.6014 -2.3196  0.0597
  736TIP3   OH223622   3.623   1.021  15.734 -0.1007 -0.6101  0.0277
  736TIP3    H123623   3.631   1.055  15.645  1.4212 -0.9742 -0.0063
  736TIP3    H223624   3.622   0.926  15.724 -0.8628 -0.6403  0.3437
  737TIP3   OH223625   1.170   2.731   3.678  0.0788  0.3530 -0.5757
  737TIP3    H123626   1.241   2.685   3.634  0.0220  0.7033 -1.0492
  737TIP3    H223627   1.108   2.663   3.702 -0.5740  0.2746 -2.3258
  738TIP3   OH223628   4.733   4.808  11.038 -0.0117  0.1765  0.3683
  738TIP3    H123629   4.790   4.858  10.979 -1.7742 -0.4732 -2.0306
  738TIP3    H223630   4.647   4.849  11.029 -0.4788 -0.3626  2.0316
  739TIP3   OH223631   1.598   6.085   3.954  0.3099  0.4480 -0.3249
  739TIP3    H123632   1.672   6.145   3.946 -1.1757  2.6502  1.1114
  739TIP3    H223633   1.543   6.125   4.023 -1.9419 -1.3374 -0.9760
  740TIP3   OH223634   3.457   5.769   2.624 -0.2591  0.0461  0.1894
  740TIP3    H123635   3.425   5.703   2.685 -1.4786  0.5697  0.1439
  740TIP3    H223636   3.382   5.828   2.611 -0.3896 -0.5616 -2.5078
  741TIP3   OH223637   0.764   1.943   0.617  0.1981  0.0331  0.5433
  741TIP3    H123638   0.818   1.869   0.644 -0.0613 -0.5102 -0.3827
  741TIP3    H223639   0.823   2.018   0.621  0.3990 -0.1608  1.7420
  742TIP3   OH223640   2.719   5.758   2.438  0.5179  0.4339  0.0812
  742TIP3    H123641   2.689   5.813   2.366  1.3477  0.8084  0.0042
  742TIP3    H223642   2.794   5.710   2.402  0.7023  0.3404  0.5759
  743TIP3   OH223643   2.611   1.070   2.284  0.1702  0.0989  0.0633
  743TIP3    H123644   2.648   0.989   2.319  0.5692  0.0933 -0.3626
  743TIP3    H223645   2.615   1.060   2.189 -0.3957  0.3444  0.0057
  744TIP3   OH223646   3.438   2.915   2.219  0.3807  0.2719  0.5683
  744TIP3    H123647   3.393   2.981   2.272  0.0385 -0.3777  1.1149
  744TIP3    H223648   3.426   2.833   2.268  0.9817 -0.1576  0.0189
  745TIP3   OH223649   0.819   5.118  14.797  0.0344  0.0151  0.3130
  745TIP3    H123650   0.829   5.136  14.891  0.2139  1.6223  0.0267
  745TIP3    H223651   0.898   5.156  14.757  0.2717 -1.2188 -0.4394
  746TIP3   OH223652   4.426   5.273   2.245  0.3789  0.4872 -0.0381
  746TIP3    H123653   4.463   5.322   2.172  0.8869  2.0522  1.2131
  746TIP3    H223654   4.463   5.185   2.237  0.5303  0.6742 -1.5581
  747TIP3   OH223655   5.354   4.198   3.461  0.8012 -0.0160 -0.2104
  747TIP3    H123656   5.328   4.213   3.370  0.3470 -0.1232 -0.0983
  747TIP3    H223657   5.431   4.141   3.455  1.2078  0.5510 -0.5519
  748TIP3   OH223658   2.139   5.887  15.105  0.0550 -0.4348  0.7094
  748TIP3    H123659   2.163   5.815  15.046  2.6330  0.6868  0.2239
  748TIP3    H223660   2.180   5.864  15.188  2.0282  0.9911  0.1981
  749TIP3   OH223661   3.538   2.569  14.596  0.0016  0.0956  0.5889
  749TIP3    H123662   3.447   2.572  14.568  0.3997  1.0764 -0.7297
  749TIP3    H223663   3.537   2.598  14.687 -1.0172 -0.1699  0.6760
  750TIP3   OH223664   4.341   6.076  17.127  0.0420  0.1478  0.0069
  750TIP3    H123665   4.262   6.128  17.116 -0.3714 -0.2031  1.1597
  750TIP3    H223666   4.321   5.992  17.086 -1.0560 -0.7428  2.2047
  751TIP3   OH223667   3.587   5.138   3.905  0.4938 -0.1265  0.8355
  751TIP3    H123668   3.586   5.233   3.920  2.8513  0.0144  0.4986
  751TIP3    H223669   3.604   5.101   3.992  2.0065 -0.0471  0.6057
  752TIP3   OH223670   1.928   0.252  12.885 -0.1949  0.3927  0.1191
  752TIP3    H123671   1.834   0.269  12.891  0.1639  2.4681  0.5878
  752TIP3    H223672   1.943   0.232  12.793 -0.8136  2.2627 -0.4371
  753TIP3   OH223673   4.825   1.716  11.363 -0.1453 -0.1964 -0.7453
  753TIP3    H123674   4.888   1.657  11.321 -1.1583 -1.8653 -0.0166
  753TIP3    H223675   4.783   1.762  11.290 -0.3029 -1.4024 -1.4427
  754TIP3   OH223676   2.747   2.304  11.969  0.3068  0.5674  0.6397
  754TIP3    H123677   2.836   2.327  11.996  0.4608  1.3156 -0.4635
  754TIP3    H223678   2.725   2.368  11.902  0.0426 -1.3995 -1.2397
  755TIP3   OH223679   2.030   4.563  10.969 -1.5183 -0.7538 -0.3140
  755TIP3    H123680   2.065   4.476  10.948 -0.9899 -0.4430 -0.7486
  755TIP3    H223681   1.996   4.595  10.886  1.0866  0.7210 -0.9205
  756TIP3   OH223682   5.824   3.715   2.468 -0.4895  0.1314 -0.2569
  756TIP3    H123683   5.891   3.649   2.484 -0.5894 -0.4356 -1.9888
  756TIP3    H223684   5.765   3.708   2.543  0.7783 -0.0969  0.7510
  757TIP3   OH223685   2.585   5.095  15.685 -0.4342 -0.5875  0.1637
  757TIP3    H123686   2.563   5.162  15.750 -1.5960 -0.8945  0.1068
  757TIP3    H223687   2.550   5.013  15.721  0.9025 -1.1755  0.2006
  758TIP3   OH223688   6.402   3.223  15.885 -0.1212 -0.1905 -0.2477
  758TIP3    H123689   6.433   3.157  15.823 -0.9162 -0.2575 -0.5962
  758TIP3    H223690   6.480   3.250  15.932  0.4557 -0.3733 -1.0633
  759TIP3   OH223691   5.537   6.067  17.248  0.1169 -0.1544  0.3742
  759TIP3    H123692   5.559   6.142  17.194  2.5860 -0.3984  0.9231
  759TIP3    H223693   5.592   6.076  17.326 -2.1525 -0.6735  2.1488
  760TIP3   OH223694   6.113   3.184  15.654 -0.0408  0.1839 -0.9243
  760TIP3    H123695   6.028   3.213  15.622  0.5215 -0.5955 -3.2724
  760TIP3    H223696   6.094   3.143  15.738 -1.9100  0.3440 -1.2222
  761TIP3   OH223697   3.730   5.426   3.738 -0.0107 -0.2047  0.7729
  761TIP3    H123698   3.734   5.355   3.673 -1.0802  0.6024 -0.2202
  761TIP3    H223699   3.661   5.484   3.705  0.5390  1.0649  1.7946
  762TIP3   OH223700   5.543   2.244  16.593  0.3301 -0.3150 -0.2877
  762TIP3    H123701   5.512   2.289  16.514  0.8443 -0.7648 -0.7574
  762TIP3    H223702   5.499   2.160  16.592  0.2162 -0.2591 -0.0074
  763TIP3   OH223703   6.629   5.604   5.979 -0.4153  0.2979 -0.4771
  763TIP3    H123704   6.587   5.659   6.046  0.2264 -0.8317  0.8973
  763TIP3    H223705   6.594   5.516   5.994  0.3568 -0.1293 -1.1016
  764TIP3   OH223706   1.844   0.095  14.805 -0.0775 -0.1572  0.7398
  764TIP3    H123707   1.812   0.072  14.717  1.3487  0.1630  0.1149
  764TIP3    H223708   1.783   0.163  14.834 -0.0464  0.3794 -0.3902
  765TIP3   OH223709   4.943   2.611  16.383 -0.2869 -0.1074  0.0630
  765TIP3    H123710   4.927   2.655  16.300 -2.6062 -1.3923 -0.2402
  765TIP3    H223711   4.922   2.677  16.449 -1.5964 -0.0503 -0.3856
  766TIP3   OH223712   0.329   3.585   4.489 -0.1468 -0.1496 -0.1699
  766TIP3    H123713   0.414   3.616   4.457  1.5456 -0.2957  3.6147
  766TIP3    H223714   0.294   3.533   4.417  3.3054 -0.6697 -1.7013
  767TIP3   OH223715   0.182   0.691   1.135  0.8773 -0.0927  0.1484
  767TIP3    H123716   0.176   0.688   1.230 -0.9787  0.4910  0.0929
  767TIP3    H223717   0.175   0.600   1.107 -0.3000 -0.1466  0.5409
  768TIP3   OH223718   1.937   1.456   2.521 -0.1797 -0.4997 -0.5540
  768TIP3    H123719   1.883   1.532   2.498  1.8067  1.2964  0.4462
  768TIP3    H223720   1.890   1.382   2.483 -2.8168  1.0513 -0.5745
  769TIP3   OH223721   4.796   3.187   2.020  0.5439 -0.2960 -0.8484
  769TIP3    H123722   4.863   3.119   2.016  0.4772 -0.3383 -1.2665
  769TIP3    H223723   4.783   3.214   1.929 -0.0130 -0.2972 -0.7726
  770TIP3   OH223724   1.676   1.992   4.424  0.2259 -0.5144  0.4272
  770TIP3    H123725   1.678   2.017   4.332 -0.2383  1.5791  0.9413
  770TIP3    H223726   1.769   1.984   4.449  0.3644 -0.4623 -0.0671
  771TIP3   OH223727   2.435   2.236  13.053  0.0919 -0.4241 -0.2424
  771TIP3    H123728   2.489   2.242  12.974 -1.0601  3.3853 -0.9739
  771TIP3    H223729   2.345   2.230  13.019 -0.5804  3.0786  0.5388
  772TIP3   OH223730   5.439   4.689   2.281  0.7286 -0.0169  0.5883
  772TIP3    H123731   5.447   4.619   2.346 -0.9058 -0.1774  0.6499
  772TIP3    H223732   5.444   4.645   2.197  0.5986 -0.0805  0.6150
  773TIP3   OH223733   0.791   3.085   4.572  0.1777 -0.3581  0.3669
  773TIP3    H123734   0.792   3.062   4.480  0.0060 -1.7776  0.7032
  773TIP3    H223735   0.781   3.002   4.618 -0.5342  0.4008  1.6430
  774TIP3   OH223736   0.399   0.910  14.366  0.0620 -0.2306 -0.2663
  774TIP3    H123737   0.340   0.847  14.323 -0.7776  1.2777 -1.4409
  774TIP3    H223738   0.352   0.993  14.362  1.3000  0.5622  0.8932
  775TIP3   OH223739   4.778   1.076  11.249 -0.9438  0.7460 -0.8393
  775TIP3    H123740   4.728   1.135  11.305 -2.0123  0.1098 -1.0940
  775TIP3    H223741   4.715   1.046  11.183 -0.1630  0.1222 -1.3194
  776TIP3   OH223742   4.739   3.549  14.103  0.4497  0.7775  0.2711
  776TIP3    H123743   4.825   3.591  14.099  0.8756 -0.1785 -1.7222
  776TIP3    H223744   4.700   3.567  14.018 -1.1187  0.7206  0.9579
  777TIP3   OH223745   4.087   0.246   4.904  0.4294 -0.2453 -0.3257
  777TIP3    H123746   4.133   0.264   4.986 -0.4912  2.0456 -0.2246
  777TIP3    H223747   3.995   0.265   4.923  0.2784  1.0320 -2.0262
  778TIP3   OH223748   3.384   2.033  11.996  0.0744  0.0947 -0.4268
  778TIP3    H123749   3.477   2.046  11.976  0.8678 -1.9264  1.5109
  778TIP3    H223750   3.369   2.084  12.075 -0.3429  0.0270 -0.4627
  779TIP3   OH223751   0.950   1.072  13.200  0.3659  0.3690 -0.3706
  779TIP3    H123752   0.897   1.049  13.276  0.7723  0.6268 -0.0047
  779TIP3    H223753   0.973   0.988  13.161 -0.4607  0.2599 -0.6438
  780TIP3   OH223754   6.476   6.443   5.238  0.3517  0.2623 -0.3422
  780TIP3    H123755   6.411   6.450   5.309  1.0447 -0.9899  0.4516
  780TIP3    H223756   6.447   6.508   5.173  0.0845  1.9682  1.3755
  781TIP3   OH223757   5.003   4.266  13.368  1.1459  0.0549  0.3658
  781TIP3    H123758   4.992   4.348  13.417  0.2179 -0.0224  0.2989
  781TIP3    H223759   5.090   4.235  13.393  0.7342  0.0719  1.8958
  782TIP3   OH223760   5.259   2.351  11.905 -0.6032  0.4209 -0.5438
  782TIP3    H123761   5.304   2.401  11.837  0.9325  1.1215  0.9211
  782TIP3    H223762   5.214   2.417  11.958 -0.5969  0.0324 -0.0422
  783TIP3   OH223763   2.257   2.175  12.820  0.3642 -0.7551  0.6539
  783TIP3    H123764   2.218   2.090  12.842 -0.8141 -0.3956  0.0313
  783TIP3    H223765   2.323   2.155  12.754 -0.6785 -1.1038 -0.3354
  784TIP3   OH223766   3.958   2.340   0.942  0.0714  0.3653 -0.2945
  784TIP3    H123767   3.935   2.335   0.849  0.9406 -1.5277 -0.4659
  784TIP3    H223768   3.898   2.279   0.984  1.3944 -0.8082 -0.0334
  785TIP3   OH223769   1.634   4.907  12.093 -0.3995  0.1599  0.6603
  785TIP3    H123770   1.680   4.824  12.082  0.3618  0.6888 -0.3282
  785TIP3    H223771   1.658   4.958  12.016 -0.9591  1.2539  1.1864
  786TIP3   OH223772   5.326   3.075   1.899  0.5666 -0.5889 -0.4293
  786TIP3    H123773   5.302   3.132   1.971  0.2064 -0.8652 -0.3277
  786TIP3    H223774   5.422   3.082   1.893  0.5395 -0.1158 -0.3066
  787TIP3   OH223775   4.625   3.188   6.504  0.1852 -0.3971 -0.2547
  787TIP3    H123776   4.695   3.233   6.457  0.4918 -0.0520  0.5219
  787TIP3    H223777   4.560   3.167   6.437  1.5104 -1.6912 -1.2053
  788TIP3   OH223778   1.485   0.576  13.687  0.1292 -0.5471  0.2998
  788TIP3    H123779   1.527   0.614  13.610 -0.1956 -1.4506 -0.3486
  788TIP3    H223780   1.553   0.522  13.728 -0.1800 -1.4518 -0.3530
  789TIP3   OH223781   0.997   3.465   4.251 -1.0287 -0.3947  0.3182
  789TIP3    H123782   0.954   3.538   4.206 -0.1918  0.0655  0.2377
  789TIP3    H223783   1.068   3.506   4.301  0.2127 -1.2532 -0.6665
  790TIP3   OH223784   1.988   5.912   3.065  0.4705  0.4339 -0.0247
  790TIP3    H123785   2.077   5.908   3.102  0.4620  1.6558  0.1745
  790TIP3    H223786   1.931   5.923   3.141  0.2160  0.4555 -0.2190
  791TIP3   OH223787   3.608   3.742  13.522  0.5499 -0.0379 -0.1414
  791TIP3    H123788   3.547   3.788  13.579  1.0844  0.8256 -0.2435
  791TIP3    H223789   3.559   3.667  13.490 -0.6924  0.9852 -0.7515
  792TIP3   OH223790   2.655   1.136  12.463  0.1057 -0.4422  0.3791
  792TIP3    H123791   2.724   1.160  12.524  1.0646 -0.7410 -0.5657
  792TIP3    H223792   2.639   1.216  12.412  0.7877 -0.7636 -0.3659
  793TIP3   OH223793   4.547   5.286  15.918  0.7531 -0.7516  0.4351
  793TIP3    H123794   4.519   5.344  15.990 -1.7751  0.3138 -1.2553
  793TIP3    H223795   4.624   5.241  15.952 -0.1366 -0.0807  3.6970
  794TIP3   OH223796   0.962   4.523  11.345  0.1327  0.4708  0.3492
  794TIP3    H123797   1.022   4.494  11.277 -1.5769 -1.5362 -0.4059
  794TIP3    H223798   1.018   4.565  11.410  2.2577 -0.7614 -0.5833
  795TIP3   OH223799   4.302   6.085  15.564 -0.3120  0.4273 -0.0863
  795TIP3    H123800   4.378   6.061  15.618 -0.3401 -3.6386 -1.4897
  795TIP3    H223801   4.229   6.087  15.625  0.3658  0.8779  0.7419
  796TIP3   OH223802   5.164   0.177  16.649 -0.6633  0.0490 -0.0033
  796TIP3    H123803   5.248   0.206  16.613 -0.9019  0.3126 -0.3503
  796TIP3    H223804   5.127   0.255  16.690 -1.2400  0.2122 -0.8127
  797TIP3   OH223805   5.011   4.237   5.533  0.1148 -0.5350  0.5239
  797TIP3    H123806   5.003   4.330   5.558 -0.2161 -0.6033  0.6777
  797TIP3    H223807   5.077   4.237   5.463  1.4372 -0.3909  1.7123
  798TIP3   OH223808   1.212   2.892   1.344 -0.1344  0.0775  0.2130
  798TIP3    H123809   1.208   2.987   1.355  0.1996  0.2446 -1.0200
  798TIP3    H223810   1.151   2.872   1.274 -0.0660 -0.6038  0.3336
  799TIP3   OH223811   2.146   4.403  16.082  0.3285 -0.1920  0.1180
  799TIP3    H123812   2.220   4.370  16.032  0.5227  0.3847  0.0258
  799TIP3    H223813   2.139   4.496  16.058 -2.0614 -0.7808 -1.9684
  800TIP3   OH223814   4.386   3.449   6.575  0.0264  0.1876  0.2093
  800TIP3    H123815   4.341   3.372   6.610 -0.3476  0.1201 -0.3977
  800TIP3    H223816   4.453   3.469   6.640  0.3653 -0.8696  0.2121
  801TIP3   OH223817   1.679   0.562  15.603 -0.1895 -0.4197  0.7851
  801TIP3    H123818   1.636   0.483  15.636  0.1631 -0.9494  0.0124
  801TIP3    H223819   1.767   0.533  15.577  0.0321  0.2777  0.7320
  802TIP3   OH223820   0.207   1.509  12.965  0.1530 -0.1485 -0.4291
  802TIP3    H123821   0.214   1.594  13.008  1.9125  0.8140 -2.4042
  802TIP3    H223822   0.124   1.473  12.996  0.2423  1.4352  1.9060
  803TIP3   OH223823   6.206   6.293  11.813 -0.3161  0.0149  0.2442
  803TIP3    H123824   6.166   6.287  11.727 -0.5086 -0.1987  0.3463
  803TIP3    H223825   6.147   6.244  11.871 -0.3034  0.3432  0.5386
  804TIP3   OH223826   6.675   1.764   4.750  0.5927  0.6415 -0.1163
  804TIP3    H123827   6.618   1.785   4.676 -0.4109  1.7685  0.9276
  804TIP3    H223828   6.619   1.712   4.809  1.3969 -0.2927 -0.1459
  805TIP3   OH223829   4.065   2.569  17.072  0.3523 -0.1817  0.1977
  805TIP3    H123830   4.151   2.605  17.048 -1.4148  3.2790 -1.6919
  805TIP3    H223831   4.023   2.551  16.989 -1.4385 -0.0415  1.0357
  806TIP3   OH223832   5.168   4.877  11.817  0.2763 -0.0725 -0.1675
  806TIP3    H123833   5.118   4.885  11.735 -0.9667  0.8195  0.6480
  806TIP3    H223834   5.144   4.954  11.867  3.1007  0.8181 -0.0304
  807TIP3   OH223835   1.443   6.239   2.882  0.1000 -0.2215  0.5971
  807TIP3    H123836   1.473   6.208   2.968 -0.6696  1.0153  1.3495
  807TIP3    H223837   1.509   6.304   2.856 -0.3669  0.3911  0.9049
  808TIP3   OH223838   2.168   1.671   4.981  0.1924 -0.0724 -0.1333
  808TIP3    H123839   2.101   1.624   4.930 -1.4921  0.8216  1.1503
  808TIP3    H223840   2.251   1.645   4.941 -0.8771 -1.5829 -1.5172
  809TIP3   OH223841   6.059   1.362   3.381  0.7588  0.5992  0.1983
  809TIP3    H123842   5.984   1.308   3.358  1.8875 -1.1324  0.4242
  809TIP3    H223843   6.083   1.335   3.470  0.7006  2.2637  0.7587
  810TIP3   OH223844   1.474   4.952   2.457  0.6828  0.1385  1.0080
  810TIP3    H123845   1.460   4.872   2.406  0.5324  0.0772  1.1434
  810TIP3    H223846   1.393   5.003   2.444  0.2060 -0.3347  2.0129
  811TIP3   OH223847   3.433   2.804   4.539  0.0571  0.5957 -0.0716
  811TIP3    H123848   3.407   2.736   4.477  0.7516  0.3824 -0.1387
  811TIP3    H223849   3.381   2.881   4.514  1.8317  1.1964 -2.3365
  812TIP3   OH223850   5.037   2.254   2.924  0.0430 -0.1657 -0.2899
  812TIP3    H123851   5.030   2.326   2.861  0.9863  0.0234 -0.1896
  812TIP3    H223852   5.128   2.226   2.918  0.4280  0.5288  1.7064
  813TIP3   OH223853   1.850   5.523   0.692 -0.0230 -0.3684  0.1445
  813TIP3    H123854   1.815   5.564   0.613  2.0359 -1.8922 -1.6745
  813TIP3    H223855   1.835   5.587   0.761 -3.7750  0.1983 -0.9624
  814TIP3   OH223856   5.966   2.492   1.462 -0.8758 -0.1989  0.2065
  814TIP3    H123857   6.026   2.507   1.536  2.0114  1.7398 -2.2695
  814TIP3    H223858   5.901   2.432   1.496  1.7826 -1.5206  3.5605
  815TIP3   OH223859   0.595   4.889   4.030 -0.1548 -0.0360 -0.3679
  815TIP3    H123860   0.639   4.975   4.027  2.1089 -0.8178  3.1811
  815TIP3    H223861   0.517   4.905   4.083  0.0352 -0.0511 -0.0775
  816TIP3   OH223862   5.379   3.206  15.447 -0.0691  0.1602 -0.3562
  816TIP3    H123863   5.291   3.232  15.419 -0.1565  2.5374  1.7694
  816TIP3    H223864   5.366   3.124  15.494 -1.0425  0.1144 -0.6839
  817TIP3   OH223865   5.405   5.682  13.920  0.3693 -0.5598 -0.0983
  817TIP3    H123866   5.445   5.630  13.990  0.5640  0.9179  0.9341
  817TIP3    H223867   5.454   5.659  13.842  1.4821 -0.7902  0.6382
  818TIP3   OH223868   0.122   3.796  17.198 -0.1181  0.3482 -0.1278
  818TIP3    H123869   0.057   3.855  17.235 -0.0460  0.3460  0.0050
  818TIP3    H223870   0.071   3.728  17.154 -0.2346 -0.4181  1.1515
  819TIP3   OH223871   6.084   3.001   2.818 -0.1235 -0.0292 -0.3825
  819TIP3    H123872   6.048   2.929   2.766 -0.3757  1.2226 -2.0571
  819TIP3    H223873   6.158   2.963   2.864  0.9615 -0.9476 -2.7396
  820TIP3   OH223874   6.243   3.821   5.709  0.1371  0.2744  0.4521
  820TIP3    H123875   6.255   3.756   5.640 -1.2215 -0.8555  1.2338
  820TIP3    H223876   6.328   3.827   5.752  0.1587 -1.3762  0.6881
  821TIP3   OH223877   6.318   2.624   5.961 -0.4921  0.0614 -0.2995
  821TIP3    H123878   6.333   2.630   6.055  2.5963 -0.4617 -0.6503
  821TIP3    H223879   6.279   2.537   5.949 -0.1797 -0.1868  0.4193
  822TIP3   OH223880   5.543   4.060   5.782  0.5636 -0.1831  0.1155
  822TIP3    H123881   5.605   4.003   5.738  0.5800  0.6306 -0.9583
  822TIP3    H223882   5.597   4.123   5.830  0.5641  0.0142 -0.1424
  823TIP3   OH223883   3.224   6.466   0.909 -0.3362  0.3552  0.4727
  823TIP3    H123884   3.254   6.462   0.818  1.2306 -0.1416  0.9638
  823TIP3    H223885   3.216   6.559   0.928 -2.4115  0.4471 -0.6719
  824TIP3   OH223886   2.946   4.642   5.426 -0.2253  0.0452  0.6103
  824TIP3    H123887   2.965   4.647   5.520 -0.9014 -0.5282  0.7871
  824TIP3    H223888   2.892   4.563   5.417  1.0155 -0.7391 -0.4620
  825TIP3   OH223889   4.242   0.415  14.411  0.7349 -0.2158  0.5305
  825TIP3    H123890   4.228   0.415  14.506  1.0061 -1.0345  0.5791
  825TIP3    H223891   4.202   0.496  14.381  1.0846  0.2944  1.4062
  826TIP3   OH223892   2.239   0.671  15.028 -0.2105 -0.5958  0.0291
  826TIP3    H123893   2.158   0.622  15.043  0.3607 -1.4974  0.2599
  826TIP3    H223894   2.228   0.709  14.941 -1.1059 -0.2474  0.2829
  827TIP3   OH223895   0.535   5.293   6.015  0.4391  0.0367  0.5658
  827TIP3    H123896   0.602   5.251   5.962  1.1646  1.3588  0.3969
  827TIP3    H223897   0.501   5.364   5.960  0.8494  1.1101  1.6485
  828TIP3   OH223898   5.320   3.351   0.607 -0.7074 -0.3326 -0.2965
  828TIP3    H123899   5.230   3.332   0.636 -1.3422  1.4358 -0.9799
  828TIP3    H223900   5.325   3.446   0.604  0.9180 -0.4093 -1.1608
  829TIP3   OH223901   3.977   5.177  16.083  0.2747  0.4071 -0.0339
  829TIP3    H123902   4.059   5.220  16.058  0.2491  0.3202 -0.2739
  829TIP3    H223903   3.913   5.211  16.020 -0.0867  1.2044  0.7378
  830TIP3   OH223904   2.076   0.818  15.923  0.3775  0.3063 -0.1291
  830TIP3    H123905   2.171   0.806  15.917  0.6961  1.8450  1.2342
  830TIP3    H223906   2.064   0.910  15.947 -1.5370  0.5470 -1.7058
  831TIP3   OH223907   1.255   4.869  15.420  0.0371  0.4356  0.4102
  831TIP3    H123908   1.232   4.867  15.513  2.1375  1.7006  1.0401
  831TIP3    H223909   1.205   4.942  15.384  0.2286  0.8054  0.8849
  832TIP3   OH223910   3.987   2.235  15.478 -0.0325 -0.2839  0.0211
  832TIP3    H123911   4.047   2.160  15.486 -0.0225 -0.3685 -0.7464
  832TIP3    H223912   4.039   2.309  15.508  0.0170 -0.5565  0.6211
  833TIP3   OH223913   6.103   5.630  12.091  0.1416 -0.0505 -0.2401
  833TIP3    H123914   6.153   5.663  12.165  2.4580 -0.2680 -1.6176
  833TIP3    H223915   6.168   5.612  12.024 -1.9135  0.9299 -2.6782
  834TIP3   OH223916   1.186   6.183   6.110 -0.1756 -0.5320 -0.5817
  834TIP3    H123917   1.092   6.185   6.094 -0.1283  0.5803 -0.8088
  834TIP3    H223918   1.209   6.090   6.109 -1.0763 -0.7548 -1.6505
  835TIP3   OH223919   1.565   0.623   1.613  0.0027 -0.7973 -0.3388
  835TIP3    H123920   1.610   0.542   1.591  0.4062 -0.9890  1.1268
  835TIP3    H223921   1.546   0.616   1.706 -0.5068  0.5256 -0.3204
  836TIP3   OH223922   1.309   6.700   3.914 -0.6551 -0.1632 -0.4262
  836TIP3    H123923   1.339   6.786   3.941  0.1201 -0.0279 -1.6569
  836TIP3    H223924   1.254   6.716   3.836  0.8131 -0.8724 -1.6688
  837TIP3   OH223925   5.425   1.473  14.207 -0.1904  0.0064  0.2536
  837TIP3    H123926   5.397   1.401  14.150  0.1882  0.2675 -0.2619
  837TIP3    H223927   5.454   1.542  14.147 -0.8122  0.7013  0.7343
  838TIP3   OH223928   2.075   2.243   4.293 -0.2476  0.3881  1.0974
  838TIP3    H123929   2.075   2.261   4.387 -0.1050  1.7452  0.8643
  838TIP3    H223930   2.161   2.271   4.263 -1.3803  3.0745  0.0697
  839TIP3   OH223931   1.706   5.280   3.438 -0.3516 -0.3634 -0.5607
  839TIP3    H123932   1.776   5.341   3.413  0.2621 -1.2638 -1.1038
  839TIP3    H223933   1.634   5.301   3.378 -0.5244  0.4966 -0.0699
  840TIP3   OH223934   1.495   2.415  10.847  0.5049  0.3506  0.2243
  840TIP3    H123935   1.480   2.395  10.754  0.2986  0.4737  0.2305
  840TIP3    H223936   1.569   2.360  10.871  0.4574  0.1972  0.0287
  841TIP3   OH223937   0.376   1.146   5.845 -0.2393  0.5174  0.1794
  841TIP3    H123938   0.338   1.214   5.789 -1.3299 -0.6219 -0.5030
  841TIP3    H223939   0.301   1.109   5.891 -0.0907 -1.9793 -1.4041
  842TIP3   OH223940   0.133   2.084   2.688 -0.5321 -0.2275  0.3076
  842TIP3    H123941   0.082   2.157   2.652 -0.7681 -0.9502 -0.9065
  842TIP3    H223942   0.067   2.024   2.723 -0.3284  0.2200  1.4922
  843TIP3   OH223943   6.175   5.549  11.641 -0.2586  0.0962 -0.3899
  843TIP3    H123944   6.186   5.615  11.573  1.6307  0.6494  0.3665
  843TIP3    H223945   6.095   5.575  11.687  0.1152  1.5434 -0.4888
  844TIP3   OH223946   2.971   5.897  11.601 -0.0070 -0.2094  0.3184
  844TIP3    H123947   2.923   5.931  11.677 -1.8330  0.4646 -1.0250
  844TIP3    H223948   3.013   5.975  11.564 -2.6215  0.4124 -1.6761
  845TIP3   OH223949   2.160   0.959  14.685  0.4256  0.0007 -0.5672
  845TIP3    H123950   2.098   0.938  14.616 -0.7233  1.1123  0.0866
  845TIP3    H223951   2.170   0.877  14.734 -0.5805 -0.1846 -0.6529
  846TIP3   OH223952   0.613   1.965   4.016 -0.5254  0.3688 -0.1989
  846TIP3    H123953   0.619   1.925   4.102 -0.9703 -1.9304 -1.1670
  846TIP3    H223954   0.555   2.040   4.028 -0.6088  0.0734  1.4618
  847TIP3   OH223955   4.869   0.782  14.793  0.2032  0.5061  0.1616
  847TIP3    H123956   4.842   0.714  14.732  0.3723 -0.3936  1.0708
  847TIP3    H223957   4.936   0.740  14.847  0.6294  1.5287  0.4480
  848TIP3   OH223958   1.281   0.734   0.764 -0.1239  0.4926 -0.3836
  848TIP3    H123959   1.359   0.686   0.790 -0.5824  0.0880  0.2532
  848TIP3    H223960   1.210   0.697   0.816 -0.4621  1.9545  0.2419
  849TIP3   OH223961   6.220   6.715  13.112  0.4748  1.2301  0.8211
  849TIP3    H123962   6.294   6.662  13.083  0.0931 -0.6842  3.0378
  849TIP3    H223963   6.247   6.806  13.097  2.1363  0.5012 -0.8835
  850TIP3   OH223964   4.622   0.615  16.450 -0.0522 -0.1618 -0.8137
  850TIP3    H123965   4.634   0.524  16.423  0.4463 -0.7373  1.1384
  850TIP3    H223966   4.605   0.609  16.545  1.8830  1.8869 -0.2582
  851TIP3   OH223967   1.775   6.720   4.496  0.0362 -0.3555  0.0307
  851TIP3    H123968   1.791   6.661   4.422  0.4399 -0.5963  0.3067
  851TIP3    H223969   1.683   6.707   4.517 -0.2327  0.1364 -0.7895
  852TIP3   OH223970   0.656   1.728   4.837 -0.1268  0.0554 -0.1903
  852TIP3    H123971   0.690   1.640   4.854  1.1844  0.7004  0.7333
  852TIP3    H223972   0.561   1.716   4.831  0.0598 -1.4929 -0.6349
  853TIP3   OH223973   1.286   2.440   0.764  0.1455 -0.1019  0.1711
  853TIP3    H123974   1.224   2.420   0.693  0.9127 -0.4556 -0.4151
  853TIP3    H223975   1.321   2.355   0.789 -2.2190 -0.3908  3.0197
  854TIP3   OH223976   3.335   3.275  17.108 -0.4954  0.2398 -0.6097
  854TIP3    H123977   3.429   3.267  17.090  0.3193  2.0284  2.1292
  854TIP3    H223978   3.322   3.368  17.126 -2.6273 -0.0963 -0.1443
  855TIP3   OH223979   0.130   4.880  14.189 -0.5410 -0.4878  0.2843
  855TIP3    H123980   0.118   4.893  14.283  0.4766  1.9660  0.1520
  855TIP3    H223981   0.161   4.790  14.181  0.7378 -0.3140  2.4516
  856TIP3   OH223982   0.286   1.205   3.400  0.0198 -0.0486 -0.5617
  856TIP3    H123983   0.258   1.294   3.421  2.7525  0.1445  3.1794
  856TIP3    H223984   0.370   1.216   3.356  0.4222 -0.7997  0.0094
  857TIP3   OH223985   3.574   3.003   5.405  0.3602 -0.6818  0.0416
  857TIP3    H123986   3.668   3.010   5.388  0.6530 -0.4039  1.6244
  857TIP3    H223987   3.535   3.076   5.357  0.7755 -1.5517 -1.6818
  858TIP3   OH223988   0.241   2.507  13.237  0.2144 -0.2953  0.4272
  858TIP3    H123989   0.291   2.437  13.281 -0.6051 -1.0177  0.2453
  858TIP3    H223990   0.150   2.477  13.241 -0.0304  0.2928 -0.5509
  859TIP3   OH223991   1.554   0.495  12.593  0.4153  0.3144 -0.1155
  859TIP3    H123992   1.598   0.575  12.565 -0.6958  0.7499 -0.6703
  859TIP3    H223993   1.481   0.484  12.532  0.5835 -1.1665 -0.0897
  860TIP3   OH223994   3.492   1.161   5.056 -0.3006  0.2102 -0.7474
  860TIP3    H123995   3.545   1.127   4.984 -1.0821 -0.7318 -0.8990
  860TIP3    H223996   3.538   1.240   5.085  0.8435 -0.2445 -1.2774
  861TIP3   OH223997   4.384   3.118   0.699  0.7548  0.0210 -0.3766
  861TIP3    H123998   4.369   3.154   0.786  0.1482  0.7300 -0.7646
  861TIP3    H223999   4.310   3.059   0.685  1.1950 -0.5927 -0.1601
  862TIP3   OH224000   2.349   0.871  16.189 -0.0471 -0.4052  0.2925
  862TIP3    H124001   2.365   0.847  16.098 -0.2702 -2.4360  0.7268
  862TIP3    H224002   2.392   0.956  16.200  2.6574 -1.5042 -0.9015
  863TIP3   OH224003   3.273   6.071   1.819 -0.1221  0.0394  0.4261
  863TIP3    H124004   3.346   6.126   1.849 -0.0807  0.0779  0.2542
  863TIP3    H224005   3.300   6.042   1.732 -0.2545 -0.0539  0.4167
  864TIP3   OH224006   2.998   5.060   2.410 -0.4952  0.2774  0.2090
  864TIP3    H124007   3.044   5.032   2.489  1.7161 -1.1772 -1.4377
  864TIP3    H224008   2.998   4.982   2.354 -0.6958  1.6162 -1.7626
  865TIP3   OH224009   6.385   2.200  16.056  0.5969 -0.1217 -0.3088
  865TIP3    H124010   6.358   2.142  15.985  1.2019 -1.0898  0.2496
  865TIP3    H224011   6.353   2.158  16.135  1.8349 -0.1593  0.1810
  866TIP3   OH224012   5.954   2.786   1.959  0.0473  0.3334 -0.0891
  866TIP3    H124013   6.001   2.746   2.031 -1.7402  1.1232  1.6259
  866TIP3    H224014   5.978   2.879   1.963 -0.2529  0.4254 -0.3194
  867TIP3   OH224015   2.182   5.934  14.061 -0.1774 -0.2242  0.0801
  867TIP3    H124016   2.171   5.937  14.156  1.2087  0.4772  0.2504
  867TIP3    H224017   2.133   5.857  14.033 -1.3583  0.0697  1.2436
  868TIP3   OH224018   1.026   5.040   0.808 -0.3240  0.3005 -0.5455
  868TIP3    H124019   1.101   5.051   0.750 -0.7078 -1.2880 -1.4207
  868TIP3    H224020   1.023   4.945   0.824 -0.2299  0.6894  2.1043
  869TIP3   OH224021   6.288   0.094   5.141 -0.0111 -0.0341 -0.2917
  869TIP3    H124022   6.242   0.155   5.198  0.3630  1.9722 -1.9989
  869TIP3    H224023   6.300   0.142   5.059  0.8993 -2.1991 -1.5161
  870TIP3   OH224024   5.202   1.669   3.957 -0.2622 -0.5510 -0.6972
  870TIP3    H124025   5.145   1.744   3.938 -0.3030 -0.1656  0.8826
  870TIP3    H224026   5.184   1.607   3.885 -3.9074 -1.1552  0.5422
  871TIP3   OH224027   3.748   6.774  16.027 -0.1281 -0.0391 -0.4244
  871TIP3    H124028   3.693   6.714  15.976 -2.7215  2.6162 -1.0350
  871TIP3    H224029   3.700   6.857  16.025  3.3184  2.1472  0.2226
  872TIP3   OH224030   3.054   3.261   1.611  0.1436  0.0467  0.5949
  872TIP3    H124031   2.988   3.228   1.672 -0.3893 -0.4540 -0.2273
  872TIP3    H224032   3.011   3.334   1.566 -0.1473 -0.7778 -0.4973
  873TIP3   OH224033   1.086   1.634   1.873 -0.0689  0.2879  0.0645
  873TIP3    H124034   1.051   1.677   1.795 -1.8453 -0.9392  0.1207
  873TIP3    H224035   1.103   1.544   1.845  1.4414  0.3902  0.5353
  874TIP3   OH224036   5.002   2.169   0.834  0.6340 -0.1039  0.2336
  874TIP3    H124037   5.015   2.199   0.744 -0.5859 -0.0740  0.0610
  874TIP3    H224038   4.910   2.188   0.853  0.9852  0.3282  1.6487
  875TIP3   OH224039   3.321   6.585   4.674 -0.1235 -0.0576 -0.5489
  875TIP3    H124040   3.258   6.573   4.603  0.5647  2.2951 -1.6507
  875TIP3    H224041   3.268   6.611   4.749 -0.6402 -0.1248 -0.8823
  876TIP3   OH224042   5.846   2.710  12.413  0.4311  0.3527  0.2529
  876TIP3    H124043   5.886   2.709  12.326 -0.1528 -0.2954 -0.0142
  876TIP3    H224044   5.796   2.628  12.418 -2.0032  1.7303  0.0272
  877TIP3   OH224045   0.852   1.504   3.128  0.0079  0.3890 -0.3212
  877TIP3    H124046   0.894   1.537   3.208  0.1102  1.1626 -0.6826
  877TIP3    H224047   0.893   1.419   3.113  1.4089  1.0866 -0.6194
  878TIP3   OH224048   4.381   6.610   2.560 -0.4810  0.2557 -0.0679
  878TIP3    H124049   4.440   6.661   2.615 -0.2578  0.1330 -0.1951
  878TIP3    H224050   4.358   6.669   2.488 -1.2101  0.6089  0.4465
  879TIP3   OH224051   0.702   6.573  12.889 -0.5466 -0.3942  0.2601
  879TIP3    H124052   0.705   6.479  12.869 -1.0856 -0.5481  0.8841
  879TIP3    H224053   0.690   6.615  12.804 -0.2510 -0.8875 -0.0300
  880TIP3   OH224054   6.555   3.945  11.861 -0.0460  0.5801 -0.2000
  880TIP3    H124055   6.594   3.895  11.790 -0.8753  0.3827 -0.5325
  880TIP3    H224056   6.627   3.997  11.896  0.7149 -0.4751 -0.1628
  881TIP3   OH224057   1.435   1.120   3.768 -0.1767 -0.1766 -0.1279
  881TIP3    H124058   1.488   1.165   3.702  0.7344 -0.3968  0.4297
  881TIP3    H224059   1.428   1.030   3.735 -0.3392 -0.1093 -0.2787
  882TIP3   OH224060   4.947   2.573   5.128 -0.0007 -0.1326  0.0596
  882TIP3    H124061   4.991   2.493   5.158 -0.6187 -0.8940 -0.9884
  882TIP3    H224062   4.950   2.631   5.204 -0.0853 -1.3783  1.0588
  883TIP3   OH224063   3.278   5.668   5.152  0.7147 -0.1607 -0.0500
  883TIP3    H124064   3.185   5.665   5.128  0.5386  4.1462 -0.5458
  883TIP3    H224065   3.284   5.609   5.227 -2.2659 -0.9782 -0.2883
  884TIP3   OH224066   4.929   1.443  15.250  0.3601  0.4648 -0.2676
  884TIP3    H124067   4.960   1.457  15.161 -0.5785 -0.7951 -0.8084
  884TIP3    H224068   4.937   1.349  15.264  1.3899  0.7420  1.3390
  885TIP3   OH224069   1.141   3.049  13.303 -0.3773 -0.3024  0.1172
  885TIP3    H124070   1.170   3.078  13.216  0.4860  2.1626  1.1623
  885TIP3    H224071   1.124   2.955  13.292 -0.9273  0.0518 -2.8655
  886TIP3   OH224072   1.562   2.080   0.019 -0.2217  0.7818 -0.3795
  886TIP3    H124073   1.578   2.053   0.109 -0.9319 -0.8721 -0.7191
  886TIP3    H224074   1.587   2.004  -0.034 -0.8510  1.3328 -1.5004
  887TIP3   OH224075   4.112   1.365   4.742  0.0330  0.5518 -0.2404
  887TIP3    H124076   4.180   1.300   4.758 -2.6308 -2.6891 -1.0156
  887TIP3    H224077   4.148   1.421   4.673  1.7771 -1.2257 -0.8429
  888TIP3   OH224078   4.614   2.085   4.133  0.0949  0.0384 -0.1949
  888TIP3    H124079   4.522   2.083   4.105 -0.3009  2.9543  0.5811
  888TIP3    H224080   4.610   2.079   4.228  0.7934 -0.5247 -0.1932
  889TIP3   OH224081   4.355   2.590   4.799 -0.2697 -0.5797  0.3846
  889TIP3    H124082   4.447   2.594   4.773 -0.2062 -0.3908  0.6426
  889TIP3    H224083   4.307   2.603   4.717 -0.1318 -4.6520 -0.6003
  890TIP3   OH224084   3.027   6.668  10.941  0.4899  0.3504 -0.4505
  890TIP3    H124085   2.977   6.743  10.910  4.2842  3.2269 -0.3185
  890TIP3    H224086   2.976   6.633  11.013 -1.2328  3.1749 -0.1755
  891TIP3   OH224087   1.367   1.883  16.596  0.2197 -0.5057 -0.0404
  891TIP3    H124088   1.349   1.923  16.681 -0.0697 -1.7723  0.5188
  891TIP3    H224089   1.423   1.808  16.615 -0.3074 -1.1446 -0.8900
  892TIP3   OH224090   1.811   4.950  17.309  0.5969  0.0213  0.4463
  892TIP3    H124091   1.875   4.893  17.351  2.1067  0.4710 -1.0892
  892TIP3    H224092   1.863   5.004  17.249 -1.0028  1.7594  0.5308
  893TIP3   OH224093   1.481   0.907  13.757 -0.0402  0.2525  0.7675
  893TIP3    H124094   1.572   0.935  13.771 -0.0709  0.8504 -0.1298
  893TIP3    H224095   1.483   0.812  13.767  0.3562  0.4107  2.4100
  894TIP3   OH224096   4.328   1.406   1.125 -0.0592 -0.5386 -0.5853
  894TIP3    H124097   4.375   1.410   1.042 -0.2681 -0.3343 -0.6945
  894TIP3    H224098   4.331   1.314   1.150  1.1454 -0.4051 -0.1538
  895TIP3   OH224099   0.811   4.229  14.783 -0.0462  0.3938 -0.1533
  895TIP3    H124100   0.740   4.233  14.846 -0.4196 -1.0973 -0.4296
  895TIP3    H224101   0.856   4.146  14.802  1.1314  0.9313 -0.4872
  896TIP3   OH224102   1.443   6.716  15.804  0.4598  0.0647  0.7388
  896TIP3    H124103   1.353   6.685  15.814  0.6635 -1.5378 -1.7198
  896TIP3    H224104   1.455   6.775  15.879 -2.8329  0.9212  0.7846
  897TIP3   OH224105   1.948   2.437   5.818  0.1865 -0.0165  0.3255
  897TIP3    H124106   1.968   2.446   5.911  0.6361 -1.6247  0.4183
  897TIP3    H224107   1.897   2.356   5.812 -3.1861  1.9245 -0.3955
  898TIP3   OH224108   2.047   2.535  12.015 -1.0189 -0.2017  0.0163
  898TIP3    H124109   2.005   2.449  12.015 -0.6744 -0.3759  0.3471
  898TIP3    H224110   2.100   2.535  12.095 -0.4863  0.0528 -0.3292
  899TIP3   OH224111   0.563   2.351   0.165  0.4479  0.6258  0.1722
  899TIP3    H124112   0.637   2.299   0.197  1.1831  0.5921 -1.4640
  899TIP3    H224113   0.517   2.292   0.105  0.2332  1.2943 -0.3223
  900TIP3   OH224114   4.965   4.278  10.862  0.3226  0.6035 -0.4533
  900TIP3    H124115   5.054   4.244  10.877 -0.3961 -0.6879  1.1831
  900TIP3    H224116   4.943   4.249  10.774  1.8227  1.6910 -1.2350
  901TIP3   OH224117   3.266   0.620   5.444  0.2126 -0.3040 -0.3999
  901TIP3    H124118   3.198   0.653   5.503  2.3413 -0.2881  2.2414
  901TIP3    H224119   3.348   0.642   5.488  2.0801  0.8277 -4.0242
  902TIP3   OH224120   6.263   1.713   0.898  0.7323 -0.9620 -0.1458
  902TIP3    H124121   6.194   1.724   0.963 -0.5285 -1.7015 -1.3048
  902TIP3    H224122   6.331   1.662   0.944  0.0282 -1.1764  0.6902
  903TIP3   OH224123   0.043   0.597  16.758  0.3071 -0.1935 -0.1227
  903TIP3    H124124   0.051   0.590  16.663 -1.1476  0.8084 -0.3463
  903TIP3    H224125   0.060   0.508  16.789  1.9815 -0.2940 -1.2019
  904TIP3   OH224126   1.640   5.652  12.825 -0.2387  0.0835 -0.4866
  904TIP3    H124127   1.665   5.744  12.831  2.1422 -0.5373 -0.1620
  904TIP3    H224128   1.592   5.646  12.742  0.4100  1.4212 -0.9884
  905TIP3   OH224129   2.960   1.195  16.847  0.0891  0.4037 -0.1148
  905TIP3    H124130   3.031   1.238  16.895 -0.4133 -0.0604  1.0685
  905TIP3    H224131   2.888   1.258  16.850  0.0623  0.3809 -0.2909
  906TIP3   OH224132   4.937   2.921   5.740 -0.6711 -0.6962  0.4928
  906TIP3    H124133   4.888   2.844   5.769 -0.6483  0.0769  2.7519
  906TIP3    H224134   4.884   2.996   5.768 -0.9215  0.2018 -2.0430
  907TIP3   OH224135   5.764   3.882  13.647  0.0640  0.2396  0.1322
  907TIP3    H124136   5.758   3.895  13.553 -0.1352 -0.3706  0.0563
  907TIP3    H224137   5.816   3.802  13.657 -1.4663 -0.7564  0.4669
  908TIP3   OH224138   2.790   0.026   6.038  1.0178 -0.7098  0.3107
  908TIP3    H124139   2.787   0.090   5.967 -0.4833 -2.0948 -0.9593
  908TIP3    H224140   2.796   0.079   6.118  2.0325  0.9160 -0.7792
  909TIP3   OH224141   6.088   5.494  16.341  0.3859 -0.1250  0.4250
  909TIP3    H124142   5.999   5.485  16.373  0.2810 -2.8315 -0.4018
  909TIP3    H224143   6.110   5.408  16.305  3.2741  0.4923  0.4330
  910TIP3   OH224144   1.288   0.006   3.469 -0.5820 -0.2610  0.5188
  910TIP3    H124145   1.227   0.079   3.483 -0.8892 -0.7100  1.6818
  910TIP3    H224146   1.234  -0.073   3.479 -0.2597 -0.6621 -0.7431
  911TIP3   OH224147   1.869   4.080   2.244  0.0259 -0.0162 -0.7299
  911TIP3    H124148   1.876   4.175   2.231 -0.0169 -0.1549 -1.8671
  911TIP3    H224149   1.775   4.062   2.240  0.0356 -0.1155 -0.5434
  912TIP3   OH224150   3.351   0.991  16.040 -0.3055  0.4034 -0.0313
  912TIP3    H124151   3.315   0.915  16.084  0.6833 -0.9812 -1.4920
  912TIP3    H224152   3.317   0.986  15.951 -0.7226  2.0474 -0.0021
  913TIP3   OH224153   6.569   1.295  15.114 -0.0675  0.2376  0.6197
  913TIP3    H124154   6.474   1.300  15.108 -0.0055  0.6653 -0.0836
  913TIP3    H224155   6.600   1.378  15.079  0.6236 -0.6152 -0.8750
  914TIP3   OH224156   4.864   3.177  16.539 -0.3538  0.1646 -0.6149
  914TIP3    H124157   4.795   3.242  16.554 -1.5588 -0.8677 -1.4744
  914TIP3    H224158   4.840   3.103  16.595  0.9428  0.3840  0.2723
  915TIP3   OH224159   5.447   3.364  15.126 -0.3105 -0.1643  0.1241
  915TIP3    H124160   5.361   3.383  15.163 -1.3006  0.4402 -2.2679
  915TIP3    H224161   5.437   3.276  15.088  1.1604 -1.4495  2.5189
  916TIP3   OH224162   0.233   0.497   3.539 -0.4576 -0.4165 -0.3843
  916TIP3    H124163   0.174   0.437   3.585 -0.3725 -0.5043 -0.3875
  916TIP3    H224164   0.254   0.564   3.604 -0.0182 -0.7598 -0.1627
  917TIP3   OH224165   0.005   1.074   0.679  0.0071  0.7171 -0.2293
  917TIP3    H124166   0.031   0.994   0.724  0.1042  0.4097 -0.8141
  917TIP3    H224167   0.045   1.067   0.592  2.2961  2.6420  0.5386
  918TIP3   OH224168   4.041   6.121  11.629 -0.3115  0.2991  0.0138
  918TIP3    H124169   4.130   6.152  11.615  0.1859 -1.1065 -0.1221
  918TIP3    H224170   4.043   6.083  11.717 -0.9200  0.6955  0.2090
  919TIP3   OH224171   3.846   1.323  13.310  0.6470 -0.2578  0.6537
  919TIP3    H124172   3.856   1.238  13.266  0.1557  0.4650 -0.9184
  919TIP3    H224173   3.794   1.375  13.250  0.7050  1.0886  1.7235
  920TIP3   OH224174   5.533   2.564   4.243 -0.0662 -0.4434 -0.2074
  920TIP3    H124175   5.598   2.622   4.202 -1.6884  0.8522 -1.0830
  920TIP3    H224176   5.482   2.623   4.299 -0.5326 -1.4271  0.4211
  921TIP3   OH224177   4.790   1.640   6.711 -0.4526 -0.6578 -0.4440
  921TIP3    H124178   4.791   1.554   6.670 -0.2177 -1.3995  1.0666
  921TIP3    H224179   4.742   1.628   6.792  0.4216  0.4054  0.2580
  922TIP3   OH224180   6.128   4.340  11.818 -0.4951 -0.2491  0.1834
  922TIP3    H124181   6.041   4.304  11.801 -0.5591  0.3643 -0.8952
  922TIP3    H224182   6.167   4.281  11.882 -0.9176 -1.7478 -0.8840
  923TIP3   OH224183   2.335   5.786  15.598  0.2686  0.0881  0.0570
  923TIP3    H124184   2.250   5.755  15.627  0.1695  1.1476  0.9726
  923TIP3    H224185   2.396   5.718  15.625 -0.4392 -1.4967 -2.1039
  924TIP3   OH224186   6.199   2.945   6.435 -0.8440  0.1375  0.0005
  924TIP3    H124187   6.271   2.978   6.489  0.5720 -0.1113 -1.6475
  924TIP3    H224188   6.133   3.014   6.437  0.1985  1.1413  0.1438
  925TIP3   OH224189   0.799   3.571  16.396  0.6857 -0.1322 -0.4115
  925TIP3    H124190   0.769   3.482  16.412 -2.2220  0.5398 -1.5495
  925TIP3    H224191   0.892   3.562  16.375  1.0311 -2.5836  1.6555
  926TIP3   OH224192   4.895   2.075   2.313  0.3618  0.2038  0.1782
  926TIP3    H124193   4.860   2.161   2.337  1.2903  0.1894  1.6907
  926TIP3    H224194   4.990   2.088   2.312  0.5062 -0.8022  0.4089
  927TIP3   OH224195   2.245   3.326  17.007  0.5286  0.0050  0.0498
  927TIP3    H124196   2.217   3.390  16.942 -0.9452 -0.3929  0.2669
  927TIP3    H224197   2.308   3.374  17.061  1.5821  0.4196 -1.4747
  928TIP3   OH224198   2.240   4.394  12.323  0.4101 -0.1451  0.3600
  928TIP3    H124199   2.207   4.345  12.248  0.0636  1.0777 -0.3254
  928TIP3    H224200   2.228   4.336  12.398  1.8752 -1.8679 -0.6801
  929TIP3   OH224201   4.690   1.302   2.228 -0.8206 -0.2250  0.3416
  929TIP3    H124202   4.742   1.289   2.307 -2.7661 -1.0134  1.5688
  929TIP3    H224203   4.727   1.380   2.187  1.5486 -0.9851  0.8885
  930TIP3   OH224204   6.614   3.589   5.959  0.0096  0.5159  0.2674
  930TIP3    H124205   6.681   3.559   5.898 -0.3005  0.4952 -0.0693
  930TIP3    H224206   6.614   3.524   6.030 -2.5181 -1.9338 -1.7396
  931TIP3   OH224207   2.894   1.391   1.332  0.0465 -0.6435 -0.3323
  931TIP3    H124208   2.878   1.301   1.304  0.1695 -0.9673  0.6227
  931TIP3    H224209   2.856   1.444   1.262 -0.8154 -1.4212 -0.4755
  932TIP3   OH224210   0.082   5.860  13.511  0.3020  0.2216  0.1674
  932TIP3    H124211   0.116   5.772  13.495 -1.2124 -0.3586 -0.0967
  932TIP3    H224212  -0.004   5.845  13.550  1.2232  1.6074  2.9496
  933TIP3   OH224213   4.024   3.897   4.730 -0.5455  0.1492  0.5106
  933TIP3    H124214   4.060   3.986   4.728  1.2110 -0.5328 -0.7083
  933TIP3    H224215   3.930   3.910   4.737 -0.2435  2.0685  1.8612
  934TIP3   OH224216   4.760   5.377  11.070  0.2144  0.1847 -0.0339
  934TIP3    H124217   4.757   5.441  11.000 -0.2644  0.6951  0.4456
  934TIP3    H224218   4.780   5.294  11.027  3.0874  0.9891 -0.4359
  935TIP3   OH224219   0.730   1.460  11.463  0.7541 -0.2299 -0.4362
  935TIP3    H124220   0.806   1.410  11.432  0.7904  0.0793 -0.8511
  935TIP3    H224221   0.734   1.452  11.558  0.8256 -0.9201 -0.4930
  936TIP3   OH224222   3.857   6.013   1.088 -0.1544  0.4588  0.1345
  936TIP3    H124223   3.944   5.987   1.118  1.6910  1.2646 -3.7974
  936TIP3    H224224   3.831   6.084   1.146  0.7119 -1.2339  2.7673
  937TIP3   OH224225   1.484   0.667   3.917 -0.2509 -0.2010  0.1052
  937TIP3    H124226   1.472   0.575   3.891  0.4075  0.1481 -1.5240
  937TIP3    H224227   1.482   0.665   4.013  2.5207 -2.3551  0.2457
  938TIP3   OH224228   3.777   4.341  13.955 -0.5572  0.3103  0.5029
  938TIP3    H124229   3.783   4.264  14.011  0.1067 -0.0977 -0.1000
  938TIP3    H224230   3.765   4.306  13.867  3.9547  0.5790 -0.4870
  939TIP3   OH224231   3.755   1.714  17.375  0.2099  0.0394  0.1890
  939TIP3    H124232   3.674   1.664  17.365  0.0139  0.5330 -0.8611
  939TIP3    H224233   3.733   1.781  17.439  0.3016 -0.8342  1.1706
  940TIP3   OH224234   6.543   5.806   4.243  0.3664 -0.2869  0.3614
  940TIP3    H124235   6.549   5.715   4.272 -0.3989 -0.2613  0.6286
  940TIP3    H224236   6.450   5.827   4.251  0.4991  0.4356  0.0438
  941TIP3   OH224237   1.607   2.814   0.747 -0.1072 -0.7431 -0.4313
  941TIP3    H124238   1.598   2.909   0.747  0.7520 -0.6474 -0.0235
  941TIP3    H224239   1.525   2.782   0.785  0.4251 -0.0393  1.4430
  942TIP3   OH224240   0.830   3.256  14.614  0.0241 -0.2444  0.2031
  942TIP3    H124241   0.830   3.176  14.666 -0.5742  0.2098  0.9138
  942TIP3    H224242   0.737   3.277  14.602  0.1740  0.7812  0.7220
  943TIP3   OH224243   1.939   5.419   5.789 -0.4562 -0.1231  0.0892
  943TIP3    H124244   1.856   5.420   5.743 -0.0834  1.9911 -0.6753
  943TIP3    H224245   1.944   5.505   5.830 -0.5626 -1.7264  3.8271
  944TIP3   OH224246   4.531   0.514  12.594  0.4170  0.1699 -0.5165
  944TIP3    H124247   4.463   0.450  12.570 -1.0602  1.0013  1.2382
  944TIP3    H224248   4.580   0.527  12.513 -1.3925 -0.6246 -1.8202
  945TIP3   OH224249   3.858   6.559  14.586 -0.0950  0.0360  0.0233
  945TIP3    H124250   3.775   6.543  14.541  0.1228  0.7932 -0.6681
  945TIP3    H224251   3.876   6.477  14.632 -1.5126  0.0576  0.6704
  946TIP3   OH224252   1.945   4.076   5.735  0.2190  0.6487 -0.0320
  946TIP3    H124253   2.029   4.048   5.697  0.4779  0.0661  0.9291
  946TIP3    H224254   1.950   4.047   5.826 -1.3923 -0.1904 -0.1796
  947TIP3   OH224255   0.525   3.810   1.829 -0.3129 -0.0906 -0.4662
  947TIP3    H124256   0.514   3.889   1.776  0.7057  0.4230  0.0472
  947TIP3    H224257   0.602   3.767   1.792 -0.4821 -0.5052 -0.3382
  948TIP3   OH224258   2.596   5.467   4.623  0.9600 -0.1075 -0.0805
  948TIP3    H124259   2.564   5.542   4.572 -1.1907 -0.2709  0.8781
  948TIP3    H224260   2.657   5.505   4.686 -0.6207  1.0348  0.8484
  949TIP3   OH224261   5.626   2.906  12.378  0.2430  0.6441  0.3658
  949TIP3    H124262   5.698   2.858  12.418  0.2332 -0.5762 -1.0002
  949TIP3    H224263   5.664   2.945  12.299 -0.8539 -1.2078 -1.1629
  950TIP3   OH224264   3.740   5.507   1.588 -0.7494  0.2110 -0.1153
  950TIP3    H124265   3.785   5.447   1.529 -2.1069 -0.9452 -0.0295
  950TIP3    H224266   3.805   5.528   1.655  0.0800 -0.3079 -0.7379
  951TIP3   OH224267   2.561   4.877  14.242  0.2859 -0.0231 -0.6080
  951TIP3    H124268   2.621   4.821  14.193 -0.5159 -1.2570 -0.2165
  951TIP3    H224269   2.611   4.904  14.319  0.1809 -1.4919 -0.0014
  952TIP3   OH224270   2.520   2.618   2.184 -0.1312  0.0439  0.0745
  952TIP3    H124271   2.573   2.596   2.261  0.8023  1.2239 -0.1903
  952TIP3    H224272   2.582   2.613   2.111 -0.1042  2.3152 -0.1339
  953TIP3   OH224273   3.980   6.479   2.938 -0.2738 -0.0201  0.2266
  953TIP3    H124274   4.067   6.485   2.899 -0.6709 -0.7299 -0.8238
  953TIP3    H224275   3.970   6.387   2.960 -0.4446  0.2050  1.1091
  954TIP3   OH224276   2.097   0.277  12.343 -0.5518  0.1194  0.5769
  954TIP3    H124277   2.123   0.194  12.305 -0.2316  0.0156  1.0205
  954TIP3    H224278   2.048   0.321  12.274  0.7073  0.2815 -0.2355
  955TIP3   OH224279   4.745   1.554  14.313  1.1099 -0.3931  0.1470
  955TIP3    H124280   4.650   1.559  14.299  0.7438 -1.4140  1.9309
  955TIP3    H224281   4.763   1.460  14.318  2.2055 -0.2069 -0.0661
  956TIP3   OH224282   1.163   2.729  11.405  0.1367 -0.2168 -0.6897
  956TIP3    H124283   1.195   2.820  11.406 -0.8304  0.1680  1.4349
  956TIP3    H224284   1.162   2.705  11.313  1.5977  1.5055 -1.2096
  957TIP3   OH224285   2.476   3.207   1.337 -0.1485 -0.2942 -0.2233
  957TIP3    H124286   2.535   3.146   1.292  0.9138  0.8653 -0.4416
  957TIP3    H224287   2.448   3.268   1.270  1.5642  1.5430  0.6211
  958TIP3   OH224288   5.072   2.977  16.434 -0.5870 -0.2778  0.1199
  958TIP3    H124289   5.083   2.998  16.527 -0.0811  0.5507 -0.1103
  958TIP3    H224290   5.152   2.930  16.410  1.0363  2.6553 -0.7140
  959TIP3   OH224291   4.756   6.392   0.844 -0.1160  0.0724 -0.2018
  959TIP3    H124292   4.781   6.400   0.936 -0.4647 -1.3746  0.0497
  959TIP3    H224293   4.773   6.478   0.807  1.2749  0.3252  0.9083
  960TIP3   OH224294   4.716   2.991  13.931  0.1710  0.1081  0.3587
  960TIP3    H124295   4.774   3.019  13.861  0.5828 -0.5887  0.4080
  960TIP3    H224296   4.706   3.068  13.987  0.2522  0.5149 -0.1867
  961TIP3   OH224297   6.272   0.853  11.254  0.4263 -0.0268  0.8044
  961TIP3    H124298   6.366   0.842  11.239 -0.0212 -1.2505 -1.7129
  961TIP3    H224299   6.248   0.926  11.197 -0.1209  0.4605  1.6446
  962TIP3   OH224300   0.024   0.754   5.089 -0.4290  0.0319  0.4486
  962TIP3    H124301   0.038   0.668   5.127  0.2333 -1.1088 -2.1521
  962TIP3    H224302   0.107   0.800   5.100  0.7971 -1.3603 -1.9739
  963TIP3   OH224303   5.900   3.401  15.084 -0.0041  0.4598  0.0296
  963TIP3    H124304   5.944   3.484  15.066 -1.0050  1.2310  1.0042
  963TIP3    H224305   5.825   3.425  15.137 -0.3177 -1.0871  0.3272
  964TIP3   OH224306   6.015   0.970   0.625 -0.3993 -0.6451 -0.2611
  964TIP3    H124307   6.067   1.034   0.576 -0.4061 -1.7823 -1.8357
  964TIP3    H224308   6.077   0.932   0.688  0.2151 -0.7084 -0.8932
  965TIP3   OH224309   0.973   2.668   2.229  0.0322 -0.0797 -0.4164
  965TIP3    H124310   1.024   2.696   2.305  0.1842  0.6399 -0.7749
  965TIP3    H224311   0.882   2.689   2.253 -0.2812 -2.3345  0.6626
  966TIP3   OH224312   0.802   1.263   2.033 -0.4507  0.2868 -0.5684
  966TIP3    H124313   0.819   1.317   1.955 -0.0824 -1.1204 -1.4927
  966TIP3    H224314   0.730   1.206   2.007  1.0047 -1.6322 -0.6624
  967TIP3   OH224315   6.025   6.643  15.508  0.5062  0.6441  0.0075
  967TIP3    H124316   5.951   6.601  15.463  1.7013  0.3231 -1.7849
  967TIP3    H224317   6.082   6.672  15.437  2.4276  0.3075  1.3521
  968TIP3   OH224318   4.403   3.425  15.334  0.0681 -0.4062  0.8763
  968TIP3    H124319   4.481   3.377  15.306 -0.1619 -0.3725  0.1698
  968TIP3    H224320   4.331   3.384  15.286  0.0111  1.4302 -0.7420
  969TIP3   OH224321   3.147   6.468   0.454  0.4511 -0.0333  0.0560
  969TIP3    H124322   3.185   6.552   0.479  1.0574 -0.5208  0.8374
  969TIP3    H224323   3.061   6.467   0.498  0.7516 -0.1194  0.6582
  970TIP3   OH224324   3.550   0.210  14.608 -0.3603 -0.2048  0.1583
  970TIP3    H124325   3.482   0.226  14.673 -0.3663 -1.8416  0.6175
  970TIP3    H224326   3.596   0.132  14.640  1.2590  0.4156 -0.5245
  971TIP3   OH224327   5.356   6.564  14.127  0.2592  0.3051  0.1686
  971TIP3    H124328   5.307   6.488  14.159  0.0336  0.8162  1.0763
  971TIP3    H224329   5.425   6.527  14.072 -0.3276 -0.5025 -0.0416
  972TIP3   OH224330   0.291   6.223  13.197 -0.1314 -0.4473 -0.3339
  972TIP3    H124331   0.297   6.260  13.286 -1.0363 -0.0648 -0.4242
  972TIP3    H224332   0.349   6.279  13.145 -0.0152 -0.3339 -0.0892
  973TIP3   OH224333   4.281   0.007   2.380 -0.2361  0.0883  0.6329
  973TIP3    H124334   4.267  -0.042   2.299 -0.9976 -1.6968  1.7892
  973TIP3    H224335   4.289   0.099   2.352  0.9304 -0.6139 -1.5801
  974TIP3   OH224336   3.487   2.446   4.398 -0.2953 -0.2788 -0.1149
  974TIP3    H124337   3.430   2.372   4.378  0.2256 -0.5165 -0.7463
  974TIP3    H224338   3.435   2.523   4.378 -1.1887 -0.4319  1.4625
  975TIP3   OH224339   3.349   5.005   3.828  0.1469  0.3118 -0.4206
  975TIP3    H124340   3.403   4.931   3.799 -0.1054  0.4910 -1.4083
  975TIP3    H224341   3.411   5.071   3.858  0.7071  1.3623 -3.4942
  976TIP3   OH224342   1.659   6.062  11.283 -0.0232  0.1940  0.0451
  976TIP3    H124343   1.640   6.069  11.189  2.0049  2.9634 -0.2987
  976TIP3    H224344   1.754   6.070  11.289  0.0584 -1.4846  2.3012
  977TIP3   OH224345   4.141   3.433   6.148  0.0587 -0.1104  0.2090
  977TIP3    H124346   4.170   3.490   6.219  0.6988 -0.6241  0.3713
  977TIP3    H224347   4.129   3.492   6.073 -1.3459  0.5464  0.9174
  978TIP3   OH224348   6.288   5.158  11.936  0.7874  0.4332 -0.8273
  978TIP3    H124349   6.310   5.227  11.874 -2.0190  1.8008 -0.4263
  978TIP3    H224350   6.346   5.173  12.011  0.8504  1.7770 -1.1332
  979TIP3   OH224351   5.235   0.815   5.389  0.0574 -0.6975  0.5662
  979TIP3    H124352   5.235   0.866   5.308  1.0035 -0.4125  0.7346
  979TIP3    H224353   5.271   0.874   5.455 -4.1633  0.4618  2.1666
  980TIP3   OH224354   6.142   5.544  14.470  0.0271 -0.2259  0.4209
  980TIP3    H124355   6.168   5.588  14.551 -1.0617  0.5355  0.3803
  980TIP3    H224356   6.161   5.608  14.401  0.0785 -0.5065  0.1752
  981TIP3   OH224357   4.359   6.254  14.904  0.1069  0.3504 -0.4726
  981TIP3    H124358   4.455   6.250  14.911  0.1513  0.1357 -1.1149
  981TIP3    H224359   4.338   6.189  14.836 -0.7538 -1.8263  1.7496
  982TIP3   OH224360   0.615   3.422   2.045 -0.5368  0.0021 -0.2326
  982TIP3    H124361   0.619   3.366   2.122  0.3944 -1.2089 -1.1064
  982TIP3    H224362   0.575   3.367   1.978  0.1833  0.4498 -1.0560
  983TIP3   OH224363   3.023   0.307   5.149  0.1816 -0.0230 -0.0370
  983TIP3    H124364   3.046   0.347   5.065 -0.8239 -0.9526 -0.7797
  983TIP3    H224365   2.991   0.380   5.203  0.3989  0.5072 -0.6178
  984TIP3   OH224366   0.975   5.540  17.373  0.3179 -0.9027  0.1441
  984TIP3    H124367   0.895   5.565  17.419  0.1665 -1.3624  0.1308
  984TIP3    H224368   1.015   5.474  17.428 -0.0348 -1.7049 -0.5418
  985TIP3   OH224369   3.792   2.229  13.121 -0.0489 -0.0274  0.0628
  985TIP3    H124370   3.797   2.138  13.090 -0.2057 -0.7697  2.0818
  985TIP3    H224371   3.881   2.249  13.150 -0.5455 -0.4660  2.0004
  986TIP3   OH224372   6.712   1.130   2.241 -0.3296  0.4898  0.1561
  986TIP3    H124373   6.710   1.140   2.336 -0.6060  1.0745  0.0933
  986TIP3    H224374   6.791   1.176   2.213  1.5624 -2.3672  0.3762
  987TIP3   OH224375   0.532   1.951  14.417 -0.1071  0.1070 -0.0569
  987TIP3    H124376   0.529   2.035  14.370  0.3700  1.9996  3.0165
  987TIP3    H224377   0.625   1.936  14.432 -0.3010  0.3038  1.4464
  988TIP3   OH224378   3.888   0.417  12.328  0.1127  0.2856 -0.1044
  988TIP3    H124379   3.955   0.400  12.262  0.5160 -1.6869  0.7531
  988TIP3    H224380   3.824   0.473  12.283 -0.0832 -1.6644 -2.4981
  989TIP3   OH224381   6.601   0.671  13.498  0.5734  0.0457  0.3451
  989TIP3    H124382   6.664   0.728  13.542 -0.4679  1.3951  0.1513
  989TIP3    H224383   6.586   0.599  13.560  1.1631  0.5006  1.0303
  990TIP3   OH224384   6.478   3.759  12.040  0.7250 -0.4320 -0.2413
  990TIP3    H124385   6.498   3.826  11.974  1.0178 -1.6987 -1.4922
  990TIP3    H224386   6.561   3.747  12.087  1.1043 -0.9512 -1.0116
  991TIP3   OH224387   0.193   4.431  15.004 -0.4984  0.0131  0.0035
  991TIP3    H124388   0.288   4.424  14.991 -0.6326 -0.9601 -0.4868
  991TIP3    H224389   0.158   4.347  14.975 -1.3077 -0.4836  2.1803
  992TIP3   OH224390   1.635   4.723   1.245  0.1347 -0.1517  0.0695
  992TIP3    H124391   1.540   4.725   1.253  0.2866 -0.5568  2.9772
  992TIP3    H224392   1.659   4.632   1.260  1.1191  0.4937  3.1059
  993TIP3   OH224393   1.689   1.859  13.882 -0.7165  0.2478  0.1863
  993TIP3    H124394   1.609   1.823  13.843  0.2174 -1.5735 -0.1944
  993TIP3    H224395   1.748   1.871  13.807 -0.7492  1.9912  0.4043
  994TIP3   OH224396   6.667   6.437   4.058  0.3217  0.4075 -0.2459
  994TIP3    H124397   6.725   6.436   3.982  0.1945  3.6298 -0.5517
  994TIP3    H224398   6.619   6.520   4.050 -2.4629 -0.9106  1.3746
  995TIP3   OH224399   5.759   5.405  11.920 -0.4251  0.2901  0.0338
  995TIP3    H124400   5.765   5.406  11.825  0.6885 -1.2341  0.0618
  995TIP3    H224401   5.694   5.473  11.940  0.7514  2.0399 -1.6769
  996TIP3   OH224402   2.427   1.906   4.291  0.1414 -0.1225 -0.6340
  996TIP3    H124403   2.392   1.822   4.321 -0.1530 -0.5526 -2.0914
  996TIP3    H224404   2.522   1.899   4.306 -0.1008  0.1504  1.2203
  997TIP3   OH224405   0.967   4.546   0.863  0.2461  0.1812 -0.2408
  997TIP3    H124406   0.969   4.561   0.958 -0.1058  1.5060 -0.4213
  997TIP3    H224407   0.879   4.512   0.847 -0.0625  0.9401 -0.2088
  998TIP3   OH224408   3.719   5.047   2.196  0.2647  0.1336  0.2985
  998TIP3    H124409   3.681   5.096   2.124  2.7947  0.3800 -0.9625
  998TIP3    H224410   3.766   5.112   2.248 -1.4907 -0.0441  2.2432
  999TIP3   OH224411   4.565   2.408   3.299 -0.0203  0.0166  0.7596
  999TIP3    H124412   4.656   2.438   3.300  0.2283 -0.7230  1.3360
  999TIP3    H224413   4.553   2.368   3.213  0.4350 -0.5735  0.9688
 1000TIP3   OH224414   4.209   5.717   5.878  0.0883 -0.3099  0.0179
 1000TIP3    H124415   4.204   5.727   5.783  1.9557 -0.7059 -0.1656
 1000TIP3    H224416   4.293   5.757   5.902  0.4890 -1.7869  1.2515
 1001TIP3   OH224417   3.528   2.082   1.055 -0.3853  0.8345 -0.2789
 1001TIP3    H124418   3.507   2.146   0.988  1.4336  2.3002  0.4441
 1001TIP3    H224419   3.482   2.003   1.029 -1.3784  1.9548 -2.1050
 1002TIP3   OH224420   1.215   6.163  12.807  0.1015 -0.4889 -0.7725
 1002TIP3    H124421   1.158   6.098  12.848  0.1541  0.3350  0.7020
 1002TIP3    H224422   1.241   6.124  12.724 -0.4496 -2.0301 -0.2599
 1003TIP3   OH224423   6.596   1.035  13.214 -0.0362  0.2214  0.2731
 1003TIP3    H124424   6.658   1.036  13.141  1.5958  1.2384  1.5905
 1003TIP3    H224425   6.648   1.006  13.289 -1.2897  0.6130  1.3271
 1004TIP3   OH224426   0.009   6.395   0.077  0.2821  0.5275 -0.0775
 1004TIP3    H124427   0.085   6.435   0.034 -0.5958  1.4095 -0.8445
 1004TIP3    H224428  -0.018   6.459   0.142  0.4794 -0.0087  0.5481
 1005TIP3   OH224429   3.988   2.718   2.471 -0.2713 -0.5913  0.5907
 1005TIP3    H124430   4.022   2.719   2.560  2.7213  0.7517 -0.4115
 1005TIP3    H224431   4.055   2.672   2.420 -1.5295 -0.6866 -1.0835
 1006TIP3   OH224432   6.146   5.715  11.430 -0.1946 -0.6876  0.2827
 1006TIP3    H124433   6.116   5.803  11.408 -0.9295 -0.2665  2.6886
 1006TIP3    H224434   6.213   5.695  11.364 -0.2119  1.5491 -0.4838
 1007TIP3   OH224435   3.268   6.704   5.798  0.3398  1.1688  0.4947
 1007TIP3    H124436   3.273   6.632   5.861 -0.5831 -2.2221 -2.9244
 1007TIP3    H224437   3.177   6.734   5.805 -0.3305 -0.5095 -0.4242
 1008TIP3   OH224438   1.364   4.024  10.903  0.0622 -0.2595 -0.7545
 1008TIP3    H124439   1.353   3.954  10.839  2.3442 -0.9803 -0.4619
 1008TIP3    H224440   1.458   4.024  10.922 -0.0276  2.1943  0.0575
 1009TIP3   OH224441   5.515   2.975  16.072  0.5284 -0.2296 -0.1052
 1009TIP3    H124442   5.508   2.906  16.137 -0.6687 -1.5391 -1.5371
 1009TIP3    H224443   5.455   3.043  16.103  0.5134 -0.5186  0.5084
 1010TIP3   OH224444   0.557   2.977  12.368 -0.0820 -0.0226 -0.3442
 1010TIP3    H124445   0.479   2.976  12.424  0.3512  0.7688  0.2920
 1010TIP3    H224446   0.523   2.984  12.279 -0.7600 -0.5952 -0.1418
 1011TIP3   OH224447   4.823   5.024  15.042  0.7106  0.3439  0.0691
 1011TIP3    H124448   4.894   5.020  14.979  0.1350  0.5847 -0.6108
 1011TIP3    H224449   4.855   5.083  15.110  1.2969  0.1608 -0.0399
 1012TIP3   OH224450   3.586   4.637  11.860 -0.4345 -0.1350  0.3772
 1012TIP3    H124451   3.621   4.687  11.934 -1.8367  0.1326  0.8952
 1012TIP3    H224452   3.512   4.689  11.829  1.6439  1.1009 -2.9444
 1013TIP3   OH224453   6.272   2.696   4.268  0.6913 -0.1470 -0.5731
 1013TIP3    H124454   6.295   2.789   4.266  2.1632 -0.4585  0.3962
 1013TIP3    H224455   6.274   2.669   4.177  0.1098  0.7866 -0.8796
 1014TIP3   OH224456   2.563   1.884   2.992  0.9430 -0.3820  0.4878
 1014TIP3    H124457   2.594   1.858   3.079 -0.1912 -1.0590  0.7103
 1014TIP3    H224458   2.570   1.804   2.939 -0.0561 -0.4730  0.4608
 1015TIP3   OH224459   3.944   2.491   2.155 -0.5834 -0.1854  0.2475
 1015TIP3    H124460   3.954   2.455   2.067 -0.2363  0.6030 -0.0418
 1015TIP3    H224461   3.949   2.586   2.144  1.9969 -0.0962  1.3665
 1016TIP3   OH224462   5.606   0.170  11.027  0.3559 -0.4426 -0.3619
 1016TIP3    H124463   5.596   0.259  11.062 -0.3911 -0.4584 -0.5289
 1016TIP3    H224464   5.630   0.182  10.935 -1.1230 -0.4108 -0.7573
 1017TIP3   OH224465   3.459   6.090   5.269 -0.3246  0.1077  0.3493
 1017TIP3    H124466   3.368   6.114   5.285 -0.6004 -0.6330 -0.0739
 1017TIP3    H224467   3.455   6.006   5.224  0.5962 -0.2807  0.9561
 1018TIP3   OH224468   3.337   0.373   5.324 -0.2887  0.4200 -0.0029
 1018TIP3    H124469   3.320   0.460   5.361  2.3158  0.4241  1.3796
 1018TIP3    H224470   3.403   0.388   5.257 -1.5805 -0.2268 -1.4683
 1019TIP3   OH224471   2.128   3.224  12.644 -0.1719 -0.2046 -0.2129
 1019TIP3    H124472   2.067   3.154  12.670  1.2460 -1.3327  0.2505
 1019TIP3    H224473   2.105   3.244  12.553 -1.8357  0.0860  0.2481
 1020TIP3   OH224474   2.545   3.399  14.415 -0.0172  0.5139 -0.3418
 1020TIP3    H124475   2.585   3.442  14.339  1.0692 -0.3389 -0.2849
 1020TIP3    H224476   2.620   3.365  14.464 -0.8077 -1.1101 -0.2151
 1021TIP3   OH224477   4.671   1.700  15.096 -0.1301 -0.4876 -0.3670
 1021TIP3    H124478   4.608   1.629  15.111 -0.4442  0.0072  0.7421
 1021TIP3    H224479   4.625   1.779  15.123  0.8119 -0.0683  0.0433
 1022TIP3   OH224480   4.123   2.488  13.695  0.3796  0.0631 -0.1147
 1022TIP3    H124481   4.107   2.454  13.607  1.3867 -1.1833  0.1652
 1022TIP3    H224482   4.065   2.564  13.701  0.3505  0.2301 -1.8772
 1023TIP3   OH224483   5.693   4.545  12.715  0.0647  0.4776 -0.4417
 1023TIP3    H124484   5.672   4.619  12.772  1.0680  0.1440  0.3873
 1023TIP3    H224485   5.762   4.497  12.761  1.5924  0.7057 -2.3723
 1024TIP3   OH224486   1.383   6.653  15.495  0.0751  0.5099 -0.6250
 1024TIP3    H124487   1.359   6.638  15.587  2.6317 -1.5362 -0.1609
 1024TIP3    H224488   1.417   6.742  15.493 -1.4620  1.1419  0.0296
 1025TIP3   OH224489   0.940   0.889  16.986 -0.1554  0.0909  0.8181
 1025TIP3    H124490   1.010   0.834  17.020  0.9602  1.2605  0.5130
 1025TIP3    H224491   0.961   0.901  16.893  0.1824  1.7340  1.0604
 1026TIP3   OH224492   6.117   5.613  12.684 -0.4876  0.4800  0.3947
 1026TIP3    H124493   6.178   5.619  12.758  0.4246  0.1525 -0.3082
 1026TIP3    H224494   6.136   5.692  12.632 -0.2405  0.0810 -0.1295
 1027TIP3   OH224495   5.822   2.054   4.629  0.1334  0.3628  0.0126
 1027TIP3    H124496   5.805   1.994   4.556  0.5355 -1.9169  1.6482
 1027TIP3    H224497   5.739   2.058   4.677  0.5540 -0.2845  0.8290
 1028TIP3   OH224498   4.104   2.953  16.933  0.0574  0.5622  0.3108
 1028TIP3    H124499   4.079   2.919  16.847  0.1603 -0.6030  0.7252
 1028TIP3    H224500   4.199   2.954  16.932  0.0954 -0.6468  0.8363
 1029TIP3   OH224501   4.811   2.407   0.606 -0.2029  0.0318 -0.1223
 1029TIP3    H124502   4.787   2.366   0.689  0.6022  1.2015  0.7140
 1029TIP3    H224503   4.878   2.349   0.569  0.2082  0.0576  0.5634
 1030TIP3   OH224504   0.137   5.031  15.196 -0.1258 -0.3513  0.2876
 1030TIP3    H124505   0.139   4.939  15.221  1.5182 -1.0081 -2.0118
 1030TIP3    H224506   0.063   5.038  15.135 -0.2922 -0.1044  0.5117
 1031TIP3   OH224507   0.070   4.004   0.974 -0.1065  0.4113 -0.3547
 1031TIP3    H124508  -0.002   3.951   1.009 -1.0315  1.7215 -0.1717
 1031TIP3    H224509   0.140   3.994   1.038 -1.1334  1.3037  0.9833
 1032TIP3   OH224510   1.648   0.484   4.482  0.4487  0.2359  0.6926
 1032TIP3    H124511   1.670   0.487   4.575  0.9399 -0.9002  0.6345
 1032TIP3    H224512   1.617   0.395   4.467  2.6901 -0.4119 -0.6850
 1033TIP3   OH224513   4.490   0.906  12.497  0.0888  0.0737 -0.5056
 1033TIP3    H124514   4.440   0.983  12.470 -0.4737 -0.5686 -1.3237
 1033TIP3    H224515   4.424   0.842  12.523  0.4890 -0.6700 -1.2847
 1034TIP3   OH224516   1.240   5.561  10.850  0.0319  0.4143  0.2410
 1034TIP3    H124517   1.313   5.621  10.834 -1.9022  3.0327  0.7164
 1034TIP3    H224518   1.250   5.493  10.784  1.9598  1.5963 -0.7625
 1035TIP3   OH224519   6.635   4.092  11.129 -0.1970  0.2398  0.3170
 1035TIP3    H124520   6.585   4.056  11.203  0.5702  0.2081  0.8350
 1035TIP3    H224521   6.708   4.138  11.170  2.1743 -2.5420 -0.3968
 1036TIP3   OH224522   2.683   6.505  16.759  0.2467  0.3929  0.1308
 1036TIP3    H124523   2.630   6.458  16.694  0.3808  1.2407 -0.6222
 1036TIP3    H224524   2.691   6.444  16.832  2.0662 -1.5646 -1.5540
 1037TIP3   OH224525   4.330   0.277  15.650  0.0152 -0.4439 -0.5336
 1037TIP3    H124526   4.248   0.326  15.662 -0.3303 -1.6757  3.7898
 1037TIP3    H224527   4.398   0.336  15.682  0.5505 -0.3617 -1.7598
 1038TIP3   OH224528   0.632   3.873  16.934 -0.0947 -0.6179  0.0658
 1038TIP3    H124529   0.558   3.887  16.994  0.2102  0.0200  0.2987
 1038TIP3    H224530   0.603   3.801  16.877 -1.2069  0.1327 -0.3445
 1039TIP3   OH224531   2.685   1.106  14.749 -0.1038  0.3012  0.1153
 1039TIP3    H124532   2.642   1.028  14.784 -0.5770  0.0832 -0.9238
 1039TIP3    H224533   2.734   1.074  14.673 -2.3988  1.3831 -1.9564
 1040TIP3   OH224534   2.775   0.606   5.756  0.8067  0.1066 -0.3491
 1040TIP3    H124535   2.814   0.595   5.843  0.5344  0.0200 -0.2365
 1040TIP3    H224536   2.711   0.676   5.767  0.6163 -0.0540 -0.4296
 1041TIP3   OH224537   5.158   6.241   3.147  0.1057  0.5970  0.2355
 1041TIP3    H124538   5.102   6.163   3.143 -0.9978  1.3136  1.2718
 1041TIP3    H224539   5.141   6.287   3.064  0.3359  0.0397 -0.1269
 1042TIP3   OH224540   1.120   2.582   6.242 -0.7494 -0.2944 -0.2882
 1042TIP3    H124541   1.215   2.597   6.246 -0.5902 -0.8601 -1.4495
 1042TIP3    H224542   1.107   2.538   6.158 -2.0166 -0.4655 -0.0122
 1043TIP3   OH224543   1.483   0.047  12.580  0.0352  0.4465  0.3020
 1043TIP3    H124544   1.408  -0.012  12.581  0.3380 -0.0522 -1.8197
 1043TIP3    H224545   1.486   0.081  12.491  1.5008  1.5424  0.7289
 1044TIP3   OH224546   6.520   5.145   3.769  0.2275  0.4694 -0.2273
 1044TIP3    H124547   6.592   5.181   3.822 -0.0026 -1.0565  1.1777
 1044TIP3    H224548   6.563   5.113   3.690  0.9595  0.4010  0.1886
 1045TIP3   OH224549   3.121   3.649  15.990  0.3709  0.2545 -0.0205
 1045TIP3    H124550   3.217   3.648  15.987  0.3756 -1.1653  0.1810
 1045TIP3    H224551   3.101   3.697  16.070  0.8831  1.2677 -0.4733
 1046TIP3   OH224552   3.662   4.787   0.202  0.0640 -0.4865  0.9426
 1046TIP3    H124553   3.726   4.827   0.143 -1.1411  0.4764  0.2372
 1046TIP3    H224554   3.708   4.781   0.286  1.5686 -1.2333  0.1094
 1047TIP3   OH224555   1.514   6.528   4.255 -0.1932 -0.0891  0.2876
 1047TIP3    H124556   1.579   6.567   4.196 -1.3276 -0.6796 -1.4498
 1047TIP3    H224557   1.529   6.570   4.339  1.2319  1.1102 -0.5138
 1048TIP3   OH224558   0.264   2.910   0.315 -0.5575  0.7677 -0.0504
 1048TIP3    H124559   0.254   2.840   0.380  1.3267  0.4005 -0.1255
 1048TIP3    H224560   0.349   2.949   0.333 -1.5851  3.1207  0.0146
 1049TIP3   OH224561   2.955   5.684   1.864  0.3443  0.0416 -0.1730
 1049TIP3    H124562   3.015   5.620   1.903  1.6836  0.2946 -1.7458
 1049TIP3    H224563   2.937   5.746   1.935  1.0070 -0.6994  0.6597
 1050TIP3   OH224564   1.943   3.533   5.666 -0.1900 -0.4913  0.0479
 1050TIP3    H124565   2.024   3.487   5.641 -0.1349 -0.0333 -0.6310
 1050TIP3    H224566   1.882   3.463   5.688  0.2032 -0.8622 -0.0296
 1051TIP3   OH224567   5.109   3.380  13.722  0.8287  0.1835 -0.1051
 1051TIP3    H124568   5.054   3.379  13.800  1.1274 -2.6600  0.1676
 1051TIP3    H224569   5.160   3.461  13.729 -0.4862  0.9116  1.6408
 1052TIP3   OH224570   6.634   5.216  10.913 -0.4675  0.4027 -0.0998
 1052TIP3    H124571   6.569   5.276  10.950 -0.7359 -0.2696  0.5547
 1052TIP3    H224572   6.648   5.248  10.824 -2.0054  0.3426 -0.4011
 1053TIP3   OH224573   3.550   1.044   4.548 -0.3814 -0.4024 -0.8213
 1053TIP3    H124574   3.605   0.966   4.535  0.2373  0.1915 -1.9393
 1053TIP3    H224575   3.612   1.113   4.574 -0.8919 -0.2109 -0.0766
 1054TIP3   OH224576   1.613   4.816  16.598 -0.1070 -0.3099 -1.1994
 1054TIP3    H124577   1.583   4.800  16.687  0.1869 -0.6756 -1.1652
 1054TIP3    H224578   1.670   4.892  16.605 -0.6194  0.0793 -1.1865
 1055TIP3   OH224579   5.914   5.728   1.966 -0.1071  0.0547  0.6256
 1055TIP3    H124580   5.993   5.676   1.981  0.0569  0.3457  0.7909
 1055TIP3    H224581   5.939   5.817   1.992 -1.3556 -0.3383  3.4601
 1056TIP3   OH224582   6.697   3.885  14.639  0.0815  0.5972  0.2531
 1056TIP3    H124583   6.615   3.909  14.597  0.5104  0.0545 -0.9320
 1056TIP3    H224584   6.693   3.789  14.647 -0.9799  0.7997  3.5842
 1057TIP3   OH224585   2.970   5.651   2.330 -0.3523  0.2117  0.5818
 1057TIP3    H124586   2.953   5.587   2.261 -0.4401  1.4106 -0.5562
 1057TIP3    H224587   3.038   5.612   2.384  2.8862  0.9212 -2.6280
 1058TIP3   OH224588   5.678   5.862  13.234  0.5576 -0.0278  0.4322
 1058TIP3    H124589   5.601   5.918  13.225  1.2775  1.1329  1.3879
 1058TIP3    H224590   5.739   5.894  13.167 -0.5603 -2.3913 -1.9133
 1059TIP3   OH224591   2.700   2.662  16.431  0.8367  0.1035 -0.6279
 1059TIP3    H124592   2.719   2.630  16.519  0.3016 -0.3056 -0.6540
 1059TIP3    H224593   2.621   2.614  16.405 -0.0672  1.5633 -0.6265
 1060TIP3   OH224594   0.923   3.051   3.200  0.3114 -0.7884 -0.4329
 1060TIP3    H124595   1.015   3.032   3.182  0.5626  0.3522 -0.4770
 1060TIP3    H224596   0.916   3.046   3.295  0.9519  1.1535 -0.2328
 1061TIP3   OH224597   0.028   5.761  14.432 -0.0079 -0.1607 -0.3099
 1061TIP3    H124598  -0.051   5.707  14.433 -1.8117  2.3503  0.0376
 1061TIP3    H224599   0.062   5.756  14.521 -0.1126 -0.7462 -0.2980
 1062TIP3   OH224600   4.728   5.154  13.739  0.1806 -0.1340  0.8211
 1062TIP3    H124601   4.656   5.129  13.682  1.6834  1.3995 -2.0001
 1062TIP3    H224602   4.690   5.214  13.802 -0.7719  2.4729 -2.0125
 1063TIP3   OH224603   2.117   4.930   0.927  0.0478  0.2355  1.0397
 1063TIP3    H124604   2.065   4.995   0.974 -2.1825  0.7207 -1.8194
 1063TIP3    H224605   2.109   4.955   0.835  2.7059 -1.6597  0.1665
 1064TIP3   OH224606   4.275   1.521   3.835  0.2773  0.3064  0.1608
 1064TIP3    H124607   4.318   1.605   3.852 -1.0292  1.4508 -1.8114
 1064TIP3    H224608   4.190   1.528   3.879  0.6842 -0.5792  1.1460
 1065TIP3   OH224609   0.399   4.916   1.496  0.2707  0.1595  0.5824
 1065TIP3    H124610   0.408   4.906   1.401  1.5489  0.6252  0.6410
 1065TIP3    H224611   0.479   4.959   1.524  1.1072 -2.2642  2.2409
 1066TIP3   OH224612   4.777   3.045  10.745 -0.2265  0.0994  0.6823
 1066TIP3    H124613   4.764   3.105  10.672 -0.3868 -1.3041 -0.4828
 1066TIP3    H224614   4.832   2.975  10.709  0.8635  0.0662  2.3005
 1067TIP3   OH224615   0.966   2.772  14.433  0.2421 -0.0532 -0.1795
 1067TIP3    H124616   0.985   2.765  14.527  0.8420  1.8991 -0.1103
 1067TIP3    H224617   1.052   2.768  14.391 -0.1141 -2.3066 -0.8052
 1068TIP3   OH224618   6.336   2.930   1.739  0.6125 -0.2557 -0.0151
 1068TIP3    H124619   6.337   2.960   1.829  0.9164 -0.2931 -0.0031
 1068TIP3    H224620   6.284   2.995   1.692  1.0635  0.1562  0.0533
 1069TIP3   OH224621   2.255   1.102  11.831  0.1232  0.5284  0.2619
 1069TIP3    H124622   2.183   1.057  11.876  1.9609 -1.3631  1.5166
 1069TIP3    H224623   2.245   1.077  11.739  0.6853 -2.0246  0.8227
 1070TIP3   OH224624   2.111   1.154  12.499  0.5280 -0.1129  0.4308
 1070TIP3    H124625   2.135   1.155  12.406 -0.1210 -1.2231  0.2387
 1070TIP3    H224626   2.166   1.086  12.538  0.5044  0.0655  0.7795
 1071TIP3   OH224627   6.546   6.508  15.949  0.7752  0.1605 -0.3122
 1071TIP3    H124628   6.533   6.420  15.984 -0.6630  0.4725  0.0150
 1071TIP3    H224629   6.604   6.551  16.013  0.9951 -0.3656 -0.1584
 1072TIP3   OH224630   6.646   3.134  12.870 -0.1429  0.0434  0.0279
 1072TIP3    H124631   6.611   3.216  12.836  2.7387  1.1020 -0.7091
 1072TIP3    H224632   6.653   3.148  12.965  1.9007  1.3857 -0.2713
 1073TIP3   OH224633   6.171   0.579  12.527 -0.3745  0.3572 -0.4980
 1073TIP3    H124634   6.266   0.585  12.511 -0.1094 -0.6974  0.5600
 1073TIP3    H224635   6.139   0.519  12.460 -0.1807  0.1954 -0.4463
 1074TIP3   OH224636   6.035   3.697   2.983  0.4570 -0.2657  0.3563
 1074TIP3    H124637   5.952   3.731   2.949  1.0537  0.8197 -0.0781
 1074TIP3    H224638   6.045   3.739   3.069  0.5446 -0.4065  0.4157
 1075TIP3   OH224639   3.467   3.403   1.349  0.0746  0.1185  0.4142
 1075TIP3    H124640   3.422   3.339   1.294 -0.5801  0.3150  0.7042
 1075TIP3    H224641   3.397   3.462   1.379  0.9648  2.6358 -1.9965
 1076TIP3   OH224642   5.493   6.375   2.582 -0.1054 -0.3907  0.1349
 1076TIP3    H124643   5.527   6.400   2.668 -1.2802  1.8400  0.0116
 1076TIP3    H224644   5.570   6.368   2.527  0.5753 -0.8464  1.1150
 1077TIP3   OH224645   3.749   1.629   1.780  0.3083  0.1003  0.5653
 1077TIP3    H124646   3.830   1.665   1.744  0.9357 -0.8222  1.0170
 1077TIP3    H224647   3.760   1.633   1.875 -0.3602  0.3737  0.6375
 1078TIP3   OH224648   1.030   6.673   5.714 -0.8070 -0.6428 -0.2005
 1078TIP3    H124649   0.935   6.675   5.704 -1.1568 -0.4830  2.3567
 1078TIP3    H224650   1.049   6.740   5.780  0.9465 -1.4141  0.1540
 1079TIP3   OH224651   1.696   4.251   5.404  0.5380  0.2882 -0.1791
 1079TIP3    H124652   1.771   4.193   5.397  0.1613 -0.5369  1.8992
 1079TIP3    H224653   1.621   4.195   5.385  0.3203  0.6079 -0.2673
 1080TIP3   OH224654   6.567   2.295  14.072 -0.5109 -0.1114 -0.6952
 1080TIP3    H124655   6.592   2.386  14.053 -0.0496 -0.0359  0.1857
 1080TIP3    H224656   6.650   2.251  14.090 -0.6613 -0.8998 -1.8097
 1081TIP3   OH224657   0.286   3.109   4.142  0.3548 -0.5850  0.3995
 1081TIP3    H124658   0.317   3.020   4.157 -1.8509 -2.4654 -4.1050
 1081TIP3    H224659   0.328   3.135   4.059 -2.0577  0.8723 -0.4619
 1082TIP3   OH224660   1.048   5.925  11.338 -0.3582 -0.0595  0.1333
 1082TIP3    H124661   0.955   5.904  11.341 -0.3905 -0.0327 -0.5182
 1082TIP3    H224662   1.092   5.841  11.354 -0.4905  0.0389  1.0488
 1083TIP3   OH224663   5.098   2.526   3.783 -0.2687  0.1693  0.0370
 1083TIP3    H124664   5.123   2.434   3.781  1.3292  0.5709  0.2833
 1083TIP3    H224665   5.052   2.536   3.867 -0.8160 -0.4678 -0.1726
 1084TIP3   OH224666   5.877   2.494  11.640  0.4553  0.0043  0.0215
 1084TIP3    H124667   5.959   2.477  11.594  1.2267  0.3775  1.2006
 1084TIP3    H224668   5.900   2.487  11.733 -1.4052 -2.4976  0.3928
 1085TIP3   OH224669   2.156   0.195  13.710  0.1792 -0.1687 -0.1001
 1085TIP3    H124670   2.191   0.106  13.721 -0.2094 -0.2969  0.1687
 1085TIP3    H224671   2.229   0.253  13.730  0.4446 -0.4293 -0.3064
 1086TIP3   OH224672   0.980   1.179   4.036  0.3497  0.6420  0.2704
 1086TIP3    H124673   1.009   1.146   4.121 -0.5972 -1.8178 -0.2840
 1086TIP3    H224674   1.061   1.192   3.986  0.7922 -1.0733  0.4883
 1087TIP3   OH224675   6.310   1.222  14.378 -0.4857  0.2527 -0.2361
 1087TIP3    H124676   6.261   1.211  14.296  0.7160  0.5120 -1.0243
 1087TIP3    H224677   6.384   1.161  14.369 -0.2402  0.4250  0.5719
 1088TIP3   OH224678   4.446   5.725  17.294  0.8346  0.0142  0.1208
 1088TIP3    H124679   4.489   5.745  17.210  1.7850 -0.0235  0.5834
 1088TIP3    H224680   4.514   5.681  17.345  0.7482  1.3393  1.4404
 1089TIP3   OH224681   1.615   0.254  12.900 -0.2055 -0.2356 -0.5038
 1089TIP3    H124682   1.597   0.231  12.991 -2.6708 -0.4471 -0.9789
 1089TIP3    H224683   1.619   0.170  12.854 -2.6340 -0.0870 -1.1340
 1090TIP3   OH224684   1.824   1.742   1.006 -0.0101 -0.7361 -0.6635
 1090TIP3    H124685   1.858   1.784   0.927  0.1679 -2.7432 -1.7255
 1090TIP3    H224686   1.735   1.717   0.983 -0.7974  0.7056  0.6331
 1091TIP3   OH224687   0.929   3.324  16.547 -0.5167 -0.0839 -0.4777
 1091TIP3    H124688   0.980   3.269  16.487  0.9548 -0.5808  1.1525
 1091TIP3    H224689   0.854   3.270  16.572  0.6340 -1.2069  0.6882
 1092TIP3   OH224690   2.694   3.222   2.926 -0.1524  0.1144 -0.7844
 1092TIP3    H124691   2.723   3.162   2.857  0.0763  0.3966 -0.9306
 1092TIP3    H224692   2.695   3.169   3.006  0.2062 -0.0293 -0.8858
 1093TIP3   OH224693   6.584   2.318   0.989  0.4750  0.6686  0.3541
 1093TIP3    H124694   6.678   2.336   0.997  0.4542  0.2446  2.0393
 1093TIP3    H224695   6.567   2.251   1.055 -1.2519  1.6924  1.0127
 1094TIP3   OH224696   5.965   3.103   3.678 -0.0833 -0.3624  0.8917
 1094TIP3    H124697   5.931   3.093   3.589  0.7506 -1.5514  0.6745
 1094TIP3    H224698   5.963   3.014   3.713  0.2910 -0.0145  1.8029
 1095TIP3   OH224699   4.087   1.004   1.454 -1.0393  0.3715  0.2863
 1095TIP3    H124700   4.116   1.079   1.401  2.8262 -0.9446  0.1963
 1095TIP3    H224701   4.090   0.929   1.394  3.6582 -1.1973  2.0124
 1096TIP3   OH224702   6.598   2.869  10.919  1.2840 -0.0290  0.5792
 1096TIP3    H124703   6.651   2.948  10.909  0.4555  0.7053  1.7891
 1096TIP3    H224704   6.511   2.900  10.943  1.3743 -1.3074  2.9496
 1097TIP3   OH224705   4.769   1.076  16.361 -0.6146 -0.0628  0.5969
 1097TIP3    H124706   4.758   0.981  16.359  0.0150 -0.1655  1.2334
 1097TIP3    H224707   4.859   1.090  16.331 -0.9522  0.3968 -0.2329
 1098TIP3   OH224708   5.903   4.118  13.629  0.2154  0.4184  0.0644
 1098TIP3    H124709   5.886   4.028  13.658 -0.5875  1.0365  1.5750
 1098TIP3    H224710   5.857   4.173  13.692  2.2674  1.9654  0.2891
 1099TIP3   OH224711   2.265   1.181   4.881  0.3838 -0.1979 -0.3700
 1099TIP3    H124712   2.208   1.148   4.949 -2.1402  2.3266 -1.0576
 1099TIP3    H224713   2.238   1.135   4.802  1.4607 -1.1913 -0.1787
 1100TIP3   OH224714   2.419   4.711   1.334 -0.3575  0.0884  0.2351
 1100TIP3    H124715   2.357   4.746   1.270 -0.9622  0.5666  1.0735
 1100TIP3    H224716   2.485   4.667   1.281 -0.9698  0.2832 -0.7107
 1101TIP3   OH224717   5.065   0.918  11.673 -0.0852  1.1072 -0.8141
 1101TIP3    H124718   4.979   0.960  11.675 -0.0028  1.3726 -2.0934
 1101TIP3    H224719   5.048   0.830  11.640 -0.0046  0.7523  0.0563
 1102TIP3   OH224720   5.013   4.177  15.781 -0.5502 -0.0416  0.5628
 1102TIP3    H124721   5.037   4.102  15.727  1.5933  0.6642  0.4702
 1102TIP3    H224722   4.972   4.238  15.720 -2.6159 -1.1952  0.6966
 1103TIP3   OH224723   1.459   5.334   1.437  0.3483 -0.1856 -0.2635
 1103TIP3    H124724   1.449   5.429   1.428 -1.5603 -0.4057 -0.9894
 1103TIP3    H224725   1.376   5.306   1.476  0.5610 -1.6439 -0.8211
 1104TIP3   OH224726   0.561   3.893  13.097  0.0796  0.1123  0.6367
 1104TIP3    H124727   0.495   3.824  13.098 -0.4284  0.5139 -1.2401
 1104TIP3    H224728   0.511   3.975  13.091  0.7154  0.4420 -0.4472
 1105TIP3   OH224729   0.767   0.041  14.749  0.2027  0.2419  0.3184
 1105TIP3    H124730   0.750   0.052  14.655 -0.0644 -1.9019  0.0641
 1105TIP3    H224731   0.809  -0.045  14.755  0.1628  0.3305  2.1689
 1106TIP3   OH224732   3.388   0.696   5.156  0.1178 -0.3884 -0.6151
 1106TIP3    H124733   3.374   0.601   5.152  1.2184 -0.8598  2.9753
 1106TIP3    H224734   3.475   0.709   5.118  0.3510 -0.9928 -0.3130
 1107TIP3   OH224735   1.251   5.714   4.256  0.4735  0.3151 -0.1723
 1107TIP3    H124736   1.248   5.658   4.334  0.7019  1.4071  0.6414
 1107TIP3    H224737   1.326   5.772   4.271  2.5956 -1.5058 -2.6743
 1108TIP3   OH224738   2.961   1.397  10.980  0.3647 -0.0524 -0.5032
 1108TIP3    H124739   2.915   1.334  11.036 -0.6862  0.6379 -0.5571
 1108TIP3    H224740   2.964   1.477  11.032 -0.2275  0.4656 -1.2554
 1109TIP3   OH224741   1.606   1.173  13.592 -0.1038  0.3516  0.7357
 1109TIP3    H124742   1.572   1.099  13.542 -0.3821  0.5909  0.5688
 1109TIP3    H224743   1.577   1.250  13.544  2.0192  0.5594 -0.3273
 1110TIP3   OH224744   6.025   2.243   2.270  0.0731 -0.6007  0.1471
 1110TIP3    H124745   6.007   2.267   2.361  0.1770 -0.0285  0.0165
 1110TIP3    H224746   5.948   2.273   2.222  0.4385 -0.0382 -0.0945
 1111TIP3   OH224747   2.719   3.878   5.594 -0.3692 -0.0863  0.9082
 1111TIP3    H124748   2.646   3.882   5.656  0.2017 -0.3886  1.6318
 1111TIP3    H224749   2.797   3.877   5.650  0.1596 -0.5831  0.1872
 1112TIP3   OH224750   6.468   0.231   2.035  0.0278  0.4847 -0.6720
 1112TIP3    H124751   6.376   0.206   2.040  0.0101  0.7005  0.3946
 1112TIP3    H224752   6.505   0.174   1.968 -0.4161 -1.1153  0.3792
 1113TIP3   OH224753   6.068   0.950   1.811  0.7838 -0.2664  0.5839
 1113TIP3    H124754   6.042   1.031   1.768 -0.7089 -1.1081 -0.1873
 1113TIP3    H224755   6.158   0.935   1.783  0.7525  0.6293 -0.0365
 1114TIP3   OH224756   1.021   6.018  11.807 -0.8477  0.1848 -0.3037
 1114TIP3    H124757   0.940   6.064  11.784 -0.7873  0.9786  1.0018
 1114TIP3    H224758   1.073   6.020  11.727 -1.0028  2.0839 -0.3982
 1115TIP3   OH224759   1.837   1.411  12.177  0.6854 -0.3963  0.2555
 1115TIP3    H124760   1.832   1.317  12.194  2.4128 -0.3377  1.2499
 1115TIP3    H224761   1.912   1.441  12.228  1.4701  1.1525 -1.6727
 1116TIP3   OH224762   2.295   5.039   3.944  0.0472 -0.3063  0.2141
 1116TIP3    H124763   2.221   5.039   3.883 -0.0916  0.1297  0.3768
 1116TIP3    H224764   2.254   5.025   4.030  0.0077  1.1600  0.4600
 1117TIP3   OH224765   1.408   6.322   4.557 -0.5888  0.1166 -0.2501
 1117TIP3    H124766   1.362   6.307   4.639  0.4046  0.4210  0.3822
 1117TIP3    H224767   1.437   6.413   4.562 -0.2767  0.0532 -0.8115
 1118TIP3   OH224768   2.930   1.792   4.762  0.9811  0.3305  0.7676
 1118TIP3    H124769   2.896   1.775   4.850  1.9202 -0.3681  1.0194
 1118TIP3    H224770   2.937   1.887   4.757 -3.2566  0.7931 -0.2149
 1119TIP3   OH224771   6.568   2.561  14.672 -0.5135  0.1463 -0.5734
 1119TIP3    H124772   6.587   2.486  14.615 -0.0468  0.7440 -1.2212
 1119TIP3    H224773   6.524   2.624  14.615 -0.3116  0.6354 -0.1953
 1120TIP3   OH224774   1.356   3.375  13.736  0.5149 -0.4968 -0.1060
 1120TIP3    H124775   1.442   3.406  13.765 -0.0340  1.3912 -0.4188
 1120TIP3    H224776   1.347   3.406  13.646 -1.3235  1.1567  0.5863
 1121TIP3   OH224777   2.388   3.874  15.546  0.2509 -0.0275  0.6528
 1121TIP3    H124778   2.460   3.917  15.499  0.6899 -1.3978  0.0072
 1121TIP3    H224779   2.425   3.854  15.632  0.8288 -1.1246  0.1740
 1122TIP3   OH224780   5.395   6.387  15.246 -0.0397  0.0480 -0.3252
 1122TIP3    H124781   5.481   6.345  15.253  0.1284  0.2043 -1.3628
 1122TIP3    H224782   5.405   6.450  15.175 -0.8524  0.4689 -0.0725
 1123TIP3   OH224783   4.602   2.193   5.181  0.6241 -0.0969 -0.1324
 1123TIP3    H124784   4.671   2.166   5.120  1.5822 -0.4964  1.0796
 1123TIP3    H224785   4.525   2.144   5.153  1.2325 -0.8140 -0.5907
 1124TIP3   OH224786   0.268   4.807   4.413 -0.7966 -0.0203  0.0084
 1124TIP3    H124787   0.241   4.800   4.505  0.9212 -0.7608  0.4925
 1124TIP3    H224788   0.333   4.738   4.401 -0.8486  0.1853 -1.7276
 1125TIP3   OH224789   2.957   6.211   3.300 -0.1247 -0.3067  0.0081
 1125TIP3    H124790   2.911   6.137   3.260  0.5892 -2.0334  2.1749
 1125TIP3    H224791   3.049   6.197   3.279  0.1086 -0.5269  1.0983
 1126TIP3   OH224792   0.743   1.676  16.077 -0.0330  0.2310  0.1823
 1126TIP3    H124793   0.689   1.752  16.097  0.4741  1.1717 -1.7607
 1126TIP3    H224794   0.827   1.695  16.119  0.1432  0.8598 -0.4214
 1127TIP3   OH224795   2.071   3.164   4.263 -0.0637  0.8792  0.4889
 1127TIP3    H124796   2.042   3.183   4.174 -0.9847 -0.3159  0.5076
 1127TIP3    H224797   2.139   3.228   4.281  1.9867 -0.4106 -2.0397
 1128TIP3   OH224798   1.873   4.789   4.021 -0.7113  0.2093 -0.6054
 1128TIP3    H124799   1.949   4.846   4.035 -0.9147  0.1531  0.8325
 1128TIP3    H224800   1.870   4.733   4.098 -2.5452  0.6018 -0.3547
 1129TIP3   OH224801   3.298   6.731  17.150 -0.1716 -0.3139  0.0320
 1129TIP3    H124802   3.381   6.696  17.118 -0.9684 -0.7728 -1.6442
 1129TIP3    H224803   3.259   6.660  17.201  0.3792 -0.1631  0.6641
 1130TIP3   OH224804   0.592   1.634  16.305  0.1140 -0.2286 -0.2262
 1130TIP3    H124805   0.643   1.702  16.349 -1.6997  0.2592  1.2701
 1130TIP3    H224806   0.656   1.566  16.285  1.3433  0.2529  1.7260
 1131TIP3   OH224807   0.584   3.871   5.087 -0.2581 -0.1171  0.4951
 1131TIP3    H124808   0.503   3.820   5.087 -1.5620  1.8487  0.4183
 1131TIP3    H224809   0.587   3.912   5.173  0.9905 -0.6192  0.7139
 1132TIP3   OH224810   1.309   6.020  16.885 -0.1717 -0.1635  0.1646
 1132TIP3    H124811   1.292   6.114  16.897 -0.5065 -0.0347 -1.1755
 1132TIP3    H224812   1.252   5.994  16.812 -0.3099 -1.4892  0.7176
 1133TIP3   OH224813   0.842   6.190  13.417  0.0966  0.3604 -0.5308
 1133TIP3    H124814   0.905   6.119  13.403 -0.0672  0.1907 -0.4181
 1133TIP3    H224815   0.773   6.172  13.353 -0.1992  0.1191 -0.1488
 1134TIP3   OH224816   6.210   0.851  14.761 -0.0039  0.0535 -0.1662
 1134TIP3    H124817   6.174   0.808  14.839  1.0757 -2.0353 -0.7260
 1134TIP3    H224818   6.303   0.862  14.779  0.0833  0.4281 -0.7920
 1135TIP3   OH224819   3.278   0.265  16.405  0.7606 -0.0869  0.3786
 1135TIP3    H124820   3.286   0.292  16.496  2.7794 -0.3697  0.3321
 1135TIP3    H224821   3.263   0.171  16.408 -1.0242  0.1596  0.4172
 1136TIP3   OH224822   0.309   4.389   2.810  0.4469  0.5491  0.1243
 1136TIP3    H124823   0.287   4.345   2.892  1.2215  0.0087  0.0580
 1136TIP3    H224824   0.287   4.481   2.824  0.0462  0.3591  0.7342
 1137TIP3   OH224825   3.857   6.455   0.382  0.0233  0.0153  0.3199
 1137TIP3    H124826   3.835   6.530   0.327  0.1678 -0.9058 -1.0593
 1137TIP3    H224827   3.773   6.420   0.410 -0.0712  0.2170  0.2885
 1138TIP3   OH224828   5.147   1.498  12.755  0.1440 -0.1871  0.5560
 1138TIP3    H124829   5.072   1.499  12.813 -0.0291  2.0894  0.3589
 1138TIP3    H224830   5.115   1.533  12.672  1.0276 -0.8220 -0.0854
 1139TIP3   OH224831   5.504   5.740  12.865 -0.4498 -0.2755 -0.3243
 1139TIP3    H124832   5.441   5.812  12.858 -2.9578 -2.3441 -0.5840
 1139TIP3    H224833   5.513   5.724  12.959  0.3984  0.5572 -0.2494
 1140TIP3   OH224834   3.305   3.600   6.257 -0.1121  0.3764 -0.0738
 1140TIP3    H124835   3.219   3.639   6.242 -0.8619 -1.8997 -2.2217
 1140TIP3    H224836   3.343   3.653   6.328 -3.3187  1.3003  1.1097
 1141TIP3   OH224837   3.332   3.355  11.712 -0.1768  0.4467 -0.1452
 1141TIP3    H124838   3.387   3.293  11.665 -2.3739 -0.5693 -1.5593
 1141TIP3    H224839   3.242   3.327  11.693 -1.2322  1.6017  2.5688
 1142TIP3   OH224840   3.064   4.157   1.619  0.2265  0.3495  0.4021
 1142TIP3    H124841   2.999   4.156   1.549 -0.0183 -0.0116  0.6307
 1142TIP3    H224842   3.051   4.241   1.663 -0.2991  0.1474  0.6434
 1143TIP3   OH224843   3.887   1.414   5.039  0.6196 -0.0699 -0.3915
 1143TIP3    H124844   3.866   1.380   4.952 -0.1528 -0.3229 -0.1189
 1143TIP3    H224845   3.944   1.346   5.078  0.1330 -0.4481 -0.3269
 1144TIP3   OH224846   6.252   1.913   5.577  0.4039 -0.0447 -0.1695
 1144TIP3    H124847   6.296   1.890   5.496 -0.1410 -1.6451 -0.0420
 1144TIP3    H224848   6.321   1.912   5.644  0.5744 -0.2739 -0.3498
 1145TIP3   OH224849   1.165   4.811  14.616 -0.0735 -0.8133 -0.2924
 1145TIP3    H124850   1.191   4.723  14.640  0.1992 -0.8660 -0.7633
 1145TIP3    H224851   1.093   4.832  14.675  0.8659 -0.7495  0.8620
 1146TIP3   OH224852   3.453   1.262  15.816  0.3667  0.5889  0.7326
 1146TIP3    H124853   3.438   1.190  15.754 -0.5850  1.4803 -0.1203
 1146TIP3    H224854   3.547   1.259  15.835  0.4448 -0.4847  0.2179
 1147TIP3   OH224855   4.644   2.728  17.216  0.2468  0.5741  0.1069
 1147TIP3    H124856   4.565   2.677  17.232 -0.2835  1.4603  0.3610
 1147TIP3    H224857   4.714   2.674  17.253 -0.3676  0.2961  0.9021
 1148TIP3   OH224858   1.897   5.197  13.866 -0.3786 -0.1972  0.0223
 1148TIP3    H124859   1.808   5.232  13.855  0.2387  1.6794  0.4866
 1148TIP3    H224860   1.935   5.251  13.935  1.7406  0.3453 -1.4458
 1149TIP3   OH224861   3.236   5.888   2.531 -0.0030  0.4357 -0.2173
 1149TIP3    H124862   3.253   5.824   2.461 -0.3670  0.2884 -0.1728
 1149TIP3    H224863   3.221   5.970   2.484 -1.0795  0.1661 -0.3692
 1150TIP3   OH224864   5.038   3.288   1.667 -0.5036 -0.3965 -0.7569
 1150TIP3    H124865   5.082   3.368   1.695 -2.3178 -0.4135  2.6506
 1150TIP3    H224866   5.094   3.218   1.700  0.2245 -0.5574 -2.2685
 1151TIP3   OH224867   3.175   2.556  17.151 -0.1144  0.2838  0.7025
 1151TIP3    H124868   3.214   2.509  17.225  0.4668 -0.6014 -0.1431
 1151TIP3    H224869   3.241   2.549  17.081 -0.6803  1.0465  0.0832
 1152TIP3   OH224870   1.987   4.624   1.390  0.0601  0.1996  0.4770
 1152TIP3    H124871   1.917   4.605   1.452  0.5937 -0.2946  0.9463
 1152TIP3    H224872   1.960   4.581   1.309  1.0526 -2.4173  1.4001
 1153TIP3   OH224873   5.344   3.084   3.906  0.0544 -0.1792 -0.5090
 1153TIP3    H124874   5.412   3.138   3.946  0.6834 -0.0917 -1.6691
 1153TIP3    H224875   5.391   3.018   3.856 -0.7203 -0.8864 -0.3472
 1154TIP3   OH224876   2.863   2.158   5.466 -0.6897  0.6298  0.6860
 1154TIP3    H124877   2.832   2.227   5.525 -2.4478 -0.1059  0.6921
 1154TIP3    H224878   2.797   2.089   5.474  0.9533 -1.0193  0.5869
 1155TIP3   OH224879   5.442   3.845  15.924 -0.2163 -0.2377 -0.1230
 1155TIP3    H124880   5.458   3.761  15.967 -0.3892  0.6277  1.7264
 1155TIP3    H224881   5.351   3.839  15.895 -0.7676 -0.1291  1.4524
 1156TIP3   OH224882   1.403   1.290  14.883  0.5884 -0.6690  0.3904
 1156TIP3    H124883   1.325   1.337  14.915  1.0578  0.6190 -0.3071
 1156TIP3    H224884   1.472   1.313  14.946  0.7734 -0.5861  0.1564
 1157TIP3   OH224885   1.445   1.651  13.144 -0.6017  0.0619  0.4507
 1157TIP3    H124886   1.415   1.560  13.136  0.1596 -0.4094  2.4021
 1157TIP3    H224887   1.540   1.644  13.149 -0.5596  0.9310  1.0872
 1158TIP3   OH224888   5.888   0.295   6.221  0.4483 -0.1121  0.2331
 1158TIP3    H124889   5.976   0.261   6.204 -0.0240 -1.5784  0.5746
 1158TIP3    H224890   5.837   0.218   6.249 -0.3256  1.0971  2.4097
 1159TIP3   OH224891   2.613   5.658  11.164  0.4862  0.0864  0.1052
 1159TIP3    H124892   2.706   5.642  11.182  0.8543 -0.0740 -1.7487
 1159TIP3    H224893   2.600   5.749  11.187  0.9516 -0.0370  0.9194
 1160TIP3   OH224894   0.740   0.237  11.273 -0.0565  0.6205  0.1535
 1160TIP3    H124895   0.662   0.273  11.316 -0.3752 -1.1022  1.1102
 1160TIP3    H224896   0.710   0.156  11.234  1.3592 -0.3306  0.9616
 1161TIP3   OH224897   0.638   1.219  13.815 -0.5414  0.1831 -0.4682
 1161TIP3    H124898   0.554   1.225  13.769 -0.6347 -1.0347 -0.4841
 1161TIP3    H224899   0.614   1.215  13.907 -0.5684 -0.9390 -0.5064
 1162TIP3   OH224900   1.896   4.307  12.261 -0.4614 -0.0314  0.7942
 1162TIP3    H124901   1.887   4.222  12.220  0.5198  0.4923 -0.5716
 1162TIP3    H224902   1.810   4.325  12.298 -0.9238 -1.2238  0.3454
 1163TIP3   OH224903   1.908   4.045   5.293  0.1433 -0.1416 -0.2704
 1163TIP3    H124904   1.884   3.961   5.332  1.1007 -0.8746 -1.2016
 1163TIP3    H224905   1.990   4.069   5.336  0.0944  0.1017 -0.3127
 1164TIP3   OH224906   3.972   4.384   4.400 -0.3172  0.0553 -0.0506
 1164TIP3    H124907   4.052   4.432   4.420  1.0961 -2.0265 -0.3847
 1164TIP3    H224908   3.949   4.412   4.311  0.2925  0.3414 -0.1228
 1165TIP3   OH224909   5.242   4.937   1.781  0.2053 -0.3138  0.0099
 1165TIP3    H124910   5.266   5.021   1.742 -2.7510  0.3650 -0.5871
 1165TIP3    H224911   5.263   4.946   1.874  0.6641  0.7843 -0.1952
 1166TIP3   OH224912   2.316   0.926  12.849 -0.2121 -0.1143  0.4175
 1166TIP3    H124913   2.252   0.855  12.847  0.8239 -1.0597  0.2144
 1166TIP3    H224914   2.361   0.921  12.765 -0.1008  0.7828  0.4046
 1167TIP3   OH224915   4.923   1.939  13.775 -0.1152 -0.2211  0.6206
 1167TIP3    H124916   5.010   1.968  13.803  0.6664  0.0999 -1.9335
 1167TIP3    H224917   4.886   1.899  13.854  3.0408 -1.9980  1.3974
 1168TIP3   OH224918   3.605   5.678   1.317 -1.1965 -0.0497 -0.6996
 1168TIP3    H124919   3.532   5.649   1.372 -2.0252  3.1104  0.0685
 1168TIP3    H224920   3.680   5.629   1.350 -2.3062 -0.6895  1.0333
 1169TIP3   OH224921   1.183   3.709   1.704  0.0408  0.1593  0.2057
 1169TIP3    H124922   1.209   3.617   1.696 -1.0399 -0.2666  1.2094
 1169TIP3    H224923   1.169   3.721   1.798 -2.3433  0.6122 -0.1524
 1170TIP3   OH224924   5.707   1.613  13.355 -0.9737  0.2205 -0.4119
 1170TIP3    H124925   5.765   1.598  13.430 -1.7544  1.1552  0.4080
 1170TIP3    H224926   5.623   1.576  13.381 -0.9998 -0.3422 -1.2431
 1171TIP3   OH224927   0.623   2.299   0.587 -0.1152 -0.9228 -0.0846
 1171TIP3    H124928   0.630   2.230   0.654 -1.6739  0.0768  1.1948
 1171TIP3    H224929   0.533   2.292   0.556  0.6285 -1.4826 -2.2979
 1172TIP3   OH224930   5.294   5.663   0.847 -0.0870  0.2758 -0.2202
 1172TIP3    H124931   5.223   5.654   0.911 -0.8156  0.9430 -0.9187
 1172TIP3    H224932   5.325   5.753   0.858 -0.1279  0.3520 -0.7182
 1173TIP3   OH224933   0.095   2.318  14.467  0.3080  0.5598  0.3888
 1173TIP3    H124934   0.006   2.336  14.496 -0.3194  0.7481 -1.5445
 1173TIP3    H224935   0.144   2.397  14.489 -0.0081  0.5000  1.3546
 1174TIP3   OH224936   1.325   3.230  11.095  0.6224  0.5610  0.3168
 1174TIP3    H124937   1.292   3.202  11.010  0.4148 -0.0038  0.5833
 1174TIP3    H224938   1.314   3.155  11.153  2.1137  0.4318  0.4896
 1175TIP3   OH224939   4.331   5.257  12.291 -0.2012  0.7269 -0.2409
 1175TIP3    H124940   4.246   5.235  12.254  0.1068  1.7755 -1.7006
 1175TIP3    H224941   4.383   5.284  12.215  0.3574  3.4063  0.9852
 1176TIP3   OH224942   6.669   3.070   1.621 -0.4407 -0.7467  0.2975
 1176TIP3    H124943   6.667   3.145   1.561  1.9830  1.0092  2.2208
 1176TIP3    H224944   6.635   3.105   1.704 -0.7656 -2.2613  0.8398
 1177TIP3   OH224945   3.557   1.116   0.135  0.0986  0.5003  0.1489
 1177TIP3    H124946   3.533   1.117   0.228  3.7294  1.1332  1.2136
 1177TIP3    H224947   3.596   1.202   0.119  2.5137 -0.7318 -1.0312
 1178TIP3   OH224948   5.733   0.717  16.044  0.3568 -0.2290 -0.4635
 1178TIP3    H124949   5.701   0.627  16.033  1.7454 -0.8805  0.5349
 1178TIP3    H224950   5.828   0.708  16.054  0.8696  1.5917 -2.7962
 1179TIP3   OH224951   4.181   2.396   5.467  0.1832  0.2156 -0.0885
 1179TIP3    H124952   4.159   2.316   5.420 -0.2329  0.7045 -0.7453
 1179TIP3    H224953   4.101   2.417   5.517 -0.2747  1.0532 -1.1302
 1180TIP3   OH224954   6.361   1.062  11.024 -0.8333  0.1790 -0.1293
 1180TIP3    H124955   6.364   1.114  11.105  2.5847 -0.2075  0.1196
 1180TIP3    H224956   6.268   1.056  11.004 -1.7555  1.3006  3.1140
 1181TIP3   OH224957   4.631   2.989  16.433  0.5010  0.2943  0.2549
 1181TIP3    H124958   4.544   3.024  16.450  0.2356 -0.4067  0.3794
 1181TIP3    H224959   4.649   3.012  16.342 -0.0278  0.0084  0.0754
 1182TIP3   OH224960   4.555   6.237  15.986 -0.4966 -0.5457  0.5012
 1182TIP3    H124961   4.492   6.245  15.915 -0.8718 -0.0869  0.8784
 1182TIP3    H224962   4.554   6.322  16.030  0.4128 -0.5158  0.4974
 1183TIP3   OH224963   4.943   4.614   1.240  0.1320 -0.0840  0.5021
 1183TIP3    H124964   4.937   4.691   1.183  1.8514 -0.9483 -0.9278
 1183TIP3    H224965   4.943   4.651   1.329 -0.2882  1.4707 -0.1044
 1184TIP3   OH224966   2.334   2.062   5.735  0.0266  0.0665 -0.1712
 1184TIP3    H124967   2.288   1.983   5.708  0.5636  0.0313 -1.0028
 1184TIP3    H224968   2.387   2.034   5.810  2.0148 -0.9871 -1.8436
 1185TIP3   OH224969   0.965   6.198  14.814  0.0593  0.2776  0.3195
 1185TIP3    H124970   1.015   6.140  14.757 -1.1376  1.2128 -1.8369
 1185TIP3    H224971   0.948   6.276  14.760 -0.8669  1.3874  2.0927
 1186TIP3   OH224972   3.477   6.599  16.967  0.3840  0.7937  0.3436
 1186TIP3    H124973   3.528   6.669  16.927  3.0918 -0.3877  1.4957
 1186TIP3    H224974   3.463   6.536  16.897  1.4551  0.6609  0.2379
 1187TIP3   OH224975   1.647   4.937  11.078 -0.1245  0.5453  0.4375
 1187TIP3    H124976   1.585   5.005  11.053 -1.4281 -0.1190  1.6972
 1187TIP3    H224977   1.697   4.918  10.999 -2.6849 -0.0676 -1.1330
 1188TIP3   OH224978   6.166   2.735   4.598  0.3540  0.3836  0.1801
 1188TIP3    H124979   6.188   2.756   4.688  1.1013  0.4775 -0.0202
 1188TIP3    H224980   6.180   2.816   4.550 -0.9280  0.5907  0.1215
 1189TIP3   OH224981   0.299   0.810  10.759  0.5185 -0.1473  0.7653
 1189TIP3    H124982   0.290   0.901  10.730  1.4775  0.1852  1.4372
 1189TIP3    H224983   0.259   0.809  10.846  0.6123 -0.3333  0.8071
 1190TIP3   OH224984   2.504   2.733  11.910 -0.5720 -0.1082  0.3535
 1190TIP3    H124985   2.479   2.809  11.858 -0.0588  1.4763  2.2844
 1190TIP3    H224986   2.564   2.684  11.854  2.4176  3.1073  0.3312
 1191TIP3   OH224987   3.017   6.398  14.945 -0.0970  0.7573  0.2946
 1191TIP3    H124988   2.985   6.472  14.997 -1.6018  0.6531 -0.4506
 1191TIP3    H224989   2.964   6.399  14.866  1.2883  0.1291 -0.6929
 1192TIP3   OH224990   2.773   2.129  14.375  0.4410 -0.5138 -0.1679
 1192TIP3    H124991   2.852   2.087  14.409  0.2845 -2.0139 -1.5432
 1192TIP3    H224992   2.806   2.197  14.315  0.6815  0.4150  0.9872
 1193TIP3   OH224993   0.860   0.084  16.738  0.0528  0.1339  0.3362
 1193TIP3    H124994   0.776   0.048  16.768  1.4941 -2.1207  2.0193
 1193TIP3    H224995   0.907   0.008  16.701  1.3294  1.3590 -0.6667
 1194TIP3   OH224996   4.957   3.058  12.771 -0.3446  0.3327  1.1806
 1194TIP3    H124997   4.991   3.043  12.859  0.4172 -0.6190  0.7525
 1194TIP3    H224998   5.022   3.114  12.729  0.8182 -1.5271  0.3440
 1195TIP3   OH224999   6.136   5.474  12.377  0.0821 -0.0882  0.1473
 1195TIP3    H125000   6.111   5.478  12.284  0.9659 -0.8089 -0.1442
 1195TIP3    H225001   6.210   5.535  12.385  0.0663 -0.0946  0.3499
 1196TIP3   OH225002   0.536   4.395   3.643 -0.0338 -0.8510 -0.0132
 1196TIP3    H125003   0.472   4.381   3.713  0.5309 -2.8374  0.1652
 1196TIP3    H225004   0.568   4.484   3.658 -1.5520 -0.4110  0.8760
 1197TIP3   OH225005   4.185   6.574  17.005 -0.0790  0.2408  0.1353
 1197TIP3    H125006   4.200   6.662  16.971 -3.5579  1.4345  1.1541
 1197TIP3    H225007   4.269   6.530  16.998  1.7630  3.5529 -0.6817
 1198TIP3   OH225008   1.191   2.535  12.545  0.6328  0.5761 -0.2061
 1198TIP3    H125009   1.099   2.559  12.532  0.9372  2.0307  0.0646
 1198TIP3    H225010   1.189   2.470  12.615 -0.3125 -0.8149 -1.4828
 1199TIP3   OH225011   6.465   2.683   3.519  0.3593  0.1845 -0.1523
 1199TIP3    H125012   6.408   2.607   3.532  1.4169 -0.6540 -0.3398
 1199TIP3    H225013   6.404   2.757   3.516 -0.6811 -0.6188  0.1914
 1200TIP3   OH225014   4.433   4.635  11.165 -0.3160 -0.0713  0.1376
 1200TIP3    H125015   4.423   4.685  11.083 -1.0004 -1.2794 -0.5402
 1200TIP3    H225016   4.345   4.604  11.185  0.3853 -2.7108 -0.5739
 1201TIP3   OH225017   2.688   1.267  15.651 -0.3319 -0.0690 -0.3135
 1201TIP3    H125018   2.746   1.332  15.690  1.9024 -1.9827 -0.2833
 1201TIP3    H225019   2.648   1.222  15.725  0.0038 -0.3423 -0.2973
 1202TIP3   OH225020   1.171   4.867  12.801  0.0542 -0.3930 -0.0970
 1202TIP3    H125021   1.133   4.780  12.813 -0.0772 -0.1659  1.3912
 1202TIP3    H225022   1.177   4.878  12.707 -1.3576 -1.3959 -0.3337
 1203TIP3   OH225023   1.825   3.526  12.069 -0.2594 -0.2378  0.3113
 1203TIP3    H125024   1.884   3.485  12.131 -0.8375 -1.8026 -0.1173
 1203TIP3    H225025   1.744   3.540  12.119 -0.1286  0.1989  0.4019
 1204TIP3   OH225026   4.025   3.011   3.909 -0.4058  0.0499 -0.5141
 1204TIP3    H125027   4.103   2.955   3.907  0.7280  1.2943  2.4383
 1204TIP3    H225028   3.954   2.951   3.933  0.8892 -0.2531  3.2268
 1205TIP3   OH225029   0.536   6.339  12.139  0.3180 -0.6655  0.2778
 1205TIP3    H125030   0.458   6.391  12.117  1.4307  0.5563 -1.0144
 1205TIP3    H225031   0.522   6.312  12.230 -0.6418  1.3214  0.7778
 1206TIP3   OH225032   5.456   0.389   1.346  0.0644 -0.4633 -0.4363
 1206TIP3    H125033   5.475   0.422   1.434  0.7981  2.7021 -1.6417
 1206TIP3    H225034   5.425   0.300   1.360 -1.2900  0.3876  3.1514
 1207TIP3   OH225035   0.189   3.346  15.806 -0.4379 -0.4949 -0.4390
 1207TIP3    H125036   0.130   3.420  15.818 -2.2267 -1.4179 -2.8281
 1207TIP3    H225037   0.146   3.273  15.851 -0.5088 -0.8955 -1.1472
 1208TIP3   OH225038   2.262   2.446   4.405 -0.3723  0.1316 -0.0412
 1208TIP3    H125039   2.309   2.529   4.393 -0.7103  0.2102 -0.8932
 1208TIP3    H225040   2.322   2.380   4.369  0.0839 -0.0616  1.0307
 1209TIP3   OH225041   5.727   1.296   3.522 -0.1529 -0.7894 -0.0287
 1209TIP3    H125042   5.735   1.219   3.465  0.9097 -1.2663  0.7188
 1209TIP3    H225043   5.806   1.293   3.577  0.5194  1.5037 -0.7742
 1210TIP3   OH225044   2.326   4.583  13.315  0.1078  0.3521  0.3143
 1210TIP3    H125045   2.335   4.493  13.282  0.8552 -0.0399  1.5311
 1210TIP3    H225046   2.232   4.602  13.306 -0.4660 -1.3568  1.9627
 1211TIP3   OH225047   1.655   6.565   3.316 -0.4709 -0.1145  0.4023
 1211TIP3    H125048   1.592   6.510   3.364  0.6125 -3.7729 -1.9266
 1211TIP3    H225049   1.740   6.524   3.334  0.7307  2.1651  0.1943
 1212TIP3   OH225050   4.095   4.675  15.925 -0.1070  0.0524  0.9317
 1212TIP3    H125051   4.111   4.756  15.974 -1.6706  0.1804  1.2771
 1212TIP3    H225052   4.180   4.632  15.922  1.1368  2.3820 -0.5417
 1213TIP3   OH225053   6.007   1.365  12.340  0.1598 -0.8117 -0.4723
 1213TIP3    H125054   5.977   1.291  12.287  0.2855 -0.4420 -1.0756
 1213TIP3    H225055   5.953   1.438  12.311  1.3704 -0.2226 -1.3029
 1214TIP3   OH225056   6.127   1.505   2.483 -0.5668 -0.1835 -0.0248
 1214TIP3    H125057   6.139   1.571   2.551 -0.4512 -0.0879 -0.1372
 1214TIP3    H225058   6.195   1.524   2.418 -1.1407  0.1919 -0.5369
 1215TIP3   OH225059   4.574   6.568   0.532 -0.4152  0.2883 -0.0042
 1215TIP3    H125060   4.624   6.486   0.528 -0.8209  0.0846 -2.9902
 1215TIP3    H225061   4.608   6.621   0.461 -0.5378  2.5715  1.5427
 1216TIP3   OH225062   4.179   6.471   1.917 -0.4582 -0.0975  0.3143
 1216TIP3    H125063   4.179   6.422   1.834  3.7869 -0.3825  0.2605
 1216TIP3    H225064   4.196   6.561   1.891 -2.6177  0.5091  0.7853
 1217TIP3   OH225065   6.622   0.115  16.996 -0.2324 -0.4173  0.5998
 1217TIP3    H125066   6.699   0.144  16.947 -1.5719 -1.3317 -2.2771
 1217TIP3    H225067   6.580   0.196  17.025 -0.0817  0.2830 -0.9979
 1218TIP3   OH225068   5.693   2.991   2.178 -0.2278  0.5366  0.1646
 1218TIP3    H125069   5.617   2.979   2.235 -0.1596  0.7969  0.3133
 1218TIP3    H225070   5.767   2.959   2.229  0.0510  2.1147  0.8207
 1219TIP3   OH225071   5.297   6.533   3.402  0.5719  0.7581  0.2656
 1219TIP3    H125072   5.207   6.530   3.435  0.4615 -1.1239 -0.0800
 1219TIP3    H225073   5.287   6.543   3.308  0.6919  0.2728  0.1963
 1220TIP3   OH225074   1.358   3.087  11.601 -0.6417 -0.2496 -0.3665
 1220TIP3    H125075   1.333   2.995  11.614  2.1383 -0.9387  0.8680
 1220TIP3    H225076   1.418   3.085  11.526 -0.8276  0.6201 -0.5467
 1221TIP3   OH225077   1.980   1.452  11.957  0.1072  0.2509  0.0947
 1221TIP3    H125078   1.963   1.366  11.917 -1.4012  0.6488 -0.1473
 1221TIP3    H225079   1.915   1.460  12.026  0.1316  1.2769  0.0066
 1222TIP3   OH225080   0.777   5.915  16.647  0.1532 -0.5604 -0.3112
 1222TIP3    H125081   0.825   5.995  16.666  0.2926 -1.1414  2.0653
 1222TIP3    H225082   0.785   5.904  16.552  1.4047  1.3982 -0.4844
 1223TIP3   OH225083   5.427   2.077  12.626  0.7323  0.0523 -0.7012
 1223TIP3    H125084   5.373   2.010  12.668  3.3648 -2.5240 -1.0982
 1223TIP3    H225085   5.395   2.080  12.536  0.2613 -0.3019 -0.5523
 1224TIP3   OH225086   6.321   6.499  14.871  0.4312  0.4719 -0.5800
 1224TIP3    H125087   6.293   6.449  14.794  1.4303  0.3932 -0.9034
 1224TIP3    H225088   6.308   6.591  14.846 -1.9995  0.4356  0.2406
 1225TIP3   OH225089   3.489   6.663   4.128  0.1844 -0.4515  0.4680
 1225TIP3    H125090   3.563   6.706   4.171  0.8228 -0.9919 -0.0424
 1225TIP3    H225091   3.437   6.734   4.092  0.4791 -0.0577  0.8153
 1226TIP3   OH225092   3.130   0.163   5.732  0.0100  0.6617  0.2230
 1226TIP3    H125093   3.132   0.116   5.649  0.7464 -0.1450  0.6709
 1226TIP3    H225094   3.082   0.243   5.714 -2.4991 -0.8290 -0.2745
 1227TIP3   OH225095   4.137   1.798  11.744 -0.1424  0.0364  0.3881
 1227TIP3    H125096   4.161   1.804  11.836 -1.1403 -2.4703  0.8785
 1227TIP3    H225097   4.201   1.738  11.706  0.4053  1.2224 -0.6560
 1228TIP3   OH225098   6.581   3.566  13.751  0.3824 -0.0523 -0.2819
 1228TIP3    H125099   6.554   3.475  13.737  2.3092 -0.7900  0.5013
 1228TIP3    H225100   6.529   3.616  13.688 -2.7059 -1.3105  1.0410
 1229TIP3   OH225101   1.175   4.439  13.485  0.1301  0.2274 -0.0930
 1229TIP3    H125102   1.136   4.525  13.500  1.0185  0.4985  0.7250
 1229TIP3    H225103   1.165   4.425  13.391  1.2852  1.8961 -0.5226
 1230TIP3   OH225104   5.326   0.276  15.461  0.4413 -0.3257 -0.5434
 1230TIP3    H125105   5.347   0.233  15.544 -0.4241 -0.8866 -0.6090
 1230TIP3    H225106   5.379   0.230  15.397  2.9701  1.6379 -0.0357
 1231TIP3   OH225107   5.934   4.404   3.218  0.3808  0.0145  0.1093
 1231TIP3    H125108   6.011   4.347   3.222 -0.7260 -1.5017  0.7805
 1231TIP3    H225109   5.866   4.356   3.264 -0.0748  2.8167  2.6578
 1232TIP3   OH225110   5.544   6.734  14.718  0.6143 -0.0526 -0.3190
 1232TIP3    H125111   5.503   6.782  14.790  0.8657 -1.6259  0.9332
 1232TIP3    H225112   5.474   6.721  14.655 -0.3317 -0.9316  0.8680
 1233TIP3   OH225113   5.160   4.772  17.179 -0.2255 -0.3612 -0.2516
 1233TIP3    H125114   5.142   4.694  17.126  0.6317 -0.4117 -0.4828
 1233TIP3    H225115   5.234   4.814  17.136  1.2239 -0.9947  1.5130
 1234TIP3   OH225116   5.517   1.251   0.451  0.0902 -0.2910  0.2360
 1234TIP3    H125117   5.475   1.257   0.365 -2.1523 -1.3592  1.1776
 1234TIP3    H225118   5.482   1.325   0.501  1.5077  0.4203  0.2134
 1235TIP3   OH225119   6.136   0.504   2.742 -0.0848 -0.1729 -0.1009
 1235TIP3    H125120   6.141   0.573   2.808 -1.0176 -0.8816  0.7374
 1235TIP3    H225121   6.163   0.547   2.661  0.0935  0.9774  0.5411
 1236TIP3   OH225122   2.072   0.282   3.972 -0.4447 -0.5371  0.0441
 1236TIP3    H125123   2.159   0.285   4.012 -1.0029 -1.9589  1.4854
 1236TIP3    H225124   2.087   0.306   3.880  1.0696  1.7103  0.7718
 1237TIP3   OH225125   0.861   1.015   4.638  0.0510 -0.0291  0.0114
 1237TIP3    H125126   0.854   0.939   4.695  1.9155 -0.8032 -0.7373
 1237TIP3    H225127   0.901   1.082   4.693  0.1523 -0.1832  0.1260
 1238TIP3   OH225128   4.114   1.726  13.261  0.1392 -0.2871  0.4582
 1238TIP3    H125129   4.032   1.746  13.306  0.2320 -0.2263  0.6020
 1238TIP3    H225130   4.092   1.656  13.200  0.4603 -1.8314  2.0523
 1239TIP3   OH225131   6.438   4.741  11.395 -0.2724  0.2449 -0.0855
 1239TIP3    H125132   6.444   4.810  11.462 -1.1008  2.1770 -1.8821
 1239TIP3    H225133   6.447   4.788  11.312  0.6594 -2.0640 -1.3566
 1240TIP3   OH225134   4.141   0.758  17.133 -0.5738  0.1068 -0.6455
 1240TIP3    H125135   4.086   0.706  17.192 -0.8288 -0.2900 -1.2287
 1240TIP3    H225136   4.086   0.772  17.056 -0.0769  0.2447 -0.9731
 1241TIP3   OH225137   5.912   1.614  15.794 -1.0129  0.1063  0.2273
 1241TIP3    H125138   5.876   1.595  15.881  0.0411 -0.1975  0.6023
 1241TIP3    H225139   5.997   1.571  15.793 -1.0184  0.0975 -0.9694
 1242TIP3   OH225140   2.360   4.603   3.569 -0.1520  0.2295 -0.0660
 1242TIP3    H125141   2.312   4.677   3.607 -0.2833 -0.6485  1.5760
 1242TIP3    H225142   2.301   4.529   3.578  0.8370 -0.5188  0.3961
 1243TIP3   OH225143   3.047   6.367  15.550 -0.1531 -0.0534  0.0983
 1243TIP3    H125144   3.008   6.341  15.634  1.9149  0.3970  1.2858
 1243TIP3    H225145   3.045   6.463  15.552  3.2247  0.1478  1.4806
 1244TIP3   OH225146   0.414   2.564  15.804 -0.0953  0.4848  0.0060
 1244TIP3    H125147   0.507   2.565  15.828 -0.1618  3.3323  0.5190
 1244TIP3    H225148   0.370   2.525  15.879  0.5077  0.9344  0.5966
 1245TIP3   OH225149   1.766   4.930  14.707  0.5050  0.1172  0.1639
 1245TIP3    H125150   1.781   4.982  14.628 -0.2251 -1.4159 -1.0194
 1245TIP3    H225151   1.693   4.873  14.685  2.4523 -2.7835  0.6802
 1246TIP3   OH225152   6.081   2.398   3.971  0.3731  0.5550  0.2609
 1246TIP3    H125153   6.055   2.379   4.061  0.3864 -0.5482  0.0494
 1246TIP3    H225154   6.143   2.471   3.978  2.5670 -1.2826  1.4580
 1247TIP3   OH225155   5.027   2.489   2.787  0.5641 -0.1460  0.1415
 1247TIP3    H125156   4.990   2.503   2.700  0.0782 -0.8530  0.2284
 1247TIP3    H225157   4.999   2.564   2.838  0.8296  0.2604 -0.2982
 1248TIP3   OH225158   5.407   1.008  10.621 -0.1140  0.2839 -0.3543
 1248TIP3    H125159   5.447   1.039  10.540 -0.7752  0.6868 -0.5351
 1248TIP3    H225160   5.462   1.044  10.690  0.5220 -0.1625 -0.6198
 1249TIP3   OH225161   4.001   1.489  13.452 -0.1098 -0.1635 -0.4372
 1249TIP3    H125162   4.079   1.511  13.401 -0.5250 -0.2495 -1.1107
 1249TIP3    H225163   3.965   1.412  13.409 -0.5743 -0.1195 -0.1335
 1250TIP3   OH225164   3.048   0.277  13.007 -0.3010 -0.2640  0.3663
 1250TIP3    H125165   2.976   0.271  13.069 -0.5143  0.2611  0.1779
 1250TIP3    H225166   3.114   0.216  13.040 -0.7397 -0.5804  0.6615
 1251TIP3   OH225167   2.416   5.577   6.522 -0.4753 -0.2708 -0.0831
 1251TIP3    H125168   2.471   5.629   6.463 -0.8681 -0.9534 -1.0825
 1251TIP3    H225169   2.331   5.623   6.521 -0.8351 -0.9310 -1.0003
 1252TIP3   OH225170   3.803   6.250   1.923  0.1031  0.0287 -0.2436
 1252TIP3    H125171   3.879   6.191   1.919 -0.5602 -1.1307  2.0979
 1252TIP3    H225172   3.804   6.284   2.013 -1.2559  1.2355 -0.6446
 1253TIP3   OH225173   4.595   0.870  16.977  0.0063  0.6397 -0.4362
 1253TIP3    H125174   4.611   0.931  16.904 -1.1987  2.5615  0.7973
 1253TIP3    H225175   4.500   0.862  16.981  0.0180  0.9881  1.2052
 1254TIP3   OH225176   6.134   4.165   0.154  0.1871 -0.1783 -0.8544
 1254TIP3    H125177   6.204   4.156   0.088 -0.6802 -1.1243 -1.6786
 1254TIP3    H225178   6.137   4.083   0.203  1.6795  1.0137  1.2253
 1255TIP3   OH225179   6.574   0.136   4.991  0.4059  1.3412 -0.1998
 1255TIP3    H125180   6.601   0.075   5.059  0.5732  0.5279 -0.9757
 1255TIP3    H225181   6.534   0.209   5.038 -0.4639  0.3032  0.7256
 1256TIP3   OH225182   5.932   0.205  14.285 -0.6106  0.4054  0.5096
 1256TIP3    H125183   5.855   0.151  14.266 -0.3538 -0.7098  2.4408
 1256TIP3    H225184   5.953   0.186  14.376  2.9480 -0.6033 -0.3921
 1257TIP3   OH225185   1.050   6.198   2.571 -0.1705  0.0932  0.0081
 1257TIP3    H125186   1.131   6.243   2.596 -0.7190  0.5721  0.9548
 1257TIP3    H225187   1.045   6.209   2.476 -0.2612  2.0030  0.1990
 1258TIP3   OH225188   3.235   6.171   0.206  0.1679  0.4709  0.6439
 1258TIP3    H125189   3.143   6.147   0.200  0.2290  0.5278 -1.2458
 1258TIP3    H225190   3.280   6.090   0.227 -0.1809  0.0936 -0.0220
 1259TIP3   OH225191   3.167   6.519   5.071  0.7696  0.0328  0.2304
 1259TIP3    H125192   3.208   6.537   5.156  1.0153 -1.2019  0.3969
 1259TIP3    H225193   3.136   6.428   5.078  1.7028 -0.4410 -1.3500
 1260TIP3   OH225194   5.966   0.531   3.582 -0.1379  0.3640  0.6782
 1260TIP3    H125195   5.955   0.441   3.552 -0.8590  0.1998  1.4118
 1260TIP3    H225196   6.004   0.577   3.507 -2.4156  0.0915 -0.7150
 1261TIP3   OH225197   2.220   5.277   1.091 -0.4850 -0.3638  0.0517
 1261TIP3    H125198   2.192   5.368   1.083  1.6272  0.1656 -2.5932
 1261TIP3    H225199   2.139   5.226   1.083 -1.3054  1.2011 -2.4443
 1262TIP3   OH225200   0.746   2.112   2.546 -0.2747  0.2836 -0.0850
 1262TIP3    H125201   0.703   2.131   2.629 -0.5224 -2.4634  0.5112
 1262TIP3    H225202   0.675   2.085   2.487  0.1060  0.2751 -0.5505
 1263TIP3   OH225203   5.519   3.601  17.361 -0.5597  0.5210 -0.2445
 1263TIP3    H125204   5.582   3.593  17.433  1.0754  2.1827 -1.3736
 1263TIP3    H225205   5.536   3.688  17.325  0.6946 -1.1711 -4.3529
 1264TIP3   OH225206   4.681   1.325  13.651 -0.4485  0.1681  0.2094
 1264TIP3    H125207   4.676   1.335  13.556 -0.0192 -0.1572  0.1487
 1264TIP3    H225208   4.591   1.333  13.681 -1.0112 -2.5454 -0.5173
 1265TIP3   OH225209   4.014   0.281  15.494  0.9324 -0.4427 -0.3424
 1265TIP3    H125210   3.966   0.312  15.571  1.7281  1.4900 -0.5634
 1265TIP3    H225211   3.950   0.227  15.447  0.0261 -0.5956  1.0063
 1266TIP3   OH225212   6.451   2.295  16.402  0.7296 -0.3543 -0.1530
 1266TIP3    H125213   6.502   2.246  16.466  0.0513  0.5102  1.0770
 1266TIP3    H225214   6.478   2.386  16.414 -0.0198 -0.0780 -0.5113
 1267TIP3   OH225215   3.509   4.639   5.202  0.0704 -0.3983  0.2178
 1267TIP3    H125216   3.460   4.636   5.284  2.3339  0.0084  1.6723
 1267TIP3    H225217   3.546   4.727   5.199  1.2734 -0.9079 -0.4570
 1268TIP3   OH225218   4.748   2.347   5.326  0.1949 -0.0489 -0.3339
 1268TIP3    H125219   4.834   2.311   5.304  1.1861  0.3356  2.4799
 1268TIP3    H225220   4.685   2.288   5.284  1.7993 -2.8420  0.9024
 1269TIP3   OH225221   2.908   4.074  17.255  0.1878 -0.3170  0.1676
 1269TIP3    H125222   2.831   4.046  17.306 -0.7722 -0.4787 -1.2983
 1269TIP3    H225223   2.983   4.049  17.309 -0.7729  0.5575  2.0235
 1270TIP3   OH225224   2.466   1.533  13.976  0.4636  0.1205  0.0473
 1270TIP3    H125225   2.430   1.606  14.027 -1.4914 -1.5563  1.2377
 1270TIP3    H225226   2.471   1.566  13.887  2.5463  2.6639  0.9578
 1271TIP3   OH225227   5.857   2.359   3.805  0.0074 -0.2116  0.1526
 1271TIP3    H125228   5.803   2.323   3.875 -2.0753  0.6980 -0.8775
 1271TIP3    H225229   5.946   2.358   3.840 -0.6232 -1.9242  1.8887
 1272TIP3   OH225230   4.213   1.161  13.492 -0.1423  0.0510 -0.3165
 1272TIP3    H125231   4.281   1.097  13.473  0.6848  0.4762  1.1265
 1272TIP3    H225232   4.162   1.122  13.563 -0.1267  0.6377  0.0216
 1273TIP3   OH225233   3.145   3.171  13.106  0.4942 -0.3088 -0.0500
 1273TIP3    H125234   3.186   3.215  13.031  1.3210  1.2551  1.2499
 1273TIP3    H225235   3.216   3.120  13.145  0.4926  0.1312  0.5508
 1274TIP3   OH225236   6.743   6.399   5.230 -0.3127  0.2119  0.1556
 1274TIP3    H125237   6.730   6.320   5.178  0.4878  0.9222 -1.1649
 1274TIP3    H225238   6.655   6.437   5.238 -0.3450  0.5234 -1.4184
 1275TIP3   OH225239   0.627   0.615  15.893 -0.2019 -0.0477 -0.3269
 1275TIP3    H125240   0.700   0.677  15.892 -0.3614  0.1354 -0.5331
 1275TIP3    H225241   0.644   0.560  15.970  0.1067  0.0496 -0.3243
 1276TIP3   OH225242   6.195   5.119  12.368 -0.2086  0.0592  0.8885
 1276TIP3    H125243   6.143   5.119  12.288 -0.2086 -2.0906  0.8328
 1276TIP3    H225244   6.283   5.145  12.339  0.2346 -2.3728 -0.1996
 1277TIP3   OH225245   0.116   1.425  16.853  0.4755  0.4706 -0.2271
 1277TIP3    H125246   0.150   1.370  16.782  0.4116 -0.6291  0.5726
 1277TIP3    H225247   0.145   1.381  16.933 -1.9736  0.0074  0.4757
 1278TIP3   OH225248   4.829   2.505  14.904 -0.0649  0.0337  0.3551
 1278TIP3    H125249   4.769   2.467  14.968 -1.5655  2.7902  0.7532
 1278TIP3    H225250   4.832   2.441  14.833 -2.7501 -0.6609  0.7579
 1279TIP3   OH225251   4.754   4.230  14.250 -0.0710 -0.2481 -0.0580
 1279TIP3    H125252   4.793   4.151  14.286 -1.0422 -0.4366  0.6244
 1279TIP3    H225253   4.670   4.201  14.214  1.0644 -0.1706 -3.0154
 1280TIP3   OH225254   3.809   4.063   6.398 -0.0293  0.1635 -0.2748
 1280TIP3    H125255   3.893   4.054   6.354 -0.0051 -0.8261 -0.0517
 1280TIP3    H225256   3.759   3.986   6.371 -0.4405  0.1480  0.4894
 1281TIP3   OH225257   1.336   3.341  12.019  0.4317 -0.0173 -0.6226
 1281TIP3    H125258   1.361   3.430  11.995  0.8991 -0.4296 -1.6846
 1281TIP3    H225259   1.392   3.285  11.967  1.0019 -0.9613  0.9309
 1282TIP3   OH225260   3.021   3.638  17.331 -0.1914  0.0147  0.2876
 1282TIP3    H125261   3.009   3.555  17.286  0.3853 -0.5544  1.1419
 1282TIP3    H225262   2.933   3.675  17.337 -0.2081  0.4877 -1.9314
 1283TIP3   OH225263   2.514   0.435  16.467 -0.2169  0.4663 -0.3241
 1283TIP3    H125264   2.569   0.396  16.535 -2.1730 -0.3083  0.8905
 1283TIP3    H225265   2.485   0.360  16.415 -0.4863  0.8092 -0.6683
 1284TIP3   OH225266   3.162   3.664  15.337 -0.1661  0.0154  0.1879
 1284TIP3    H125267   3.178   3.701  15.424  0.4014 -0.6567  0.3837
 1284TIP3    H225268   3.232   3.699  15.283  0.5282 -0.9419  0.4363
 1285TIP3   OH225269   3.759   1.980   0.026  0.5497 -0.2554 -0.5123
 1285TIP3    H125270   3.811   1.970   0.105  1.4956 -0.9873 -1.1970
 1285TIP3    H225271   3.771   2.071  -0.000 -1.4656  0.6282  1.2813
 1286TIP3   OH225272   3.231   5.542   4.209  0.0614 -0.4376  0.0042
 1286TIP3    H125273   3.290   5.611   4.178 -0.1315  0.2078  1.0003
 1286TIP3    H225274   3.266   5.518   4.295 -2.0127  1.1568  1.4086
 1287TIP3   OH225275   3.949   5.363   1.754 -0.2233 -0.0833  0.5189
 1287TIP3    H125276   4.002   5.295   1.712 -1.1450 -0.7572  0.4103
 1287TIP3    H225277   3.912   5.321   1.832 -1.0324  0.1832  0.2960
 1288TIP3   OH225278   0.453   2.463  15.361  0.0349 -0.2036 -0.5040
 1288TIP3    H125279   0.389   2.413  15.413  0.1935 -0.0118 -0.1160
 1288TIP3    H225280   0.461   2.546  15.408  2.5308 -1.1716  0.9546
 1289TIP3   OH225281   4.103   5.547   4.723 -0.3646 -0.1893  0.1403
 1289TIP3    H125282   4.087   5.642   4.726  0.8183  0.0014  1.3645
 1289TIP3    H225283   4.186   5.538   4.676 -0.4039 -0.6069  0.1477
 1290TIP3   OH225284   1.824   0.686   0.622  0.2262  0.7497  0.4519
 1290TIP3    H125285   1.872   0.769   0.609  2.8424 -0.6348  0.5291
 1290TIP3    H225286   1.863   0.648   0.700  1.8640 -2.2393 -1.5919
 1291TIP3   OH225287   5.113   3.139  10.556 -0.5274 -0.2715  0.2539
 1291TIP3    H125288   5.179   3.152  10.488  0.3639 -0.1138  1.1169
 1291TIP3    H225289   5.090   3.227  10.584 -0.0346 -0.3485  0.9359
 1292TIP3   OH225290   1.448   0.913   0.350 -0.0047 -0.2555  0.0582
 1292TIP3    H125291   1.409   0.937   0.434  0.1556 -0.5646  0.2228
 1292TIP3    H225292   1.522   0.856   0.373  0.0673 -0.3047 -0.2883
 1293TIP3   OH225293   2.784   6.260  16.419  0.5426 -0.5615 -0.1347
 1293TIP3    H125294   2.856   6.212  16.378  0.9345  1.0601 -1.4428
 1293TIP3    H225295   2.805   6.352  16.404 -1.6353 -0.0401 -0.2763
 1294TIP3   OH225296   2.000   2.186   6.113 -0.1990 -0.3271 -0.1925
 1294TIP3    H125297   1.993   2.195   6.018  0.7253  0.8300 -0.1689
 1294TIP3    H225298   1.947   2.109   6.134  0.3547 -1.1673 -1.7517
 1295TIP3   OH225299   1.758   2.253  15.597 -0.1878 -0.0071  0.2116
 1295TIP3    H125300   1.833   2.197  15.577  0.7658  1.3560 -0.1581
 1295TIP3    H225301   1.682   2.196  15.583  0.6722 -0.7908 -1.6771
 1296TIP3   OH225302   3.042   6.763   2.170 -0.2024  0.1353  0.4454
 1296TIP3    H125303   3.134   6.746   2.191 -0.1698  0.4638  0.5770
 1296TIP3    H225304   3.028   6.718   2.087 -0.3305 -1.1604  1.1420
 1297TIP3   OH225305   0.713   3.045   2.404 -0.1386 -0.0345 -0.0850
 1297TIP3    H125306   0.684   3.102   2.475 -1.2541 -0.9787  0.2647
 1297TIP3    H225307   0.770   2.981   2.447 -0.6436 -0.4792 -0.0699
 1298TIP3   OH225308   1.902   1.578  16.466 -0.1805  0.2581 -0.0167
 1298TIP3    H125309   1.866   1.665  16.447 -0.0235  0.0027 -1.5855
 1298TIP3    H225310   1.905   1.534  16.381  2.1439 -0.3745  0.3146
 1299TIP3   OH225311   0.096   1.173   2.633  0.6518 -0.2153  0.2060
 1299TIP3    H125312   0.143   1.250   2.601  1.7972 -0.5390  1.0549
 1299TIP3    H225313   0.010   1.178   2.590  0.7021  1.5200  0.2298
 1300TIP3   OH225314   5.956   3.310   1.830  0.2512 -0.4689  0.0839
 1300TIP3    H125315   5.985   3.347   1.746 -0.4377 -0.7377 -0.2755
 1300TIP3    H225316   6.009   3.356   1.895 -0.4383  1.0216 -0.3659
 1301TIP3   OH225317   2.334   3.104   3.740  0.1937  0.4381  0.3251
 1301TIP3    H125318   2.355   3.029   3.686 -1.7292  0.7724 -1.0044
 1301TIP3    H225319   2.299   3.066   3.821 -1.0798 -0.1370 -0.4674
 1302TIP3   OH225320   5.683   3.565   0.627  0.1455  0.5635  0.1382
 1302TIP3    H125321   5.644   3.563   0.714  0.1802 -0.9346  0.1558
 1302TIP3    H225322   5.770   3.528   0.639 -0.4954 -1.4138 -0.7773
 1303TIP3   OH225323   6.636   5.881   5.737 -0.2143  0.1010 -0.1177
 1303TIP3    H125324   6.621   5.919   5.651  1.3944  0.2672 -0.3555
 1303TIP3    H225325   6.728   5.897   5.755 -0.5320  0.1526  1.6939
 1304TIP3   OH225326   2.086   5.382   0.428  0.2412 -0.7001  0.7970
 1304TIP3    H125327   2.070   5.453   0.366 -0.1991 -0.4878  1.1534
 1304TIP3    H225328   2.057   5.303   0.382 -0.1799 -0.5306  0.7735
 1305TIP3   OH225329   6.081   6.649  11.708 -0.7940  0.1804  0.0529
 1305TIP3    H125330   6.040   6.579  11.758 -1.3062  0.4930  0.0758
 1305TIP3    H225331   6.039   6.729  11.740  0.8870  0.6794  1.1640
 1306TIP3   OH225332   4.858   3.254   5.625 -0.2341 -0.4725  0.1683
 1306TIP3    H125333   4.763   3.251   5.618 -0.2714 -1.3725  0.9797
 1306TIP3    H225334   4.876   3.337   5.669 -0.8100 -1.3826  2.2476
 1307TIP3   OH225335   5.010   2.242   0.522  0.3441  0.5491  0.5613
 1307TIP3    H125336   5.042   2.302   0.454  1.4039 -0.2227  0.3579
 1307TIP3    H225337   5.044   2.156   0.496  0.5445  0.2012  1.9163
 1308TIP3   OH225338   0.315   2.883   5.579  0.4443  0.1692 -0.3510
 1308TIP3    H125339   0.255   2.926   5.519 -1.3424  0.0954  1.2830
 1308TIP3    H225340   0.340   2.801   5.535  0.2546  0.7341 -1.5316
 1309TIP3   OH225341   2.106   6.754  12.594  0.9724  0.4571  0.7218
 1309TIP3    H125342   2.057   6.687  12.546  3.8928 -1.1732 -0.2655
 1309TIP3    H225343   2.044   6.826  12.605 -1.4302 -1.2042 -0.8570
 1310TIP3   OH225344   1.157   1.812  16.951 -0.3791 -0.1788  0.0803
 1310TIP3    H125345   1.252   1.800  16.947 -0.5826 -1.9552 -0.3216
 1310TIP3    H225346   1.145   1.896  16.995  1.3858  0.5759 -0.7655
 1311TIP3   OH225347   1.416   2.506   4.553  0.3593 -0.2024  0.3885
 1311TIP3    H125348   1.417   2.475   4.463  1.8719  1.1242 -0.1041
 1311TIP3    H225349   1.325   2.498   4.581 -0.0748 -0.8905 -1.1503
 1312TIP3   OH225350   3.741   5.149  16.575 -0.1180 -0.6299 -0.4327
 1312TIP3    H125351   3.754   5.065  16.531 -1.2103 -0.6721 -0.6906
 1312TIP3    H225352   3.816   5.201  16.548 -0.3360 -0.9327 -1.6912
 1313TIP3   OH225353   5.587   3.579   0.883 -0.2796  0.2569 -0.1334
 1313TIP3    H125354   5.563   3.492   0.916  1.3602  0.2418  1.1531
 1313TIP3    H225355   5.523   3.638   0.923  0.8391  0.0591  2.1542
 1314TIP3   OH225356   1.331   2.689   5.798 -0.3754  0.1220 -0.0760
 1314TIP3    H125357   1.391   2.738   5.742 -0.1265 -0.9749 -0.7830
 1314TIP3    H225358   1.300   2.754   5.862  0.8868  0.9045 -0.2256
 1315TIP3   OH225359   5.060   5.668  10.368  0.3449  0.1467  0.2901
 1315TIP3    H125360   4.987   5.613  10.339  0.1260 -0.2632  1.5393
 1315TIP3    H225361   5.129   5.606  10.391  0.0652  0.3450  1.7978
 1316TIP3   OH225362   1.514   2.406  11.867 -0.1410 -0.3423  0.1043
 1316TIP3    H125363   1.421   2.395  11.851 -0.2766 -1.2622  1.3964
 1316TIP3    H225364   1.532   2.498  11.845 -0.8747 -0.6976 -2.2408
 1317TIP3   OH225365   5.951   5.917  16.862  0.2374 -0.3175  0.1438
 1317TIP3    H125366   5.893   5.977  16.815  1.6387  0.3137 -0.8523
 1317TIP3    H225367   6.018   5.893  16.798  1.6114 -0.2807  1.5125
 1318TIP3   OH225368   5.734   5.792  13.966  0.0188 -0.0020  0.1683
 1318TIP3    H125369   5.706   5.852  13.897  0.7840  0.9603  0.6754
 1318TIP3    H225370   5.768   5.716  13.919  0.3600  0.5582 -0.5209
 1319TIP3   OH225371   0.610   6.027  16.979 -0.0008 -0.3679 -0.2698
 1319TIP3    H125372   0.572   6.113  16.994 -0.5595 -0.6120 -0.2389
 1319TIP3    H225373   0.560   5.991  16.905 -0.9249 -1.3293  0.7779
 1320TIP3   OH225374   3.823   5.703  11.521  0.0017 -0.1525 -0.1581
 1320TIP3    H125375   3.738   5.746  11.515  0.1630  0.1878 -0.0551
 1320TIP3    H225376   3.873   5.758  11.582  0.6241  0.1948 -0.9693
 1321TIP3   OH225377   1.104   5.218  16.178  0.2318  0.4126 -0.4628
 1321TIP3    H125378   1.125   5.170  16.258  0.9216 -1.0492 -1.4702
 1321TIP3    H225379   1.014   5.247  16.190  0.4561  0.5503  0.9987
 1322TIP3   OH225380   3.073   1.905  16.638 -0.0373 -0.7107 -0.0185
 1322TIP3    H125381   3.023   1.971  16.590  0.6490 -0.9288 -1.0746
 1322TIP3    H225382   3.136   1.956  16.690  0.2537 -0.5116 -0.5569
 1323TIP3   OH225383   1.508   6.756  17.102 -0.8295  0.0289 -0.6441
 1323TIP3    H125384   1.603   6.754  17.090 -0.8564  1.7374 -1.5243
 1323TIP3    H225385   1.473   6.711  17.025 -0.7393  0.9545 -1.2505
 1324TIP3   OH225386   6.571   4.749  16.920  0.2788  0.4158  0.1200
 1324TIP3    H125387   6.636   4.813  16.949  0.0331  0.3538  0.8324
 1324TIP3    H225388   6.623   4.679  16.881  0.6876  0.1211  1.1587
 1325TIP3   OH225389   0.603   0.621   5.731  0.0281 -0.4814  0.1366
 1325TIP3    H125390   0.637   0.702   5.770 -1.4595  0.0532  0.4053
 1325TIP3    H225391   0.508   0.635   5.728 -0.1072 -1.5739 -1.3125
 1326TIP3   OH225392   3.209   4.396   5.206 -0.5665 -0.6877 -0.0407
 1326TIP3    H125393   3.276   4.328   5.207 -1.2418 -1.3841 -0.9586
 1326TIP3    H225394   3.258   4.478   5.212  0.2408 -1.2290  1.4050
 1327TIP3   OH225395   5.686   2.578  13.707  0.3862 -0.3080  0.0013
 1327TIP3    H125396   5.702   2.551  13.797  0.5449 -0.9410 -0.2125
 1327TIP3    H225397   5.757   2.538  13.657  1.4738  1.6990 -0.1397
 1328TIP3   OH225398   2.647   5.746  17.169 -1.1852 -0.2554 -0.3590
 1328TIP3    H125399   2.640   5.801  17.090  2.6820  1.0746 -0.0323
 1328TIP3    H225400   2.717   5.788  17.220 -1.3807 -2.8554  2.2795
 1329TIP3   OH225401   4.800   1.336   1.723  0.0084 -0.3910  0.1023
 1329TIP3    H125402   4.744   1.259   1.726 -1.5684  0.6472 -0.8929
 1329TIP3    H225403   4.864   1.318   1.655  1.5542 -1.9661  1.8679
 1330TIP3   OH225404   2.345   0.628  11.344  0.1832 -0.0007 -0.1544
 1330TIP3    H125405   2.385   0.561  11.289 -0.1598 -0.0140 -0.3947
 1330TIP3    H225406   2.415   0.656  11.403  0.9440  0.9420 -1.4406
 1331TIP3   OH225407   2.475   0.947   2.886  0.1317  0.2930 -0.1948
 1331TIP3    H125408   2.508   0.901   2.964  2.5182 -0.0881 -1.3492
 1331TIP3    H225409   2.516   1.033   2.890  0.5564  0.1495 -1.1895
 1332TIP3   OH225410   5.785   1.317  11.026  0.1536  0.2959 -0.2537
 1332TIP3    H125411   5.869   1.359  11.045  0.7055 -1.2536  0.8924
 1332TIP3    H225412   5.747   1.371  10.957  0.5899  2.9623  1.4290
 1333TIP3   OH225413   4.988   6.640  16.078 -0.0380  0.3686 -0.0364
 1333TIP3    H125414   5.023   6.695  16.008 -0.6150 -0.5047 -1.0277
 1333TIP3    H225415   5.015   6.684  16.158  1.6782  0.7431 -0.7822
 1334TIP3   OH225416   2.489   3.538  16.259 -0.1489 -0.1107 -0.7553
 1334TIP3    H125417   2.509   3.611  16.202  1.0995 -0.1317 -0.3875
 1334TIP3    H225418   2.422   3.571  16.319  0.8944  0.9723 -0.1512
 1335TIP3   OH225419   6.469   1.714   6.698 -0.7716 -0.0135 -0.1013
 1335TIP3    H125420   6.406   1.726   6.769  1.0684 -1.3056  1.8721
 1335TIP3    H225421   6.535   1.781   6.713 -0.4547 -0.1810 -0.7277
 1336TIP3   OH225422   0.051   3.482  11.631 -0.2167  0.8514  0.2848
 1336TIP3    H125423  -0.033   3.502  11.590 -0.3783 -1.6582 -0.7814
 1336TIP3    H225424   0.109   3.459  11.558  0.3174 -0.9547  1.2117
 1337TIP3   OH225425   1.175   3.926   4.605  0.4210 -0.0248  0.0000
 1337TIP3    H125426   1.165   3.831   4.612 -0.1018  0.0489  0.2776
 1337TIP3    H225427   1.251   3.946   4.659  0.1518 -0.2108  0.4484
 1338TIP3   OH225428   6.431   3.619   5.167  0.5053 -0.1960 -0.6686
 1338TIP3    H125429   6.448   3.530   5.138  2.2363 -0.5339  1.1442
 1338TIP3    H225430   6.517   3.652   5.195  0.0153  2.2379 -1.7645
 1339TIP3   OH225431   0.995   5.022  12.248  0.0200  0.1812  0.0449
 1339TIP3    H125432   1.019   5.109  12.215  1.1520  0.3294  1.1833
 1339TIP3    H225433   1.071   4.968  12.227 -0.5057 -0.4478 -0.2749
 1340TIP3   OH225434   0.857   2.192   5.507 -0.1651 -0.0854  0.2174
 1340TIP3    H125435   0.925   2.126   5.493 -1.4705 -1.5391  0.4361
 1340TIP3    H225436   0.785   2.165   5.449 -0.5700  1.4284 -0.0355
 1341TIP3   OH225437   1.666   3.203   2.909  0.2021  0.2167 -0.1820
 1341TIP3    H125438   1.720   3.273   2.871 -0.8300  1.1023 -0.0791
 1341TIP3    H225439   1.727   3.150   2.959  0.6138  2.9821  2.5741
 1342TIP3   OH225440   0.482   2.982  13.319 -0.6121  0.0846  0.4241
 1342TIP3    H125441   0.404   2.943  13.281 -0.2223  0.5745 -0.9673
 1342TIP3    H225442   0.555   2.942  13.271 -0.1040  0.7951  0.5799
 1343TIP3   OH225443   3.292   2.088  14.428  0.2351 -0.2433  0.0323
 1343TIP3    H125444   3.332   2.019  14.375 -0.9858 -0.9340 -0.0150
 1343TIP3    H225445   3.243   2.042  14.495 -0.1011  0.5958  0.3767
 1344TIP3   OH225446   5.044   4.147  14.690  0.0748  0.1474 -0.8348
 1344TIP3    H125447   4.993   4.227  14.703  2.1387  1.5050 -0.5710
 1344TIP3    H225448   4.984   4.087  14.647 -2.4289  0.8140  1.4563
 1345TIP3   OH225449   2.745   6.032   4.467  0.3378 -0.4097  0.0472
 1345TIP3    H125450   2.685   6.067   4.533  0.0284 -1.7931  0.5542
 1345TIP3    H225451   2.725   6.081   4.387  0.3044  0.8857  0.8264
 1346TIP3   OH225452   4.379   5.990   0.036 -0.0690 -0.0170 -0.4300
 1346TIP3    H125453   4.414   5.911  -0.006  1.1151  0.0919  0.3216
 1346TIP3    H225454   4.402   6.061  -0.024  0.2581 -0.0503 -0.3446
 1347TIP3   OH225455   3.529   6.400  16.080  0.4834  0.4590  0.0277
 1347TIP3    H125456   3.486   6.482  16.058 -1.5306  0.0553  2.0824
 1347TIP3    H225457   3.531   6.398  16.175  2.6818 -0.8245  0.0277
 1348TIP3   OH225458   1.222   3.619   2.926 -0.5292  0.3374  0.0439
 1348TIP3    H125459   1.212   3.712   2.944  0.8265  0.5826 -0.3794
 1348TIP3    H225460   1.168   3.603   2.848  0.8571  1.2385 -1.1563
 1349TIP3   OH225461   6.124   6.630  14.233  0.0091  0.5846  0.2994
 1349TIP3    H125462   6.191   6.574  14.197 -1.9287 -0.4371 -1.9968
 1349TIP3    H225463   6.162   6.718  14.232  1.3730  0.0041 -0.6961
 1350TIP3   OH225464   4.598   0.986  16.682  0.0319  0.0239 -1.0099
 1350TIP3    H125465   4.521   0.929  16.678  0.9389 -1.3232 -0.1078
 1350TIP3    H225466   4.566   1.066  16.723 -0.4471 -1.4209  1.6823
 1351TIP3   OH225467   2.144   1.025   2.381 -0.0708 -0.2347 -0.7868
 1351TIP3    H125468   2.230   1.065   2.392 -0.8742  1.3156  0.4183
 1351TIP3    H225469   2.089   1.095   2.344 -1.0408 -0.8705 -0.6036
 1352TIP3   OH225470   0.207   6.410   5.381 -0.1805  0.4216 -0.7129
 1352TIP3    H125471   0.179   6.388   5.470 -0.2421  2.3392 -0.2006
 1352TIP3    H225472   0.126   6.425   5.333 -0.1315  0.1901 -0.8688
 1353TIP3   OH225473   3.869   0.535  15.782  0.0165 -0.2487 -0.1905
 1353TIP3    H125474   3.806   0.471  15.813 -0.4774  0.3007 -0.0388
 1353TIP3    H225475   3.852   0.613  15.834 -0.7559  0.6586 -1.7131
 1354TIP3   OH225476   1.680   6.559   6.173  0.0750 -0.4412 -0.5752
 1354TIP3    H125477   1.734   6.596   6.103  0.9524  0.4165  0.5090
 1354TIP3    H225478   1.723   6.476   6.195  2.0700  0.9983  1.4245
 1355TIP3   OH225479   2.645   5.389  13.461  0.8030  0.2541  0.1014
 1355TIP3    H125480   2.567   5.353  13.503  1.1293 -0.5156  0.0648
 1355TIP3    H225481   2.667   5.326  13.393  0.2533  1.5161 -1.2817
 1356TIP3   OH225482   5.505   5.611   1.874 -0.0196 -0.1481 -0.4842
 1356TIP3    H125483   5.492   5.585   1.965 -1.0107  0.7134 -0.3576
 1356TIP3    H225484   5.433   5.671   1.855 -0.3598 -1.0040 -2.1312
 1357TIP3   OH225485   5.082   0.035  12.301  0.4455  0.0960  0.4394
 1357TIP3    H125486   5.144   0.011  12.232  0.7939 -0.7138  1.0229
 1357TIP3    H225487   5.136   0.042  12.380 -0.2230 -0.7733  0.9851
 1358TIP3   OH225488   2.739   0.821   2.328 -0.2336 -0.1075 -0.1934
 1358TIP3    H125489   2.682   0.750   2.358 -0.9321  0.5688  0.1321
 1358TIP3    H225490   2.811   0.778   2.282  0.5265 -1.1789  1.8523
 1359TIP3   OH225491   2.435   2.662  16.050  0.1263  0.6277  0.2292
 1359TIP3    H125492   2.405   2.618  16.129  1.3423 -1.8305 -0.5685
 1359TIP3    H225493   2.411   2.754  16.062 -1.7552 -0.0799  2.4004
 1360TIP3   OH225494   0.041   3.460   5.814  0.0731  0.4315  0.3224
 1360TIP3    H125495   0.083   3.485   5.731 -0.3676  0.9943  0.2616
 1360TIP3    H225496   0.113   3.425   5.868  0.0652 -1.8377 -0.9960
 1361TIP3   OH225497   0.503   3.409  12.380 -0.2889  0.4409  0.7492
 1361TIP3    H125498   0.565   3.358  12.431  0.3972  1.5351  1.0599
 1361TIP3    H225499   0.545   3.420  12.294 -1.4218 -1.3629 -0.0865
 1362TIP3   OH225500   6.707   2.065   6.279 -0.0009 -0.7107 -0.8209
 1362TIP3    H125501   6.614   2.083   6.297  0.5600  0.7788  0.8787
 1362TIP3    H225502   6.718   1.972   6.297 -0.2643 -0.0805  3.7249
 1363TIP3   OH225503   0.746   4.286   0.711 -0.0476  0.6663 -0.3708
 1363TIP3    H125504   0.699   4.369   0.713 -1.1745  0.1365 -2.3852
 1363TIP3    H225505   0.677   4.219   0.712  0.7526 -0.1896 -0.8426
 1364TIP3   OH225506   2.655   1.160   2.930 -0.3959 -0.1785 -0.0224
 1364TIP3    H125507   2.692   1.097   2.992  1.9346  0.7176 -0.4192
 1364TIP3    H225508   2.731   1.201   2.889 -1.8663  1.2009 -1.5063
 1365TIP3   OH225509   4.490   5.572  12.564 -0.4269 -0.3453  0.6044
 1365TIP3    H125510   4.450   5.486  12.556 -1.0330  0.0066 -0.3260
 1365TIP3    H225511   4.437   5.616  12.631 -0.1977 -0.6409  0.9860
 1366TIP3   OH225512   1.207   4.165   2.695 -0.3090  0.2036 -0.0914
 1366TIP3    H125513   1.205   4.208   2.609 -1.0389  2.5764  1.0238
 1366TIP3    H225514   1.156   4.084   2.683 -0.2507  0.3992 -1.9110
 1367TIP3   OH225515   3.296   5.856   5.578  0.5203  0.4010  0.4958
 1367TIP3    H125516   3.285   5.797   5.652  0.6508 -0.7782 -0.4103
 1367TIP3    H225517   3.346   5.806   5.514  0.7146  1.5236 -0.2550
 1368TIP3   OH225518   2.316   1.228   5.549  0.0206  0.0378 -0.1721
 1368TIP3    H125519   2.304   1.323   5.545 -0.2517  0.0380  0.6175
 1368TIP3    H225520   2.385   1.215   5.614 -0.8644 -0.3706  0.7164
 1369TIP3   OH225521   2.312   1.447   1.825  0.1699  0.3504 -0.1581
 1369TIP3    H125522   2.315   1.488   1.739 -0.6724 -1.1182 -0.9231
 1369TIP3    H225523   2.395   1.401   1.833  0.4963  0.9679  0.0806
 1370TIP3   OH225524   3.590   4.964   3.531  0.4198 -0.2748 -0.0232
 1370TIP3    H125525   3.528   5.029   3.497  1.3633 -0.4370 -2.1976
 1370TIP3    H225526   3.574   4.964   3.626 -1.1383  1.4942 -0.2143
 1371TIP3   OH225527   6.417   1.227   0.495 -0.4465 -0.1613  0.1847
 1371TIP3    H125528   6.434   1.209   0.587 -1.1460 -1.7606  0.0364
 1371TIP3    H225529   6.451   1.150   0.449  1.0750  1.1687 -1.0457
 1372TIP3   OH225530   5.540   4.709   5.628  0.2948 -0.1030 -0.8012
 1372TIP3    H125531   5.574   4.645   5.691  0.7418 -0.6503 -1.5898
 1372TIP3    H225532   5.519   4.658   5.550 -2.6214  0.1439 -0.2947
 1373TIP3   OH225533   3.491   4.943   2.079 -0.1954 -0.5976  0.0854
 1373TIP3    H125534   3.489   4.856   2.119  1.0810  0.0574  1.6881
 1373TIP3    H225535   3.556   4.992   2.130 -1.5187  1.5872 -0.1661
 1374TIP3   OH225536   4.997   6.050  16.596 -0.1143  0.0825 -0.5699
 1374TIP3    H125537   5.001   6.119  16.530 -2.7094 -0.5002 -1.4368
 1374TIP3    H225538   4.962   6.094  16.674  0.2096  0.1633 -0.4673
 1375TIP3   OH225539   3.610   1.851  15.896  0.1918  0.0083  0.0026
 1375TIP3    H125540   3.571   1.764  15.889 -1.8285  0.8014  0.5792
 1375TIP3    H225541   3.589   1.894  15.813 -0.5576  0.5881  0.4828
 1376TIP3   OH225542   4.065   2.393  13.444 -0.3438 -0.3974 -0.1639
 1376TIP3    H125543   4.012   2.319  13.415 -0.0660 -0.0441 -1.6590
 1376TIP3    H225544   4.065   2.453  13.369 -1.3389  1.5718  1.3129
 1377TIP3   OH225545   0.089   5.855  16.060 -0.5810  0.0227  0.1379
 1377TIP3    H125546   0.171   5.875  16.107 -0.5412  0.9338 -0.2902
 1377TIP3    H225547   0.058   5.940  16.030 -2.6643 -0.0594  1.8465
 1378TIP3   OH225548   2.586   3.286   5.325  0.6586  0.4350 -0.3169
 1378TIP3    H125549   2.561   3.253   5.239  0.0877  1.3493 -0.5225
 1378TIP3    H225550   2.504   3.319   5.362  1.1157  1.1885  0.0443
 1379TIP3   OH225551   0.332   4.999   3.010  0.2034  0.3746  0.0921
 1379TIP3    H125552   0.383   4.955   2.942  0.8232  1.6358 -0.2980
 1379TIP3    H225553   0.241   4.977   2.990  0.2030  2.0283 -2.2030
 1380TIP3   OH225554   4.738   2.192  12.766 -0.6073  0.2529  0.5931
 1380TIP3    H125555   4.777   2.273  12.800 -0.3005 -0.0403  0.9472
 1380TIP3    H225556   4.812   2.136  12.747 -0.8554 -0.4669  1.6634
 1381TIP3   OH225557   6.066   1.735   3.120  0.0290 -0.3180 -0.0172
 1381TIP3    H125558   6.129   1.730   3.191 -0.9138 -0.7428  0.8175
 1381TIP3    H225559   5.984   1.761   3.162 -0.7177 -1.2638 -0.8207
 1382TIP3   OH225560   3.374   4.581  14.986 -0.0546 -0.5262  0.3802
 1382TIP3    H125561   3.370   4.489  15.013 -1.1918 -0.5974 -0.0029
 1382TIP3    H225562   3.441   4.620  15.043  1.6569 -1.9495 -0.5640
 1383TIP3   OH225563   0.948   5.608  13.789  0.3768 -0.5501 -0.4957
 1383TIP3    H125564   1.024   5.569  13.746  0.9199 -0.2068  0.1257
 1383TIP3    H225565   0.945   5.566  13.875 -0.0629 -0.4755 -0.4740
 1384TIP3   OH225566   2.277   6.251  14.225 -0.1856 -0.4156 -0.1865
 1384TIP3    H125567   2.202   6.284  14.275  0.9964  0.0233  1.3533
 1384TIP3    H225568   2.258   6.277  14.134 -1.6506  0.1143  0.2434
 1385TIP3   OH225569   1.307   0.935   5.279  0.1527  0.0242  0.4041
 1385TIP3    H125570   1.309   0.866   5.212 -0.5065 -0.3481  0.7491
 1385TIP3    H225571   1.324   1.016   5.231  0.8437 -0.3643 -0.0229
 1386TIP3   OH225572   0.037   2.173  14.223  0.0783  0.2157 -0.3092
 1386TIP3    H125573  -0.008   2.091  14.244 -0.4491  0.8116  0.9466
 1386TIP3    H225574   0.058   2.211  14.308  2.3094  0.3363 -0.8444
 1387TIP3   OH225575   3.772   2.586  11.743 -0.0875  0.2560  0.1000
 1387TIP3    H125576   3.813   2.533  11.675 -1.3568 -1.7594  0.8000
 1387TIP3    H225577   3.816   2.671  11.738 -1.1129  0.7675 -4.2470
 1388TIP3   OH225578   3.436   2.382   1.357 -0.0587 -0.2201 -0.1496
 1388TIP3    H125579   3.517   2.416   1.319  0.3389 -1.0196 -0.0462
 1388TIP3    H225580   3.444   2.287   1.349 -1.0847 -0.2994 -0.3319
 1389TIP3   OH225581   6.663   1.431   1.294  0.4896 -0.3288  0.4062
 1389TIP3    H125582   6.754   1.402   1.307  0.2821 -1.1782  0.0247
 1389TIP3    H225583   6.635   1.461   1.380  1.5426  1.1523  0.2655
 1390TIP3   OH225584   3.492   3.815  16.772 -0.2872  0.3738 -0.3193
 1390TIP3    H125585   3.442   3.744  16.814  0.4401 -0.3187 -0.5906
 1390TIP3    H225586   3.579   3.778  16.759  0.1850  1.4215 -0.2314
 1391TIP3   OH225587   0.314   3.405  11.986 -0.7376  0.1223 -0.0171
 1391TIP3    H125588   0.399   3.362  11.976 -0.9088 -0.1378 -0.3945
 1391TIP3    H225589   0.329   3.473  12.052  0.1921  1.2167 -1.2852
 1392TIP3   OH225590   4.326   4.629  16.671 -0.1381 -0.0810  0.4006
 1392TIP3    H125591   4.379   4.592  16.600 -0.0153  2.1915 -0.7887
 1392TIP3    H225592   4.271   4.694  16.627 -0.6954  0.7753  2.2992
 1393TIP3   OH225593   1.875   2.951  16.066  0.2291  0.1081  0.9549
 1393TIP3    H125594   1.815   2.983  15.999 -0.2489 -1.7111  0.4548
 1393TIP3    H225595   1.933   3.025  16.083  0.0776  0.7757 -1.1230
 1394TIP3   OH225596   2.458   0.459  15.079  0.3899 -0.2462 -0.0890
 1394TIP3    H125597   2.392   0.527  15.064 -0.2735 -1.1349 -1.3856
 1394TIP3    H225598   2.542   0.505  15.075 -0.0728  0.6035 -0.2632
 1395TIP3   OH225599   6.670   5.356   5.451  0.2912  0.6084 -0.1027
 1395TIP3    H125600   6.604   5.385   5.514  0.8306  1.7346 -0.0315
 1395TIP3    H225601   6.734   5.427   5.449  1.0543 -0.0815 -0.8149
 1396TIP3   OH225602   3.221   4.518   4.464 -0.0812  0.3853  0.0274
 1396TIP3    H125603   3.271   4.590   4.502 -1.4959  0.3665  2.0418
 1396TIP3    H225604   3.241   4.442   4.519  2.1036 -1.1237 -2.5817
 1397TIP3   OH225605   0.927   3.162  14.960  0.2052  0.0003  0.5050
 1397TIP3    H125606   0.885   3.100  14.900 -0.1011  0.5876  0.1039
 1397TIP3    H225607   0.963   3.107  15.029  0.0993 -0.6423  0.0592
 1398TIP3   OH225608   4.014   4.003  10.926  0.3201  0.0339 -0.5682
 1398TIP3    H125609   3.933   4.027  10.882  0.4472 -0.0525 -0.8530
 1398TIP3    H225610   3.990   3.995  11.018  0.7189  3.6131 -0.0159
 1399TIP3   OH225611   1.939   0.646  15.728  0.2593 -0.2989 -0.1390
 1399TIP3    H125612   1.975   0.702  15.797  1.1208 -2.2418  1.0745
 1399TIP3    H225613   1.909   0.568  15.774 -0.9636 -0.8355 -1.7620
 1400TIP3   OH225614   0.501   2.318  17.015  0.0746 -0.4630  0.1263
 1400TIP3    H125615   0.571   2.264  17.051 -1.6881 -0.9958  3.0371
 1400TIP3    H225616   0.547   2.389  16.969  2.5006 -1.1494  1.3175
 1401TIP3   OH225617   1.449   0.720   1.116  0.5372 -0.1031  0.3863
 1401TIP3    H125618   1.510   0.655   1.152  0.2632 -0.8139 -0.3999
 1401TIP3    H225619   1.386   0.668   1.066  0.3646  0.7804 -0.3294
 1402TIP3   OH225620   2.643   2.825   0.431 -1.1111  0.2072 -0.0152
 1402TIP3    H125621   2.589   2.820   0.509 -1.8767  0.4698 -0.5105
 1402TIP3    H225622   2.700   2.748   0.435 -2.4221 -0.7981 -0.1339
 1403TIP3   OH225623   0.293   0.858   1.754  0.4860  0.2425 -0.1660
 1403TIP3    H125624   0.256   0.782   1.708  0.7121  0.4598 -0.7131
 1403TIP3    H225625   0.372   0.824   1.796  1.1120  0.3860 -1.2025
 1404TIP3   OH225626   0.914   4.874   2.783 -0.3969 -0.1598 -0.4684
 1404TIP3    H125627   0.988   4.819   2.759  1.4287  2.3790 -1.0757
 1404TIP3    H225628   0.913   4.872   2.879 -0.1283 -0.9147 -0.4768
 1405TIP3   OH225629   5.110   3.666  11.886  0.2549  0.3261 -0.5347
 1405TIP3    H125630   5.047   3.721  11.840  0.0996 -0.1372 -0.8814
 1405TIP3    H225631   5.143   3.606  11.819  0.0293 -0.3592 -0.0477
 1406TIP3   OH225632   0.063   2.562   1.614  0.7716  0.4791 -0.0648
 1406TIP3    H125633   0.077   2.653   1.587  1.2836  0.3218 -0.3476
 1406TIP3    H225634   0.115   2.510   1.552 -1.5842 -0.2095 -1.6112
 1407TIP3   OH225635   1.954   6.015   4.358 -0.0566 -0.3359 -0.1660
 1407TIP3    H125636   1.984   5.966   4.435  1.5535 -0.5594 -0.8991
 1407TIP3    H225637   2.005   5.979   4.286 -1.3442  0.0687 -1.3002
 1408TIP3   OH225638   3.134   0.482  14.393 -0.3271 -0.0674  0.1028
 1408TIP3    H125639   3.089   0.537  14.457  1.1339  1.1917  0.1214
 1408TIP3    H225640   3.130   0.394  14.429 -1.5867  0.2321  0.7365
 1409TIP3   OH225641   4.523   6.497  11.762  0.3748  0.0720  0.3014
 1409TIP3    H125642   4.533   6.587  11.731 -2.1077  0.0533 -0.7827
 1409TIP3    H225643   4.533   6.443  11.683  3.0420 -0.8039  1.1161
 1410TIP3   OH225644   5.827   2.591   6.247 -0.0285  0.2992  0.3664
 1410TIP3    H125645   5.909   2.590   6.296  0.6497  1.8855 -0.6619
 1410TIP3    H225646   5.765   2.636   6.305  0.3547  0.8315  0.3642
 1411TIP3   OH225647   3.025   4.702   3.436 -0.1682  0.1183 -0.0799
 1411TIP3    H125648   3.095   4.756   3.473  0.3032 -0.5884  0.0950
 1411TIP3    H225649   3.030   4.620   3.486 -1.2088  0.1050  0.0106
 1412TIP3   OH225650   5.464   3.035  11.801 -0.2835  0.0138 -0.8028
 1412TIP3    H125651   5.525   3.021  11.729  0.3082 -2.5085  0.1160
 1412TIP3    H225652   5.492   3.118  11.840  0.2690  0.6994 -2.5463
 1413TIP3   OH225653   6.013   3.151   6.442 -0.6524 -0.2144  0.1279
 1413TIP3    H125654   5.961   3.151   6.362 -1.0648  0.1302  0.3895
 1413TIP3    H225655   5.962   3.203   6.504 -0.1378 -0.1277  0.4873
 1414TIP3   OH225656   0.055   1.395   4.990 -0.0610  0.3625 -0.0021
 1414TIP3    H125657   0.044   1.321   4.930 -0.4695 -0.3400  0.9230
 1414TIP3    H225658   0.090   1.356   5.070 -0.3516  1.1542  0.5194
 1415TIP3   OH225659   4.524   5.114  16.530  0.2506 -0.2362  0.1279
 1415TIP3    H125660   4.539   5.080  16.442  0.1735  0.5006 -0.1817
 1415TIP3    H225661   4.428   5.113  16.539  0.1782  0.8221 -0.2831
 1416TIP3   OH225662   4.955   5.248  14.825 -0.5940 -0.1534 -0.4606
 1416TIP3    H125663   4.983   5.227  14.914  0.2946 -1.2601 -0.9682
 1416TIP3    H225664   4.926   5.339  14.830  1.5918  0.5709  0.4998
 1417TIP3   OH225665   2.635   2.327  12.446 -0.1219  0.1071  0.6213
 1417TIP3    H125666   2.552   2.310  12.491 -0.0611 -1.7920  0.0962
 1417TIP3    H225667   2.643   2.256  12.382  0.5066  1.8810 -1.4144
 1418TIP3   OH225668   2.686   2.396  15.367  0.0592 -0.1640  0.7337
 1418TIP3    H125669   2.596   2.391  15.401  0.0533  0.3069  0.7899
 1418TIP3    H225670   2.739   2.416  15.443  0.2270 -0.5475  0.7186
 1419TIP3   OH225671   0.290   2.307  12.159  0.4922  0.0094 -0.3931
 1419TIP3    H125672   0.279   2.212  12.153  0.7139  0.0084 -0.9209
 1419TIP3    H225673   0.236   2.333  12.233  1.4840 -0.7029  0.6289
 1420TIP3   OH225674   3.377   6.509   1.726 -0.0265  0.0331 -0.7712
 1420TIP3    H125675   3.328   6.502   1.809  0.8533 -0.9067 -0.3152
 1420TIP3    H225676   3.310   6.507   1.658 -0.6652 -0.6033 -0.1330
 1421TIP3   OH225677   3.746   2.552   3.927 -0.5842 -0.2571  0.2740
 1421TIP3    H125678   3.828   2.585   3.964 -1.3654  1.5276  0.5523
 1421TIP3    H225679   3.767   2.466   3.893  1.9349  0.9278 -1.4904
 1422TIP3   OH225680   1.800   5.302  14.687  0.2522 -0.0409  0.1812
 1422TIP3    H125681   1.758   5.282  14.770  2.0834 -1.2865  0.8742
 1422TIP3    H225682   1.892   5.318  14.709  0.7371 -0.1417 -1.5646
 1423TIP3   OH225683   3.782   3.005   4.852 -0.4472 -0.1177  0.3110
 1423TIP3    H125684   3.827   3.028   4.771 -0.9813  1.2996  0.3992
 1423TIP3    H225685   3.814   2.917   4.873 -1.2804 -1.1017 -2.1461
 1424TIP3   OH225686   5.666   2.709   2.800 -0.9091 -0.9354  0.2212
 1424TIP3    H125687   5.643   2.733   2.890 -1.0623  0.5902 -0.1950
 1424TIP3    H225688   5.762   2.702   2.802 -0.9613 -1.6293  0.6558
 1425TIP3   OH225689   3.678   6.615  12.248  0.3377  0.2974 -0.2931
 1425TIP3    H125690   3.696   6.594  12.339 -2.0847  1.9147  0.6610
 1425TIP3    H225691   3.633   6.699  12.251  0.4077  0.5155 -3.0102
 1426TIP3   OH225692   4.996   0.074   0.835 -0.5393 -0.0204 -0.2775
 1426TIP3    H125693   5.080   0.070   0.881  0.1150 -1.0354 -1.5046
 1426TIP3    H225694   5.001   0.155   0.784 -0.9356  0.6818  0.7489
 1427TIP3   OH225695   3.849   1.696  13.372  0.2364  0.3444  0.7674
 1427TIP3    H125696   3.766   1.676  13.328 -0.6460  1.5225  1.8116
 1427TIP3    H225697   3.880   1.611  13.403 -1.6001  0.0455  2.0207
 1428TIP3   OH225698   0.048   3.841  15.321  0.0381 -0.2129 -0.4013
 1428TIP3    H125699  -0.037   3.827  15.279  0.8296 -0.5194 -2.0239
 1428TIP3    H225700   0.029   3.842  15.414 -1.8239  0.3287 -0.7319
 1429TIP3   OH225701   2.435   0.939  12.023  0.7427  0.8242 -0.5008
 1429TIP3    H125702   2.517   0.892  12.006 -0.5385 -0.6169 -3.3617
 1429TIP3    H225703   2.434   1.008  11.958 -0.7298  0.1997 -1.1799
 1430TIP3   OH225704   6.267   6.310  15.754  0.5256 -0.0298 -0.0309
 1430TIP3    H125705   6.213   6.358  15.816  2.0145  1.1256  0.4154
 1430TIP3    H225706   6.223   6.225  15.746 -2.5605  1.5136 -1.3580
 1431TIP3   OH225707   3.588   0.354  16.137 -0.8418  0.1561  0.6745
 1431TIP3    H125708   3.502   0.329  16.103 -0.7952  0.7547  0.0924
 1431TIP3    H225709   3.645   0.353  16.061 -0.6702  1.2348  0.7729
 1432TIP3   OH225710   0.117   6.516   0.445 -0.0815  0.0983 -0.1032
 1432TIP3    H125711   0.142   6.569   0.521  0.6679 -0.2042 -0.1308
 1432TIP3    H225712   0.198   6.472   0.419 -0.1759  0.6801 -1.4623
 1433TIP3   OH225713   2.918   4.808  10.801 -0.0528 -0.2109 -0.0936
 1433TIP3    H125714   2.932   4.892  10.843  0.4433 -0.1876 -0.2998
 1433TIP3    H225715   2.963   4.815  10.717  1.7128 -1.3552  0.7007
 1434TIP3   OH225716   5.097   4.065  14.056  0.4043 -0.0761  0.5779
 1434TIP3    H125717   5.040   4.116  13.998  0.9294 -0.1787 -0.0419
 1434TIP3    H225718   5.075   4.095  14.144 -1.0004 -0.5035  0.3994
 1435TIP3   OH225719   4.572   2.069  13.818  0.1815 -0.1129 -0.0892
 1435TIP3    H125720   4.486   2.028  13.832 -0.5169  0.3919 -2.3931
 1435TIP3    H225721   4.561   2.158  13.850 -0.0239 -0.1774  0.0237
 1436TIP3   OH225722   3.342   3.529   4.124  0.9831 -0.0569 -0.2626
 1436TIP3    H125723   3.392   3.604   4.156 -1.3158  1.2301  0.5680
 1436TIP3    H225724   3.306   3.489   4.202  0.8917 -1.0922 -0.8183
 1437TIP3   OH225725   3.913   1.052  15.311  0.3582 -0.1964  0.0639
 1437TIP3    H125726   3.976   1.015  15.248 -0.9723  0.3674 -1.6994
 1437TIP3    H225727   3.965   1.110  15.366  1.7045 -1.2320 -0.0578
 1438TIP3   OH225728   3.100   3.711   4.073  0.0804 -0.1814 -0.0722
 1438TIP3    H125729   3.191   3.680   4.068  0.2661  0.1763  0.8404
 1438TIP3    H225730   3.063   3.663   4.147 -0.0419  0.7254  0.4649
 1439TIP3   OH225731   2.327   6.483  16.362 -0.0846  0.0579  0.3446
 1439TIP3    H125732   2.276   6.556  16.327  2.4391  0.9269 -1.9091
 1439TIP3    H225733   2.298   6.407  16.311 -0.9875 -0.0165  0.9613
 1440TIP3   OH225734   0.072   4.682   0.010  0.0169 -0.0854  0.1317
 1440TIP3    H125735   0.024   4.742   0.067 -3.1118 -1.3728 -0.8792
 1440TIP3    H225736   0.102   4.736  -0.063 -1.8202  0.4945 -0.2434
 1441TIP3   OH225737   5.043   0.705   2.467 -0.2954  0.6380  0.0191
 1441TIP3    H125738   4.983   0.779   2.474 -2.7916 -0.9812 -2.3399
 1441TIP3    H225739   4.987   0.628   2.471  1.7648 -1.0226 -1.1642
 1442TIP3   OH225740   2.864   0.173  17.157 -0.0967 -0.1856 -0.0331
 1442TIP3    H125741   2.916   0.252  17.147  2.4360 -1.8965 -1.8001
 1442TIP3    H225742   2.912   0.120  17.221 -0.2937 -1.2952 -0.7617
 1443TIP3   OH225743   3.792   2.636   5.399 -0.3941 -0.1242 -0.0763
 1443TIP3    H125744   3.712   2.586   5.413 -0.7713  0.6361  0.5240
 1443TIP3    H225745   3.805   2.633   5.304 -0.2223 -1.6159 -0.0351
 1444TIP3   OH225746   6.142   6.481   3.780  0.6002  0.0896 -0.3872
 1444TIP3    H125747   6.117   6.402   3.827  1.2175  0.1849  0.1060
 1444TIP3    H225748   6.192   6.532   3.844 -1.1050  1.6039 -0.1785
 1445TIP3   OH225749   5.130   5.505  13.575  0.2128  0.4937 -0.0719
 1445TIP3    H125750   5.067   5.433  13.574  1.2794 -0.5014  1.0100
 1445TIP3    H225751   5.077   5.583  13.588 -0.8563 -0.2279  0.0458
 1446TIP3   OH225752   0.101   1.286  12.243  0.6004 -0.0973  0.0014
 1446TIP3    H125753   0.021   1.249  12.281  0.7939 -0.9298 -0.3611
 1446TIP3    H225754   0.073   1.316  12.156  0.5058  0.3519  0.1865
 1447TIP3   OH225755   3.346   6.291   6.260  0.2767 -0.0568  0.0902
 1447TIP3    H125756   3.330   6.385   6.265 -0.9641 -0.3201  2.9713
 1447TIP3    H225757   3.370   6.266   6.349 -1.8393 -2.8056  0.0295
 1448TIP3   OH225758   5.477   4.511   1.742  0.5824  0.3341 -0.8831
 1448TIP3    H125759   5.545   4.566   1.703 -0.8614  0.6748 -3.1061
 1448TIP3    H225760   5.417   4.492   1.670 -1.9446  0.4393  1.0406
 1449TIP3   OH225761   3.827   2.955   5.308  0.2779  0.7852  1.1936
 1449TIP3    H125762   3.777   2.901   5.247 -0.7032  1.8233  1.0381
 1449TIP3    H225763   3.865   3.024   5.253  1.1940  0.4923  1.4414
 1450TIP3   OH225764   4.200   4.241   1.958  0.1594  0.4321 -0.4522
 1450TIP3    H125765   4.136   4.228   2.028 -1.0369  0.4282 -1.4889
 1450TIP3    H225766   4.276   4.189   1.984 -1.1023 -1.3840 -0.2021
 1451TIP3   OH225767   4.873   3.625   4.244  0.3678  0.8566 -0.6491
 1451TIP3    H125768   4.863   3.614   4.338 -1.6457 -0.6933 -0.9902
 1451TIP3    H225769   4.965   3.604   4.227  0.8216  1.3932  0.9692
 1452TIP3   OH225770   1.751   0.249  16.198 -0.0643 -0.1323  0.2065
 1452TIP3    H125771   1.722   0.263  16.289  0.8465  0.8854  0.3637
 1452TIP3    H225772   1.702   0.172  16.169 -2.3402  1.0384  0.6867
 1453TIP3   OH225773   2.346   4.902  13.355 -0.4507  0.2791  0.3664
 1453TIP3    H125774   2.339   4.946  13.270  1.4125  0.4783  0.2619
 1453TIP3    H225775   2.319   4.968  13.418  0.8733  1.1359  0.0939
 1454TIP3   OH225776   2.228   1.732   1.663 -0.8218 -0.5985  0.0434
 1454TIP3    H125777   2.290   1.660   1.671 -0.7245 -0.4544  0.6236
 1454TIP3    H225778   2.273   1.797   1.610 -1.9503 -2.0974 -2.9525
 1455TIP3   OH225779   1.422   2.750   5.451 -0.2395 -0.4525 -0.2672
 1455TIP3    H125780   1.495   2.700   5.417  0.4324  1.2968 -1.4916
 1455TIP3    H225781   1.363   2.762   5.377  0.8964  2.7829 -0.7836
 1456TIP3   OH225782   4.871   5.786   5.452 -0.1202  0.4089  0.2266
 1456TIP3    H125783   4.948   5.752   5.497 -0.7585  0.4080  1.3750
 1456TIP3    H225784   4.822   5.708   5.426 -0.2787  0.4088  0.5120
 1457TIP3   OH225785   1.172   4.272   2.451  0.3920  0.1878  0.2487
 1457TIP3    H125786   1.191   4.199   2.392 -1.7633  2.4876 -3.7384
 1457TIP3    H225787   1.192   4.350   2.400  1.0828  2.5148  3.7080
 1458TIP3   OH225788   5.885   0.737   0.029  0.5898  0.8154  0.6212
 1458TIP3    H125789   5.948   0.777   0.089  1.1108  2.8148 -1.1263
 1458TIP3    H225790   5.800   0.753   0.069  0.9882  1.0293  1.3995
 1459TIP3   OH225791   3.605   4.012  11.492  0.1549 -0.7489 -0.3568
 1459TIP3    H125792   3.660   4.069  11.545  0.0167  0.4144 -1.4230
 1459TIP3    H225793   3.554   3.961  11.556  0.3062  0.2982  0.6257
 1460TIP3   OH225794   2.018   2.575   4.191  0.3044  0.8671 -0.1355
 1460TIP3    H125795   2.000   2.659   4.234 -2.1102  0.8314 -0.8981
 1460TIP3    H225796   2.050   2.518   4.261 -1.3035  1.4759  1.1729
 1461TIP3   OH225797   2.894   4.188  12.555  0.0382 -0.1200 -0.3784
 1461TIP3    H125798   2.970   4.135  12.583  0.1497 -0.0466 -0.5392
 1461TIP3    H225799   2.855   4.219  12.636 -2.4186 -3.6799  0.0621
 1462TIP3   OH225800   6.639   0.330  14.468 -0.2817 -0.0068  0.5917
 1462TIP3    H125801   6.641   0.336  14.564  0.4724 -0.5208  0.6128
 1462TIP3    H225802   6.653   0.420  14.438 -2.4803  0.5112  0.9559
 1463TIP3   OH225803   4.935   4.802   4.280 -0.9230 -0.3934  0.2907
 1463TIP3    H125804   4.851   4.763   4.306 -1.3228 -0.3196 -0.8526
 1463TIP3    H225805   4.966   4.746   4.209 -1.8618  1.7220 -1.9113
 1464TIP3   OH225806   6.122   2.722  16.741  0.0436  0.0879 -0.2349
 1464TIP3    H125807   6.113   2.795  16.680 -1.2205  0.8817  0.8525
 1464TIP3    H225808   6.217   2.713  16.752  0.6360 -2.2290 -4.7207
 1465TIP3   OH225809   1.931   5.600   4.854 -0.1246  0.5084 -0.2980
 1465TIP3    H125810   1.883   5.666   4.804 -1.0155  0.8263  0.9279
 1465TIP3    H225811   1.913   5.518   4.809  0.7922  1.0469 -1.6957
 1466TIP3   OH225812   0.750   6.196   6.271 -0.2630 -0.2749  0.3808
 1466TIP3    H125813   0.670   6.247   6.271 -0.3663 -0.4320  0.1085
 1466TIP3    H225814   0.784   6.203   6.360  0.1028  0.8483  0.1674
 1467TIP3   OH225815   1.196   2.852  12.391 -0.1885 -0.4839  0.1473
 1467TIP3    H125816   1.128   2.826  12.452 -1.7415 -0.2496 -1.4096
 1467TIP3    H225817   1.228   2.769  12.354 -0.8049 -0.5112 -0.3292
 1468TIP3   OH225818   4.795   6.172  13.343  0.1956 -0.0983  0.2890
 1468TIP3    H125819   4.788   6.225  13.422  0.3122  0.2431  0.0735
 1468TIP3    H225820   4.725   6.205  13.285  0.8823  0.4895 -0.2276
 1469TIP3   OH225821   5.665   6.003   0.848  0.3812 -0.3765  0.2369
 1469TIP3    H125822   5.734   5.993   0.782 -0.5758  0.8455 -1.0258
 1469TIP3    H225823   5.703   6.059   0.915  0.8483 -0.2779 -0.1052
 1470TIP3   OH225824   1.062   3.846  11.983 -0.2950  0.3491 -0.1172
 1470TIP3    H125825   1.071   3.909  11.912  1.1781  0.4953  0.1713
 1470TIP3    H225826   1.139   3.860  12.038 -0.2749 -1.2537  0.3172
 1471TIP3   OH225827   4.853   1.456  12.789 -0.0776 -0.0806  0.2264
 1471TIP3    H125828   4.866   1.506  12.709  0.0634 -1.7147 -0.8104
 1471TIP3    H225829   4.846   1.365  12.760 -1.7136 -0.5555  1.8916
 1472TIP3   OH225830   2.231   5.532  16.813 -0.3942  0.0930 -0.0568
 1472TIP3    H125831   2.193   5.459  16.765 -0.6194 -0.8947  1.5330
 1472TIP3    H225832   2.241   5.601  16.748 -1.0336 -1.0325 -1.4121
 1473TIP3   OH225833   5.592   0.047   6.152 -0.7776 -0.2132 -0.1832
 1473TIP3    H125834   5.670   0.040   6.208 -0.6834  0.8477 -0.1727
 1473TIP3    H225835   5.520   0.016   6.208 -0.8540  1.7979  0.9404
 1474TIP3   OH225836   0.141   3.719  13.358 -0.3733  0.0678  0.4250
 1474TIP3    H125837   0.215   3.749  13.412  1.3383 -0.5453 -1.4716
 1474TIP3    H225838   0.101   3.649  13.410 -0.2918  1.0979  1.9448
 1475TIP3   OH225839   4.965   2.809   2.231  0.0105 -0.2473 -0.1827
 1475TIP3    H125840   4.951   2.795   2.324  1.2825 -0.1626  0.0294
 1475TIP3    H225841   4.878   2.832   2.197 -0.2355  1.0121  1.2128
 1476TIP3   OH225842   2.843   4.197   4.912 -0.0981  0.0262 -0.0675
 1476TIP3    H125843   2.860   4.265   4.977 -1.2905 -0.0761  0.3788
 1476TIP3    H225844   2.897   4.123   4.941 -0.1914  0.1706  0.4961
 1477TIP3   OH225845   2.918   0.235   2.061  0.0506  0.3974 -0.1147
 1477TIP3    H125846   3.010   0.219   2.079 -0.1151  0.9861  1.4749
 1477TIP3    H225847   2.873   0.161   2.102 -0.1278 -0.8502 -2.4296
 1478TIP3   OH225848   0.265   5.555   5.236  0.2137 -0.0754  0.5584
 1478TIP3    H125849   0.223   5.553   5.322 -2.6050  3.2312 -0.5387
 1478TIP3    H225850   0.271   5.648   5.214  0.6301 -0.7848 -2.9301
 1479TIP3   OH225851   5.437   4.799   1.411 -0.1604 -0.6891 -0.4094
 1479TIP3    H125852   5.368   4.760   1.464  0.3750 -0.0913  0.7546
 1479TIP3    H225853   5.469   4.727   1.356 -0.4435 -1.4224  0.3696
 1480TIP3   OH225854   4.774   0.799   5.063  0.0691 -0.1629 -0.3004
 1480TIP3    H125855   4.725   0.875   5.095  0.4251 -1.0933  2.8633
 1480TIP3    H225856   4.866   0.821   5.081  0.3266 -0.6619 -0.9649
 1481TIP3   OH225857   5.126   3.001  13.962  0.2368  0.2387 -0.3392
 1481TIP3    H125858   5.053   2.985  13.902  0.2842  0.3801 -0.4318
 1481TIP3    H225859   5.195   2.942  13.933  0.4137  0.6136 -0.6869
 1482TIP3   OH225860   6.291   1.482   5.207 -0.2687 -0.0888  0.4391
 1482TIP3    H125861   6.363   1.525   5.253  0.0164  0.7156 -0.7275
 1482TIP3    H225862   6.213   1.528   5.237 -0.1428  0.0507  0.5581
 1483TIP3   OH225863   5.739   4.888   1.955 -0.0532  0.1722  0.4999
 1483TIP3    H125864   5.770   4.973   1.924  1.0107 -0.6807 -0.8885
 1483TIP3    H225865   5.687   4.909   2.033 -2.2601  2.3786 -1.3741
 1484TIP3   OH225866   6.008   3.437   1.586  0.8509  1.1194  0.0450
 1484TIP3    H125867   6.034   3.387   1.508  0.2840  2.3387 -0.9538
 1484TIP3    H225868   5.914   3.447   1.578  0.7214  0.9410  1.1148
 1485TIP3   OH225869   2.540   4.196  17.008 -0.6634 -0.0983 -0.3798
 1485TIP3    H125870   2.624   4.223  16.971  0.2142 -1.9673  0.1289
 1485TIP3    H225871   2.536   4.102  16.993 -2.6581 -0.0754 -0.3175
 1486TIP3   OH225872   3.386   2.064  12.882  0.0650  0.2791  0.3397
 1486TIP3    H125873   3.360   2.109  12.801 -0.8919  1.3486  1.1999
 1486TIP3    H225874   3.416   2.135  12.939  1.9798 -0.6039  0.4789
 1487TIP3   OH225875   2.850   0.636   3.066  0.7809 -0.3724  0.2319
 1487TIP3    H125876   2.825   0.588   3.144 -0.5028 -0.9983 -0.5458
 1487TIP3    H225877   2.917   0.582   3.024 -0.0387 -1.0809 -0.1862
 1488TIP3   OH225878   6.166   5.323  14.654 -0.2915 -0.3755 -0.5815
 1488TIP3    H125879   6.257   5.330  14.685  0.4303 -2.7582 -1.8882
 1488TIP3    H225880   6.165   5.372  14.572 -0.7732  1.3625  0.4205
 1489TIP3   OH225881   0.085   0.104  16.822 -0.0057  0.2390 -0.0280
 1489TIP3    H125882   0.176   0.087  16.846  0.1741  2.5080  1.1386
 1489TIP3    H225883   0.047   0.017  16.808  1.4666 -0.9745  2.7316
 1490TIP3   OH225884   6.707   1.375   1.743 -0.5126 -0.1707 -0.5682
 1490TIP3    H125885   6.635   1.385   1.681 -0.6696  0.1987 -0.3325
 1490TIP3    H225886   6.664   1.357   1.827 -0.3237 -0.1110 -0.4572
 1491TIP3   OH225887   2.821   2.309   2.618 -0.5772  0.4547  0.4159
 1491TIP3    H125888   2.816   2.242   2.550 -0.1674  2.3147 -1.5584
 1491TIP3    H225889   2.731   2.321   2.647 -1.0259  0.8127 -1.0544
 1492TIP3   OH225890   0.775   5.983   3.126  0.2814 -0.1572  0.4421
 1492TIP3    H125891   0.791   5.943   3.211 -1.3820 -2.0730 -0.0645
 1492TIP3    H225892   0.852   5.961   3.073 -0.0903 -1.7937  0.5277
 1493TIP3   OH225893   0.509   5.379  14.251 -0.5893  0.0675  0.1588
 1493TIP3    H125894   0.513   5.315  14.181  0.8963 -1.8918  1.9128
 1493TIP3    H225895   0.434   5.351  14.305  0.2920 -0.5030  1.1368
 1494TIP3   OH225896   5.126   0.969   4.034  0.1532  0.6635 -0.1373
 1494TIP3    H125897   5.089   0.886   4.002  0.7085 -0.1943  1.3658
 1494TIP3    H225898   5.062   1.001   4.097  0.7877  0.4364  0.6369
 1495TIP3   OH225899   4.021   4.328   3.166  0.5345 -0.8885  0.3627
 1495TIP3    H125900   3.987   4.252   3.119  0.1319 -1.4157  1.4803
 1495TIP3    H225901   4.026   4.397   3.099 -0.6182 -1.4325 -0.3134
 1496TIP3   OH225902   3.723   6.313  11.993 -0.3965 -0.3609  0.0129
 1496TIP3    H125903   3.710   6.221  11.968 -3.6757 -0.1933  0.7637
 1496TIP3    H225904   3.695   6.317  12.084 -0.3479  1.4098 -0.0307
 1497TIP3   OH225905   6.564   0.611   5.043  0.2077 -0.6031  0.7598
 1497TIP3    H125906   6.636   0.667   5.074 -0.7254  1.5578 -0.7162
 1497TIP3    H225907   6.530   0.657   4.967 -1.6899 -2.4334  0.4342
 1498TIP3   OH225908   4.618   3.949   2.423 -0.3796 -0.2152  0.1849
 1498TIP3    H125909   4.612   3.931   2.516 -0.0328 -1.8989 -0.0864
 1498TIP3    H225910   4.538   3.997   2.402 -2.7710 -3.6586  0.5664
 1499TIP3   OH225911   2.339   6.213  16.923 -0.2714 -0.1310  0.3093
 1499TIP3    H125912   2.300   6.128  16.945 -0.3329  0.1872  1.4962
 1499TIP3    H225913   2.432   6.193  16.909 -0.3718 -0.4694  0.1067
 1500TIP3   OH225914   2.488   3.420  14.876 -0.0617  0.5686 -0.2704
 1500TIP3    H125915   2.435   3.392  14.802 -0.6596 -0.3160  0.4694
 1500TIP3    H225916   2.475   3.515  14.880 -0.5596  0.5342 -0.8815
 1501TIP3   OH225917   0.040   2.334   1.167  0.2677  0.5051  0.5377
 1501TIP3    H125918   0.024   2.241   1.186 -0.6525  0.2697 -1.1668
 1501TIP3    H225919   0.010   2.380   1.246  0.1481 -0.5974  1.1608
 1502TIP3   OH225920   0.111   4.715   0.367  0.0021 -0.2861 -0.0923
 1502TIP3    H125921   0.141   4.695   0.456 -1.0883  2.3764  0.9891
 1502TIP3    H225922   0.189   4.748   0.322  0.3433 -0.6981  0.1893
 1503TIP3   OH225923   6.035   6.245   4.564  0.0549  0.4353 -0.6522
 1503TIP3    H125924   5.993   6.173   4.518  2.7746 -0.5683 -1.7747
 1503TIP3    H225925   6.108   6.204   4.610 -0.9143  1.8559  2.3925
 1504TIP3   OH225926   0.163   4.580   4.615  0.2527  0.0978 -0.1625
 1504TIP3    H125927   0.237   4.546   4.664  1.6144  0.9411 -1.5324
 1504TIP3    H225928   0.156   4.523   4.539 -0.8139 -0.2538  0.1880
 1505TIP3   OH225929   1.444   2.422  12.994 -0.0970  0.6210 -0.1464
 1505TIP3    H125930   1.449   2.407  12.900 -0.6643  1.5568 -0.3413
 1505TIP3    H225931   1.533   2.449  13.019  0.3460 -0.7243 -0.1901
 1506TIP3   OH225932   2.426   3.524   2.104  0.3279  0.1111  0.2909
 1506TIP3    H125933   2.414   3.601   2.160  0.6986  0.6296 -0.3287
 1506TIP3    H225934   2.413   3.557   2.015 -0.3868 -0.7269  0.0630
 1507TIP3   OH225935   0.760   2.113  15.930 -0.1930  0.7248 -0.8207
 1507TIP3    H125936   0.726   2.027  15.957 -0.9898  2.0591  3.1274
 1507TIP3    H225937   0.843   2.122  15.976 -0.8673  2.5938  0.1737
 1508TIP3   OH225938   3.117   0.235   5.432  0.2497  0.8562 -0.6158
 1508TIP3    H125939   3.068   0.265   5.355  0.8132  2.0986 -0.5085
 1508TIP3    H225940   3.204   0.274   5.422  0.4779  0.6446  0.4113
 1509TIP3   OH225941   1.979   3.854  14.631 -0.3448  0.1810 -0.3801
 1509TIP3    H125942   2.068   3.872  14.660 -0.8131  1.7994  0.1304
 1509TIP3    H225943   1.989   3.819  14.543  0.7399  2.1322 -1.0913
 1510TIP3   OH225944   5.093   0.789   5.790  0.4906  0.2597  0.0509
 1510TIP3    H125945   5.022   0.740   5.831  0.6889 -1.8147 -1.8956
 1510TIP3    H225946   5.122   0.851   5.857 -1.0222 -1.0170  1.9859
 1511TIP3   OH225947   5.098   1.564  13.048  0.1677  0.1730  0.1016
 1511TIP3    H125948   5.069   1.530  13.133 -1.0048  1.6015  0.3167
 1511TIP3    H225949   5.017   1.587  13.003  0.6909 -1.5096 -1.8765
 1512TIP3   OH225950   0.225   5.903   0.160 -0.5722  0.2398 -0.0755
 1512TIP3    H125951   0.296   5.843   0.137 -1.6879 -1.1485 -0.0713
 1512TIP3    H225952   0.261   5.957   0.231  0.5119 -0.3415 -0.1581
 1513TIP3   OH225953   0.274   1.861   1.036 -0.2985 -0.0643 -0.0288
 1513TIP3    H125954   0.221   1.783   1.054  2.3092 -1.4590  2.4170
 1513TIP3    H225955   0.340   1.832   0.974 -1.1404  1.1176 -1.5363
 1514TIP3   OH225956   4.067   6.743   1.601 -0.5749  0.1416 -0.7399
 1514TIP3    H125957   4.091   6.671   1.543  1.1780  0.9871 -1.1515
 1514TIP3    H225958   3.972   6.741   1.604 -0.5912 -1.9904 -0.9739
 1515TIP3   OH225959   3.393   5.853   1.989 -0.0199  0.1925  0.1856
 1515TIP3    H125960   3.332   5.786   2.019 -1.0466  0.7874 -0.5065
 1515TIP3    H225961   3.343   5.905   1.926  1.2206  0.6673 -0.4517
 1516TIP3   OH225962   5.447   5.051  15.592 -0.5575  0.2177 -0.3761
 1516TIP3    H125963   5.371   5.042  15.649 -0.9744 -0.8976 -1.0607
 1516TIP3    H225964   5.521   5.060  15.652 -0.9705 -1.0332  0.3658
 1517TIP3   OH225965   6.140   4.753  11.629  0.2486  0.0520  0.3127
 1517TIP3    H125966   6.047   4.774  11.619  0.2351  0.7596  1.7001
 1517TIP3    H225967   6.185   4.835  11.605  0.6401 -0.7173 -1.8436
 1518TIP3   OH225968   3.099   3.725   5.548 -0.2345 -0.0459 -0.4112
 1518TIP3    H125969   3.038   3.652   5.561  1.9620 -1.6761  1.5003
 1518TIP3    H225970   3.078   3.786   5.619  0.5941 -0.8174  0.5213
 1519TIP3   OH225971   6.634   0.128   3.202  0.1109  0.0031 -0.2615
 1519TIP3    H125972   6.626   0.223   3.188 -0.0079  0.0235 -0.0659
 1519TIP3    H225973   6.658   0.093   3.116 -1.2288  0.0552 -0.6902
 1520TIP3   OH225974   1.901   1.418  17.366 -0.2563 -0.5345  0.4076
 1520TIP3    H125975   1.891   1.323  17.374  0.8270 -0.7683 -0.8451
 1520TIP3    H225976   1.921   1.433  17.274 -0.7121  0.9517  0.5277
 1521TIP3   OH225977   0.186   6.053  11.631  0.4066 -0.0406  0.6437
 1521TIP3    H125978   0.152   5.969  11.660  0.2126 -0.2696 -0.2232
 1521TIP3    H225979   0.109   6.108  11.619  0.3029 -0.4858 -1.0810
 1522TIP3   OH225980   1.019   1.387  11.922  0.4825  0.2071 -0.1083
 1522TIP3    H125981   0.936   1.425  11.951 -1.8016 -1.0194 -4.1121
 1522TIP3    H225982   1.049   1.445  11.853  1.5466 -0.7283 -0.4653
 1523TIP3   OH225983   4.711   6.030  13.566 -0.1234 -0.2975  0.0212
 1523TIP3    H125984   4.697   6.113  13.612  0.8130 -0.2913  0.3251
 1523TIP3    H225985   4.734   6.055  13.477  0.1992 -0.2228  0.1234
 1524TIP3   OH225986   5.946   4.903   4.911 -0.0533 -0.0626 -0.4654
 1524TIP3    H125987   5.952   4.968   4.981  2.7879  0.5160 -1.1104
 1524TIP3    H225988   5.986   4.946   4.835  1.6453 -2.3756 -1.0068
 1525TIP3   OH225989   6.655   2.241   4.830  0.2893  0.4213  0.1863
 1525TIP3    H125990   6.644   2.336   4.828  2.3008  0.7116  0.3779
 1525TIP3    H225991   6.730   2.225   4.773  0.3343 -1.0007  0.6081
 1526TIP3   OH225992   3.798   6.643   1.864  0.3027  0.0202 -0.1362
 1526TIP3    H125993   3.888   6.611   1.855 -0.7829 -2.9412 -2.3804
 1526TIP3    H225994   3.786   6.702   1.789 -0.0170 -0.7840 -0.7332
 1527TIP3   OH225995   4.349   1.840   2.434  0.0640 -0.1485  0.2786
 1527TIP3    H125996   4.331   1.909   2.498  0.0041 -0.6333  0.7996
 1527TIP3    H225997   4.412   1.879   2.373 -0.7964  0.7217 -0.0735
 1528TIP3   OH225998   1.429   5.947  14.407  0.0057  0.2404  0.1933
 1528TIP3    H125999   1.370   5.874  14.425  2.0066 -1.1136  1.7274
 1528TIP3    H226000   1.380   6.025  14.433 -1.6948 -0.6395 -0.2131
 1529TIP3   OH226001   3.771   5.959  14.491  0.2868  0.8214  0.4900
 1529TIP3    H126002   3.755   5.904  14.414 -2.4800 -0.7622  2.0462
 1529TIP3    H226003   3.867   5.967  14.495  0.6006 -0.6520 -1.9948
 1530TIP3   OH226004   1.402   3.208   6.704  0.4730 -0.4638 -0.2779
 1530TIP3    H126005   1.447   3.208   6.789  0.3081  0.0228 -0.1857
 1530TIP3    H226006   1.350   3.128   6.704 -1.1844  0.5451  0.9841
 1531TIP3   OH226007   1.258   2.913   5.912  0.4488 -0.3286 -0.2656
 1531TIP3    H126008   1.191   2.954   5.857 -1.1716 -2.1863  0.2137
 1531TIP3    H226009   1.320   2.984   5.931 -1.8666  1.7612  0.0649
 1532TIP3   OH226010   1.844   0.813   1.621 -0.0780  0.4259  0.3717
 1532TIP3    H126011   1.750   0.810   1.637 -0.3184  0.1368 -0.9836
 1532TIP3    H226012   1.859   0.899   1.581  0.4485  0.9854  1.7086
 1533TIP3   OH226013   0.661   2.777   1.277 -0.0615  0.1818 -0.9460
 1533TIP3    H126014   0.639   2.853   1.222  0.5482 -1.1143 -3.1056
 1533TIP3    H226015   0.598   2.710   1.250 -0.3437 -0.2293  0.6525
 1534TIP3   OH226016   5.347   2.357   4.001 -0.3654  0.3202  0.6916
 1534TIP3    H126017   5.256   2.332   4.018 -1.4007  2.3051 -1.2117
 1534TIP3    H226018   5.382   2.382   4.086 -1.9143  0.3380  1.3531
 1535TIP3   OH226019   2.547   4.204  15.545 -0.3814 -0.0482 -0.0617
 1535TIP3    H126020   2.567   4.178  15.635 -0.5690 -0.9858 -0.2704
 1535TIP3    H226021   2.589   4.137  15.491 -0.5990  0.2840 -0.6572
 1536TIP3   OH226022   4.968   4.738   5.964  0.1057  0.4152  0.1470
 1536TIP3    H126023   5.038   4.707   5.907 -1.8334 -3.0656 -0.5853
 1536TIP3    H226024   5.001   4.722   6.052 -0.4572 -3.3281 -0.1865
 1537TIP3   OH226025   3.051   3.004   5.923 -0.1387 -0.4780  0.0410
 1537TIP3    H126026   3.048   3.060   6.001  1.4868  1.4088 -1.1347
 1537TIP3    H226027   3.099   2.926   5.951 -1.7804 -1.0217  1.5282
 1538TIP3   OH226028   2.109   0.774   2.478 -0.1811 -0.1788 -0.1095
 1538TIP3    H126029   2.115   0.856   2.430 -0.3959 -0.0849  0.0257
 1538TIP3    H226030   2.199   0.741   2.479 -0.1180 -0.0162 -0.2841
 1539TIP3   OH226031   5.526   0.049   5.164  0.1700 -0.5200  0.5360
 1539TIP3    H126032   5.577   0.129   5.177 -2.3439  1.3549 -0.5162
 1539TIP3    H226033   5.576  -0.000   5.098 -0.3063  2.2539 -2.1105
 1540TIP3   OH226034   5.702   0.371   3.293 -0.4022 -0.5176 -0.3085
 1540TIP3    H126035   5.729   0.283   3.267  0.5842  0.1099 -1.5243
 1540TIP3    H226036   5.731   0.427   3.221 -0.5038  0.8799  0.6976
 1541TIP3   OH226037   1.998   5.514   6.429  0.4799  0.4758  0.2793
 1541TIP3    H126038   2.076   5.567   6.420  1.8009 -0.9310  2.4807
 1541TIP3    H226039   1.953   5.550   6.506  0.1786 -0.1498  0.4024
 1542TIP3   OH226040   1.526   5.621   1.365  0.0418  0.1457 -0.8922
 1542TIP3    H126041   1.575   5.543   1.335  2.0986  0.2582  1.8118
 1542TIP3    H226042   1.537   5.684   1.294  1.2375 -0.9090 -1.7008
 1543TIP3   OH226043   0.475   6.511  11.201 -0.1993  0.6354 -0.0072
 1543TIP3    H126044   0.441   6.571  11.134  0.2867  1.9358  0.8712
 1543TIP3    H226045   0.465   6.424  11.162  2.0902  1.4295 -2.7513
 1544TIP3   OH226046   2.896   5.750   3.090 -0.0668  0.5047  0.1502
 1544TIP3    H126047   2.991   5.742   3.097  0.2525  2.0724 -1.4505
 1544TIP3    H226048   2.883   5.818   3.023 -2.3179  0.1949  0.1965
 1545TIP3   OH226049   6.056   3.588  16.366  0.0297 -0.1611 -0.1046
 1545TIP3    H126050   6.098   3.506  16.392  1.7628  0.8969  0.6208
 1545TIP3    H226051   6.094   3.609  16.281 -0.6115 -0.2443 -0.4136
 1546TIP3   OH226052   6.019   5.178  12.557 -0.2588  0.4750  0.2959
 1546TIP3    H126053   6.094   5.177  12.498 -0.9168  3.0995 -0.7285
 1546TIP3    H226054   5.947   5.142  12.506 -1.2439  4.2897 -1.3410
 1547TIP3   OH226055   3.399   0.137   6.881 -0.0253 -0.1601 -0.2832
 1547TIP3    H126056   3.349   0.067   6.838  1.8532 -0.6305 -1.8503
 1547TIP3    H226057   3.479   0.093   6.913  1.3793  1.2811 -1.6511
 1548TIP3   OH226058   3.819   0.045   3.996  0.7630  0.1134  0.7840
 1548TIP3    H126059   3.785   0.096   3.923 -0.4842 -2.1898 -0.3515
 1548TIP3    H226060   3.908   0.023   3.971 -0.4163 -2.7631 -1.3742
 1549TIP3   OH226061   6.504   2.093  17.004 -0.6513  0.1118 -0.4410
 1549TIP3    H126062   6.463   2.173  17.038  0.6832 -0.0063  1.6061
 1549TIP3    H226063   6.581   2.124  16.956 -1.7724  0.1846 -2.2970
 1550TIP3   OH226064   2.355   3.998  15.952  0.7289  0.2553  0.1034
 1550TIP3    H126065   2.346   4.038  16.039  1.2771  0.1444  0.2141
 1550TIP3    H226066   2.429   3.939  15.960  0.5175 -0.0755 -0.3292
 1551TIP3   OH226067   2.998   1.761  11.985 -0.3519 -0.4713  0.7863
 1551TIP3    H126068   3.049   1.841  11.977  0.1006 -0.8131  0.1993
 1551TIP3    H226069   3.063   1.692  11.998 -0.4463 -1.2212 -2.0638
 1552TIP3   OH226070   5.389   1.411  16.287  0.3657  0.1428  0.1501
 1552TIP3    H126071   5.312   1.356  16.277  0.0337  0.2326  1.8875
 1552TIP3    H226072   5.457   1.351  16.318  0.5155  0.3761  0.2735
 1553TIP3   OH226073   0.704   1.997   2.968  0.0223  0.3711 -0.0988
 1553TIP3    H126074   0.754   1.925   3.006 -1.3007 -1.1999 -1.1958
 1553TIP3    H226075   0.650   2.030   3.040 -1.9502 -2.1169 -0.3121
 1554TIP3   OH226076   6.662   0.489   2.201 -0.5602 -0.6391  0.5399
 1554TIP3    H126077   6.749   0.529   2.207 -1.6451  2.4095 -1.6353
 1554TIP3    H226078   6.671   0.406   2.248  3.2131 -0.0083  1.2835
 1555TIP3   OH226079   1.970   0.982   5.372 -0.4578 -0.3031  0.3418
 1555TIP3    H126080   1.924   0.997   5.454 -1.4772  2.5857 -0.6095
 1555TIP3    H226081   2.059   1.011   5.389 -0.7546  0.6322  0.3873
 1556TIP3   OH226082   4.295   1.128   3.029 -0.4059 -0.0933 -0.2968
 1556TIP3    H126083   4.389   1.126   3.043 -0.2253  0.4978 -1.3164
 1556TIP3    H226084   4.264   1.201   3.083 -0.3612 -0.5959  0.4223
 1557TIP3   OH226085   4.587   6.045  12.750 -0.0235  0.0799  0.1696
 1557TIP3    H126086   4.610   5.955  12.728  0.5096  0.3361 -0.3508
 1557TIP3    H226087   4.492   6.046  12.755  0.0207 -0.9535  2.0955
 1558TIP3   OH226088   5.423   3.998   4.834 -0.1953  0.2094  0.0919
 1558TIP3    H126089   5.334   4.034   4.832 -0.9907 -1.3646  2.4199
 1558TIP3    H226090   5.411   3.907   4.859  2.0330 -0.4637 -1.0361
 1559TIP3   OH226091   4.419   1.317   4.992  0.4846 -0.2676 -0.8352
 1559TIP3    H126092   4.499   1.367   5.004  0.1454 -0.0776  1.0465
 1559TIP3    H226093   4.433   1.268   4.911  2.6767 -0.5678 -0.3416
 1560TIP3   OH226094   4.621   2.616  14.159 -0.4129  0.4923  0.3140
 1560TIP3    H126095   4.693   2.644  14.102 -1.0991  0.4880 -0.5703
 1560TIP3    H226096   4.612   2.686  14.223  1.1543 -0.0479  1.1886
 1561TIP3   OH226097   4.745   0.863  16.121  0.2257 -0.1246  0.2603
 1561TIP3    H126098   4.744   0.806  16.044  0.1061  0.2775 -0.0439
 1561TIP3    H226099   4.808   0.932  16.099  1.1510 -0.6970  1.0459
 1562TIP3   OH226100   0.220   1.465   1.364  0.4478  0.1946 -0.2534
 1562TIP3    H126101   0.186   1.400   1.303 -0.5744  0.5117 -0.0480
 1562TIP3    H226102   0.207   1.427   1.451  3.2357 -0.8930 -0.2051
 1563TIP3   OH226103   5.488   1.191   1.490  0.0488 -0.3971  0.3363
 1563TIP3    H126104   5.506   1.099   1.511 -0.7857 -1.0617 -1.6102
 1563TIP3    H226105   5.570   1.237   1.509  1.6574 -2.1413 -1.8992
 1564TIP3   OH226106   6.589   2.182   2.279 -0.1260  1.2390 -0.1841
 1564TIP3    H126107   6.575   2.109   2.219  2.9680 -0.3028  0.7454
 1564TIP3    H226108   6.545   2.156   2.360 -0.5142  1.2261 -0.3981
 1565TIP3   OH226109   4.480   3.112   4.484 -0.0997 -0.2583  0.3048
 1565TIP3    H126110   4.565   3.067   4.476 -0.1920 -0.4518  0.4014
 1565TIP3    H226111   4.498   3.202   4.456 -0.0297 -0.4875 -0.4185
 1566TIP3   OH226112   5.279   4.707   4.115 -0.7357 -0.2171 -0.3459
 1566TIP3    H126113   5.350   4.644   4.125 -1.5080 -0.9180  1.0265
 1566TIP3    H226114   5.201   4.653   4.103 -0.9711  0.5469 -2.5667
 1567TIP3   OH226115   5.623   4.977   6.789 -0.0170  0.2790  0.1595
 1567TIP3    H126116   5.557   5.035   6.826 -0.8454 -0.3998 -0.2087
 1567TIP3    H226117   5.673   5.032   6.729 -0.7521  0.6351 -0.1357
 1568TIP3   OH226118   5.824   4.934  15.668  0.6081 -0.7875  0.1957
 1568TIP3    H126119   5.836   4.979  15.584  0.5009 -1.1719 -0.0252
 1568TIP3    H226120   5.729   4.923  15.676  0.6174 -0.7569  0.3691
 1569TIP3   OH226121   2.582   0.994   1.555  0.4888  0.1843  0.3690
 1569TIP3    H126122   2.492   1.027   1.552  0.6360  0.9301  2.4606
 1569TIP3    H226123   2.636   1.069   1.530  0.6079  0.2998  0.9546
 1570TIP3   OH226124   5.994   5.384   0.116 -0.4332  0.0936  0.1253
 1570TIP3    H126125   6.063   5.438   0.077 -0.5821  1.9585  2.2547
 1570TIP3    H226126   5.921   5.390   0.055  0.7992 -0.7856 -1.4909
 1571TIP3   OH226127   4.961   5.243   4.526  0.7364  0.3384 -0.2286
 1571TIP3    H126128   4.876   5.248   4.571 -0.4742 -1.8020 -2.0912
 1571TIP3    H226129   4.941   5.258   4.434  2.1476 -1.4935 -0.8981
 1572TIP3   OH226130   6.631   1.272  14.166 -0.1967 -0.0325 -0.5927
 1572TIP3    H126131   6.662   1.215  14.095 -0.9482 -0.6257 -0.4585
 1572TIP3    H226132   6.536   1.270  14.159 -0.3172 -0.5570  0.7523
 1573TIP3   OH226133   4.896   0.637  11.307  0.0546  0.2877  0.4772
 1573TIP3    H126134   4.811   0.617  11.267  0.2897  0.8476 -0.3288
 1573TIP3    H226135   4.900   0.732  11.308  1.1864  0.2819 -0.6618
 1574TIP3   OH226136   0.478   0.437  11.180  0.0400 -0.5767  0.1508
 1574TIP3    H126137   0.387   0.414  11.199 -0.0412 -0.5414 -0.1987
 1574TIP3    H226138   0.515   0.360  11.137  0.1404 -0.5425  0.1748
 1575TIP3   OH226139   3.813   1.485  11.313  0.0598 -0.1108 -0.5715
 1575TIP3    H126140   3.738   1.439  11.276 -0.8255  1.1925 -0.4708
 1575TIP3    H226141   3.782   1.516  11.398  0.7604  0.3009 -0.4627
 1576TIP3   OH226142   5.021   2.165   6.361  0.0443  0.7216 -0.1754
 1576TIP3    H126143   5.029   2.081   6.405  1.9850  1.3772  0.8391
 1576TIP3    H226144   4.929   2.189   6.373 -0.2890 -0.7450  0.4509
 1577TIP3   OH226145   0.591   1.616   3.488  0.2333  0.5442 -0.4611
 1577TIP3    H126146   0.523   1.561   3.527 -0.1604  1.8789  0.8520
 1577TIP3    H226147   0.650   1.555   3.445 -0.2271 -0.8900  0.8631
 1578TIP3   OH226148   2.718   1.850   4.378  0.0024 -0.1426  0.1513
 1578TIP3    H126149   2.807   1.817   4.364 -0.1247  0.1135 -1.5176
 1578TIP3    H226150   2.691   1.811   4.461  1.2032 -1.2383  0.0707
 1579TIP3   OH226151   4.866   2.826   4.131  1.2816 -0.1600  0.1416
 1579TIP3    H126152   4.777   2.805   4.159  1.7044  0.1864  1.9432
 1579TIP3    H226153   4.856   2.901   4.072  0.2930 -1.0885 -0.9046
 1580TIP3   OH226154   1.055   5.942   3.059  0.3241  0.1955  0.2696
 1580TIP3    H126155   1.025   5.993   2.983  1.6485  0.3390 -0.1739
 1580TIP3    H226156   1.145   5.970   3.073  1.1230 -2.0393 -0.0248
 1581TIP3   OH226157   5.471   4.863   4.990 -0.3282  0.0970 -0.6002
 1581TIP3    H126158   5.414   4.793   5.020 -0.6777  0.4790 -0.3675
 1581TIP3    H226159   5.555   4.820   4.973 -0.4974 -0.3501 -0.3159
 1582TIP3   OH226160   2.335   5.712   1.906 -0.4692 -0.3102 -0.8666
 1582TIP3    H126161   2.429   5.702   1.890  0.2800  2.7513  0.8120
 1582TIP3    H226162   2.308   5.629   1.944  1.7820 -0.9421 -0.4925
 1583TIP3   OH226163   0.577   6.251  13.729 -0.2519 -0.3429  0.2143
 1583TIP3    H126164   0.519   6.201  13.787 -1.2410 -0.5412 -0.9254
 1583TIP3    H226165   0.523   6.273  13.653  1.1381 -0.4501 -0.8449
 1584TIP3   OH226166   3.575   6.584   2.311 -0.2537  0.5815  0.4764
 1584TIP3    H126167   3.573   6.598   2.216  0.9647  0.1764  0.3751
 1584TIP3    H226168   3.604   6.667   2.347 -1.5260  1.0065  0.5859
 1585TIP3   OH226169   3.036   1.673   3.634  0.2470  0.0747 -0.2845
 1585TIP3    H126170   3.104   1.609   3.654 -1.4884 -1.8353 -0.1186
 1585TIP3    H226171   2.958   1.620   3.615 -1.4385  2.1535  0.4253
 1586TIP3   OH226172   1.292   5.184   2.962  0.0503  0.3496  0.3950
 1586TIP3    H126173   1.301   5.160   2.870 -1.4732 -1.0772  0.5501
 1586TIP3    H226174   1.379   5.210   2.989  0.5384  0.7621 -1.4406
 1587TIP3   OH226175   4.525   4.745   2.544 -0.4655 -0.1566  0.2363
 1587TIP3    H126176   4.592   4.679   2.562 -0.2214  0.7928  3.5891
 1587TIP3    H226177   4.571   4.829   2.553 -1.6384  0.4743  0.5281
 1588TIP3   OH226178   5.821   3.324   5.818 -0.9827 -0.4991  0.2706
 1588TIP3    H126179   5.752   3.317   5.883 -1.2376 -0.9947 -0.0493
 1588TIP3    H226180   5.783   3.290   5.737 -0.8395  0.5994 -0.2761
 1589TIP3   OH226181   5.246   2.725   2.370  0.5518 -0.1034  0.0855
 1589TIP3    H126182   5.257   2.744   2.463 -0.4253 -2.7141  0.8277
 1589TIP3    H226183   5.154   2.746   2.352  0.7702  0.5228 -0.3718
 1590TIP3   OH226184   4.422   2.613  11.615  0.0185 -0.3286  0.1177
 1590TIP3    H126185   4.331   2.635  11.593  0.4467  1.4838  0.0357
 1590TIP3    H226186   4.466   2.604  11.531 -0.1983 -1.9159  0.1352
 1591TIP3   OH226187   3.002   3.626  12.515  0.3225  0.0453  0.5982
 1591TIP3    H126188   2.985   3.573  12.437 -0.5120  1.9905 -0.6280
 1591TIP3    H226189   3.030   3.563  12.581 -2.0544 -2.1216 -0.2875
 1592TIP3   OH226190   1.361   1.275  10.884 -0.2302 -0.3081 -0.3217
 1592TIP3    H126191   1.413   1.194  10.881  0.8823  0.4368 -2.3776
 1592TIP3    H226192   1.421   1.340  10.919 -1.2357 -0.3760  1.6772
 1593TIP3   OH226193   6.728   2.917  11.892 -0.4550 -0.1296 -0.0729
 1593TIP3    H126194   6.642   2.959  11.896 -0.1630  0.4270  0.5754
 1593TIP3    H226195   6.724   2.848  11.958 -0.3896 -0.0895 -0.0281
 1594TIP3   OH226196   5.076   3.946  15.076  0.4071  0.3290  0.6700
 1594TIP3    H126197   5.007   3.913  15.133  1.4860 -0.5575  1.5064
 1594TIP3    H226198   5.122   4.011  15.128 -0.0508  1.2509 -0.0425
 1595TIP3   OH226199   4.554   0.899  16.332 -0.0007 -0.2412 -0.7665
 1595TIP3    H126200   4.540   0.830  16.396 -2.1255 -0.0460 -0.9412
 1595TIP3    H226201   4.609   0.860  16.265  2.6004 -0.3351  1.2950
 1596TIP3   OH226202   5.672   0.877   6.429 -0.2870  0.3439 -0.7513
 1596TIP3    H126203   5.641   0.807   6.372 -1.5321  1.9420 -2.1688
 1596TIP3    H226204   5.692   0.834   6.512  1.4598 -2.0579 -2.2895
 1597TIP3   OH226205   0.195   3.927   2.021  0.1055 -0.1223  0.0624
 1597TIP3    H126206   0.253   3.871   2.073  1.9747  0.5832 -1.1658
 1597TIP3    H226207   0.139   3.970   2.086  1.6424 -0.0789  1.4245
 1598TIP3   OH226208   3.852   1.077  13.173  0.5841  0.1603 -0.2683
 1598TIP3    H126209   3.935   1.032  13.191 -0.2381 -0.3018  2.9249
 1598TIP3    H226210   3.790   1.006  13.155  0.3000  0.3289  0.0524
 1599TIP3   OH226211   3.033   2.299  16.656  0.2261 -0.1782 -0.5470
 1599TIP3    H126212   3.020   2.248  16.576 -2.0299  1.3423 -1.2374
 1599TIP3    H226213   3.081   2.377  16.627 -1.2243  0.7162 -0.5828
 1600TIP3   OH226214   4.843   1.467  16.700  0.0590 -0.2740 -0.0515
 1600TIP3    H126215   4.809   1.474  16.790  0.4146 -0.6226  0.1105
 1600TIP3    H226216   4.803   1.388  16.665 -0.2400 -0.0289 -0.2758
 1601TIP3   OH226217   3.819   2.222  17.353 -0.3821 -0.1206  0.4645
 1601TIP3    H126218   3.889   2.281  17.379  0.2203 -0.4218 -0.4056
 1601TIP3    H226219   3.770   2.270  17.285 -0.1261 -0.4587  0.0319
 1602TIP3   OH226220   3.234   3.404   3.877 -0.1005  0.1093 -0.4033
 1602TIP3    H126221   3.302   3.425   3.941 -0.5590 -0.6046  0.3456
 1602TIP3    H226222   3.276   3.344   3.816  0.0795  0.0404 -0.2142
 1603TIP3   OH226223   4.280   4.388   5.825 -0.5818  0.7487 -0.4219
 1603TIP3    H126224   4.321   4.365   5.908 -0.9975 -0.1834 -0.4672
 1603TIP3    H226225   4.211   4.450   5.848  0.3653  1.7793 -0.2699
 1604TIP3   OH226226   1.555   3.949   3.580 -0.9886 -0.1241  0.0625
 1604TIP3    H126227   1.576   4.042   3.590  1.8350 -0.6232 -0.4811
 1604TIP3    H226228   1.595   3.907   3.656  0.8704 -1.2408 -1.4463
 1605TIP3   OH226229   3.323   1.421   4.977 -0.0520  0.2415  0.2455
 1605TIP3    H126230   3.409   1.426   5.019 -0.6103 -2.3121  1.9137
 1605TIP3    H226231   3.340   1.390   4.889  0.7716  0.0205  0.4786
 1606TIP3   OH226232   2.952   5.844   1.414  0.2223 -0.4077 -0.0257
 1606TIP3    H126233   3.040   5.818   1.388  0.9425  0.7932  1.0615
 1606TIP3    H226234   2.926   5.779   1.479 -0.1221 -1.3404 -1.0718
 1607TIP3   OH226235   6.693   2.264   1.739 -0.0604  0.9623 -0.2613
 1607TIP3    H126236   6.603   2.271   1.707 -0.7286 -2.8685  0.2465
 1607TIP3    H226237   6.684   2.248   1.833  0.9754 -0.9080 -0.4360
 1608TIP3   OH226238   1.062   2.905  11.733 -0.2054  0.1432 -0.0760
 1608TIP3    H126239   1.105   2.949  11.660  2.3715 -1.2775  0.4814
 1608TIP3    H226240   1.026   2.825  11.695  1.3018 -0.6909  0.1818
 1609TIP3   OH226241   2.640   3.634   1.684  0.6024 -0.2482  0.1717
 1609TIP3    H126242   2.660   3.708   1.627  0.9272 -0.5409 -0.1015
 1609TIP3    H226243   2.608   3.566   1.625  0.4131 -0.3645  0.4075
 1610TIP3   OH226244   5.111   4.756   3.668  0.2414  0.0276  0.0101
 1610TIP3    H126245   5.064   4.737   3.749 -0.5503 -0.4234 -0.5301
 1610TIP3    H226246   5.114   4.852   3.664  1.7134  0.0632  1.3456
 1611TIP3   OH226247   2.325   2.554   2.771  0.2952 -0.1069 -0.1521
 1611TIP3    H126248   2.401   2.580   2.823 -0.1586  1.4199 -0.1873
 1611TIP3    H226249   2.302   2.467   2.803  1.3519 -0.0984  0.6713
 1612TIP3   OH226250   5.593   3.686   1.226 -0.0814  0.1191 -0.1442
 1612TIP3    H126251   5.663   3.620   1.228 -2.0040 -2.1405 -1.2667
 1612TIP3    H226252   5.546   3.674   1.309  0.8648  1.6755  0.6390
 1613TIP3   OH226253   6.524   3.102  17.367  0.2351  0.0511 -0.3158
 1613TIP3    H126254   6.557   3.125  17.454 -0.9201 -1.4908  0.5706
 1613TIP3    H226255   6.434   3.074  17.382  0.4118 -1.4905 -1.8071
 1614TIP3   OH226256   1.715   3.022   6.823 -0.2226  0.1494 -0.0906
 1614TIP3    H126257   1.670   2.962   6.763 -0.0398  0.3244 -0.4063
 1614TIP3    H226258   1.670   3.010   6.906  0.9572 -1.7561  0.3413
 1615TIP3   OH226259   0.677   4.560   0.276 -0.5484 -0.0567 -0.5646
 1615TIP3    H126260   0.594   4.521   0.304  0.1851  0.0770  1.9620
 1615TIP3    H226261   0.672   4.651   0.304 -0.1776  0.3956 -1.8900
 1616TIP3   OH226262   5.370   0.864   5.763  0.0361 -0.2059  0.4034
 1616TIP3    H126263   5.325   0.883   5.846 -0.2430 -0.9815  0.4400
 1616TIP3    H226264   5.299   0.855   5.699  0.1039 -1.5666  0.4855
 1617TIP3   OH226265   3.021   0.945   5.556  0.1439  0.3648  0.5124
 1617TIP3    H126266   2.937   0.939   5.510  0.2851 -0.3409  0.3383
 1617TIP3    H226267   3.064   1.022   5.518 -0.3677  0.6632  0.5233
 1618TIP3   OH226268   4.660   2.928  10.464 -0.1998 -0.2686 -0.1938
 1618TIP3    H126269   4.721   3.002  10.470 -0.4693  0.4000 -3.4710
 1618TIP3    H226270   4.638   2.907  10.554  1.5010  2.3104  0.9421
 1619TIP3   OH226271   4.457   2.141  13.529 -0.8593 -1.0361 -0.7299
 1619TIP3    H126272   4.547   2.110  13.538 -0.3744 -0.0018 -1.7560
 1619TIP3    H226273   4.465   2.236  13.518 -2.1750 -0.7594  0.4467
 1620TIP3   OH226274   2.251   0.396  16.991 -0.3548  0.1062 -0.1089
 1620TIP3    H126275   2.281   0.313  17.027 -0.3853 -0.6112 -1.6568
 1620TIP3    H226276   2.159   0.403  17.018 -0.2152 -0.1286  0.4212
 1621TIP3   OH226277   0.939   3.430   2.897 -0.1297  0.1318  0.2100
 1621TIP3    H126278   0.953   3.480   2.817 -1.3797 -1.5497 -1.1529
 1621TIP3    H226279   0.878   3.483   2.948  2.4814  2.3634  1.2498
 1622TIP3   OH226280   2.390   2.921  14.851 -0.4618 -0.1259  0.0026
 1622TIP3    H126281   2.471   2.959  14.885 -0.3289 -0.0768 -0.3634
 1622TIP3    H226282   2.416   2.876  14.771 -0.7913 -0.1454 -0.0966
 1623TIP3   OH226283   5.032   1.948  15.835 -0.2879  0.2549  0.8143
 1623TIP3    H126284   4.995   2.028  15.798 -0.0458  0.3701  0.8247
 1623TIP3    H226285   5.021   1.883  15.766 -0.7888  0.2130  0.9293
 1624TIP3   OH226286   6.552   5.754  15.646 -0.1138  0.4044 -0.3681
 1624TIP3    H126287   6.605   5.711  15.713 -2.2852 -0.6834  0.7416
 1624TIP3    H226288   6.551   5.846  15.672  0.6881  0.3300 -0.0494
 1625TIP3   OH226289   4.302   0.770   3.043  0.1465 -0.3594  0.2584
 1625TIP3    H126290   4.251   0.839   3.086 -0.0506 -0.7077  0.5888
 1625TIP3    H226291   4.344   0.722   3.115  2.3553  0.9595 -0.0502
 1626TIP3   OH226292   2.940   2.184   0.203 -0.1135  0.1248  0.2922
 1626TIP3    H126293   2.879   2.140   0.143  0.2977 -0.0506  0.0007
 1626TIP3    H226294   2.968   2.262   0.157  0.3923 -0.1361  0.1504
 1627TIP3   OH226295   4.981   3.861  14.569 -0.1909  0.6837  0.2190
 1627TIP3    H126296   4.929   3.783  14.554  0.5685  0.3767 -0.9965
 1627TIP3    H226297   5.032   3.843  14.648  1.0582 -0.6806 -0.8373
 1628TIP3   OH226298   0.465   2.730   5.398 -0.1006 -0.2523  0.3731
 1628TIP3    H126299   0.529   2.729   5.469 -1.5923  2.3830  1.9260
 1628TIP3    H226300   0.506   2.783   5.330 -0.4923  1.3653  1.3308
 1629TIP3   OH226301   4.273   5.543  16.181  0.1639  0.5106 -0.1396
 1629TIP3    H126302   4.205   5.609  16.169 -2.9155 -1.7472  2.7250
 1629TIP3    H226303   4.247   5.471  16.123 -0.3552 -0.5760  1.3514
 1630TIP3   OH226304   3.351   5.846   4.483 -0.2976 -0.0060 -0.1899
 1630TIP3    H126305   3.274   5.828   4.428  0.7403 -1.5420 -1.2051
 1630TIP3    H226306   3.317   5.901   4.554 -1.6872  2.1769 -2.3811
 1631TIP3   OH226307   6.208   0.136   1.976  0.3122 -0.1131  0.5015
 1631TIP3    H126308   6.203   0.067   1.909  2.0835 -0.9182  1.1527
 1631TIP3    H226309   6.171   0.213   1.933 -0.2675 -1.0614 -0.7778
 1632TIP3   OH226310   6.172   1.593  16.449 -0.4116 -0.2581  0.9554
 1632TIP3    H126311   6.099   1.590  16.511  1.0769 -1.2980  2.8012
 1632TIP3    H226312   6.141   1.546  16.372 -1.2038 -2.0775  2.3136
 1633TIP3   OH226313   2.603   5.161   3.037 -0.0320 -0.7736  0.2017
 1633TIP3    H126314   2.537   5.180   3.104 -0.7072 -1.4722 -0.2451
 1633TIP3    H226315   2.623   5.246   2.998 -2.2454 -0.7660 -1.0833
 1634TIP3   OH226316   5.975   4.758   4.459 -0.4026 -0.3526 -0.5123
 1634TIP3    H126317   6.036   4.691   4.488  0.1519  0.1685 -0.4596
 1634TIP3    H226318   6.015   4.794   4.380 -1.1021 -0.6422 -1.0167
 1635TIP3   OH226319   4.133   2.696   2.736  0.4511  0.2487 -0.4810
 1635TIP3    H126320   4.220   2.703   2.776 -0.3041  1.7093  1.0211
 1635TIP3    H226321   4.126   2.604   2.711  1.3491 -0.5846  2.0099
 1636TIP3   OH226322   1.320   3.442   1.745 -0.5124  0.1395  0.6101
 1636TIP3    H126323   1.267   3.367   1.774  1.4495 -0.5214  2.8205
 1636TIP3    H226324   1.407   3.405   1.730  0.2229  1.7789  0.6134
 1637TIP3   OH226325   0.634   3.497   4.798 -0.1006  0.5296  0.4672
 1637TIP3    H126326   0.550   3.452   4.786  0.1080 -0.0291  1.0808
 1637TIP3    H226327   0.693   3.430   4.830  1.0724  0.5005 -1.5795
 1638TIP3   OH226328   6.302   1.978   2.020  0.4427 -0.5892 -0.1144
 1638TIP3    H126329   6.285   2.068   2.047  0.7523 -0.8547  1.0130
 1638TIP3    H226330   6.296   1.980   1.925  0.2355  0.5782 -0.0899
 1639TIP3   OH226331   2.502   3.882  16.551 -0.7858 -0.0391 -0.2100
 1639TIP3    H126332   2.533   3.913  16.466  0.2728  1.6842  0.7374
 1639TIP3    H226333   2.581   3.882  16.606 -1.6587  0.0400  1.0808
 1640TIP3   OH226334   6.259   4.153   2.204 -0.1329  0.2532  0.9109
 1640TIP3    H126335   6.216   4.076   2.241 -0.6857  0.5388  0.8796
 1640TIP3    H226336   6.192   4.194   2.150  1.2165 -1.2282 -2.1021
 1641TIP3   OH226337   3.185   1.312  15.914 -0.9311 -0.0116  0.6729
 1641TIP3    H126338   3.277   1.296  15.894 -0.5477  0.1476  2.1820
 1641TIP3    H226339   3.138   1.245  15.865  0.0129 -0.3151  0.1544
 1642TIP3   OH226340   2.916   5.902  11.073 -0.0007 -0.3065  0.9974
 1642TIP3    H126341   3.008   5.890  11.099  1.5843  4.1934 -1.5775
 1642TIP3    H226342   2.920   5.953  10.993 -4.8533 -0.6087  0.2949
 1643TIP3   OH226343   6.596   0.582   0.588 -0.7427 -0.0312 -0.1150
 1643TIP3    H126344   6.643   0.527   0.650 -2.0661  0.4769  1.3969
 1643TIP3    H226345   6.661   0.647   0.561  0.6650 -1.8889 -1.4840
 1644TIP3   OH226346   3.069   3.066  11.803 -0.0316 -0.3758  0.6754
 1644TIP3    H126347   3.043   3.123  11.876  0.8752  0.0151  0.7051
 1644TIP3    H226348   3.075   3.126  11.728 -0.2586 -0.6520  0.4346
 1645TIP3   OH226349   5.326   2.800   2.115  0.4846 -1.1632 -0.3716
 1645TIP3    H126350   5.315   2.895   2.113 -1.5373 -1.3735 -1.0696
 1645TIP3    H226351   5.323   2.778   2.208 -0.7774 -0.6956 -0.2853
 1646TIP3   OH226352   2.681   1.767  14.190 -0.1104 -0.9591 -0.3296
 1646TIP3    H126353   2.669   1.809  14.275  2.9475 -2.0445  0.7523
 1646TIP3    H226354   2.670   1.838  14.126 -0.4088  0.2970  1.0614
 1647TIP3   OH226355   5.343   2.127  17.376 -0.2719 -0.6091 -0.7692
 1647TIP3    H126356   5.393   2.053  17.342 -0.5567 -1.0526 -0.2500
 1647TIP3    H226357   5.261   2.125  17.328  0.0010 -0.2008 -1.2520
 1648TIP3   OH226358   1.483   2.838   6.274 -0.3565 -0.0887  0.1211
 1648TIP3    H126359   1.443   2.857   6.190 -1.0427 -1.8152  0.0245
 1648TIP3    H226360   1.418   2.865   6.339 -0.6619 -0.5951  0.0309
 1649TIP3   OH226361   4.565   1.070   2.829  0.4722  0.2317 -0.5383
 1649TIP3    H126362   4.596   1.152   2.790  1.0853  0.5572  0.5792
 1649TIP3    H226363   4.493   1.041   2.772 -0.0632  1.7829 -0.6769
 1650TIP3   OH226364   1.552   5.272   0.281 -0.6049 -0.0918  0.1379
 1650TIP3    H126365   1.618   5.334   0.310 -0.9735  0.9824 -1.2582
 1650TIP3    H226366   1.599   5.211   0.224 -0.1890 -1.3287  1.7036
 1651TIP3   OH226367   5.660   1.890   3.196 -0.4682 -0.2657  0.7333
 1651TIP3    H126368   5.640   1.813   3.142  0.0461 -0.1706  0.3977
 1651TIP3    H226369   5.742   1.868   3.240  0.1955  0.4710 -0.1136
 1652TIP3   OH226370   6.541   3.110  11.962  0.0120 -0.3400 -0.0323
 1652TIP3    H126371   6.470   3.171  11.940 -0.3571 -0.9095 -0.4696
 1652TIP3    H226372   6.619   3.150  11.926 -0.0888  0.2939  0.4461
 1653TIP3   OH226373   0.036   1.963  15.858 -0.5729 -0.2400 -0.0531
 1653TIP3    H126374   0.073   1.889  15.905 -1.3607 -2.1356 -2.2144
 1653TIP3    H226375  -0.038   1.926  15.810 -2.1110  2.3365  0.1221
 1654TIP3   OH226376   5.450   5.920  12.022 -0.0572 -0.0523 -0.1182
 1654TIP3    H126377   5.457   5.828  12.047  1.2655  0.0630 -0.0004
 1654TIP3    H226378   5.382   5.955  12.080  0.9009 -0.4750  1.3196
 1655TIP3   OH226379   1.716   3.328  15.798  0.1655 -0.0234  0.1386
 1655TIP3    H126380   1.634   3.360  15.837  0.0924  1.1416 -0.8847
 1655TIP3    H226381   1.722   3.375  15.714  1.8033 -0.1991  0.1244
 1656TIP3   OH226382   1.988   1.995  16.559  0.6401 -0.1362  0.3501
 1656TIP3    H126383   2.058   1.939  16.594  0.5793 -0.7088 -0.4225
 1656TIP3    H226384   2.030   2.046  16.491  0.6502  0.6509  0.9281
 1657TIP3   OH226385   2.797   5.105  13.995 -0.0724 -0.0485 -0.1582
 1657TIP3    H126386   2.759   5.019  13.977  2.5793 -1.7094  1.3738
 1657TIP3    H226387   2.814   5.104  14.090  2.0597  1.2454 -0.4655
 1658TIP3   OH226388   0.052   1.805   3.595  0.5125  0.2924  0.5428
 1658TIP3    H126389   0.132   1.755   3.610 -0.5038 -2.3494 -1.9124
 1658TIP3    H226390   0.082   1.896   3.586  3.0653 -0.4455  0.8547
 1659TIP3   OH226391   6.343   0.715  16.540  0.2448  0.3655 -0.1111
 1659TIP3    H126392   6.297   0.634  16.562  0.8784 -0.4961 -1.7670
 1659TIP3    H226393   6.427   0.686  16.504  0.0956  1.6822 -1.6264
 1660TIP3   OH226394   1.526   3.019  13.179  0.2113 -0.1286 -0.5540
 1660TIP3    H126395   1.523   2.946  13.117 -1.3686 -0.1861 -0.4368
 1660TIP3    H226396   1.496   2.981  13.262  1.6759  0.1076  0.1328
 1661TIP3   OH226397   4.531   1.132   2.040 -0.3985  0.3571 -0.1220
 1661TIP3    H126398   4.589   1.171   2.105 -0.7837 -1.6852  1.5652
 1661TIP3    H226399   4.526   1.197   1.970  3.1833  0.9935  0.0236
 1662TIP3   OH226400   0.038   2.780  13.245  0.7263  0.0337 -0.1218
 1662TIP3    H126401  -0.043   2.830  13.255  0.6405 -0.2411  0.5959
 1662TIP3    H226402   0.016   2.692  13.275  1.4326  0.0867  0.5795
 1663TIP3   OH226403   3.415   1.749  12.614 -0.1281  0.0766 -0.6559
 1663TIP3    H126404   3.446   1.658  12.612 -1.8309 -0.5844  0.4475
 1663TIP3    H226405   3.476   1.794  12.672  0.8627 -0.2854 -1.3828
 1664TIP3   OH226406   2.693   4.410  17.267 -0.0182 -0.5724 -0.1127
 1664TIP3    H126407   2.725   4.468  17.336  1.7810 -0.0393 -1.3279
 1664TIP3    H226408   2.658   4.469  17.201  1.8120 -0.8054 -1.3564
 1665TIP3   OH226409   1.538   0.264   3.101  0.3122  0.2149 -0.5851
 1665TIP3    H126410   1.604   0.237   3.037  0.1802 -1.9259  0.1089
 1665TIP3    H226411   1.508   0.183   3.141 -3.0097  1.0440 -1.0783
 1666TIP3   OH226412   6.251   6.569   3.003  0.2878  0.3063  0.6271
 1666TIP3    H126413   6.175   6.582   2.945 -0.5825  1.6294  1.9725
 1666TIP3    H226414   6.293   6.490   2.970 -0.8753  0.3167 -1.0326
 1667TIP3   OH226415   2.932   3.449   2.595  0.0227 -0.3544  0.4153
 1667TIP3    H126416   2.878   3.508   2.541 -0.8991 -0.2063  1.4432
 1667TIP3    H226417   3.014   3.496   2.606  1.3799 -1.5666 -3.0994
 1668TIP3   OH226418   5.418   3.956   2.596  0.2902 -0.1489 -0.4993
 1668TIP3    H126419   5.380   3.950   2.509  0.5806  1.7940 -0.8292
 1668TIP3    H226420   5.490   4.019   2.585  1.3750 -1.1143  0.8071
 1669TIP3   OH226421   3.233   1.067  13.190 -0.0423  0.1083  0.5775
 1669TIP3    H126422   3.183   1.146  13.208  0.1718  0.3776  0.0007
 1669TIP3    H226423   3.214   1.046  13.099  1.3770  0.5653  0.1543
 1670TIP3   OH226424   4.893   2.379  16.069 -0.0671  0.4603 -0.1943
 1670TIP3    H126425   4.949   2.364  16.145 -0.1687 -0.8264 -0.3493
 1670TIP3    H226426   4.943   2.439  16.014  1.1783 -0.6366 -0.3251
 1671TIP3   OH226427   5.026   1.008  12.297  0.3244  0.4255  0.2686
 1671TIP3    H126428   5.020   0.952  12.220 -0.5666 -1.7799  1.8308
 1671TIP3    H226429   5.023   1.098  12.263  1.7465 -0.4274 -2.3419
 1672TIP3   OH226430   0.804   1.757   3.027  0.0617  0.2568 -0.0199
 1672TIP3    H126431   0.841   1.669   3.019  0.4913  0.3947  0.3535
 1672TIP3    H226432   0.714   1.743   3.056  0.3216 -0.0538  0.6779
 1673TIP3   OH226433   3.238   4.715  14.809 -0.4608  0.4842  0.3252
 1673TIP3    H126434   3.149   4.735  14.839 -0.5441  1.0927 -0.3096
 1673TIP3    H226435   3.271   4.653  14.873 -1.4946 -0.0710  0.3487
 1674TIP3   OH226436   4.838   0.541  13.418  0.2755 -0.1366  0.1712
 1674TIP3    H126437   4.925   0.535  13.378  0.4277 -1.5966  0.6652
 1674TIP3    H226438   4.779   0.511  13.350 -0.0544  2.1785 -0.6641
 1675TIP3   OH226439   4.468   0.214   2.631 -0.5728 -0.2496 -0.0351
 1675TIP3    H126440   4.541   0.241   2.687 -0.2535 -1.0294 -0.0569
 1675TIP3    H226441   4.476   0.269   2.553  0.2528 -0.6024 -0.2181
 1676TIP3   OH226442   6.666   4.343   5.154  0.1169 -0.7392 -0.1294
 1676TIP3    H126443   6.612   4.279   5.108  0.8111 -2.2126  1.0241
 1676TIP3    H226444   6.638   4.428   5.119 -0.8707 -1.6453 -1.6634
 1677TIP3   OH226445   3.047   0.625  16.868  0.4390 -0.1655 -0.3384
 1677TIP3    H126446   3.087   0.671  16.943  2.2363 -2.6846  0.3844
 1677TIP3    H226447   3.101   0.652  16.793 -0.6317  1.4478 -0.5710
 1678TIP3   OH226448   6.436   3.644  11.624  0.6281  1.2022  0.3257
 1678TIP3    H126449   6.373   3.707  11.589 -0.0615 -0.2023 -1.1427
 1678TIP3    H226450   6.520   3.690  11.623 -0.2495  2.9581  1.8777
 1679TIP3   OH226451   6.478   0.825  11.064  0.0031  0.0450 -0.0996
 1679TIP3    H126452   6.459   0.901  11.008 -1.7950 -0.2203  0.0992
 1679TIP3    H226453   6.433   0.752  11.022 -0.1930 -0.4462  0.9289
 1680TIP3   OH226454   5.680   1.405   1.002  0.3266 -0.0289  0.0946
 1680TIP3    H126455   5.665   1.346   0.927  0.2002 -0.0127  0.1069
 1680TIP3    H226456   5.633   1.364   1.074  0.0098  0.2280  0.0375
 1681TIP3   OH226457   3.116   1.915  11.424  0.0169  0.4240 -0.0017
 1681TIP3    H126458   3.069   1.852  11.480  0.5179 -2.4984 -2.5975
 1681TIP3    H226459   3.062   1.921  11.345  2.0323  0.0111 -1.4700
 1682TIP3   OH226460   2.570   6.362  13.226  0.0773  0.5973 -0.5885
 1682TIP3    H126461   2.584   6.283  13.174 -0.3414 -0.4514  0.8273
 1682TIP3    H226462   2.658   6.384  13.258  0.2399  0.8938 -1.2154
 1683TIP3   OH226463   4.875   4.138  15.390 -0.1281  0.2642 -0.2829
 1683TIP3    H126464   4.840   4.209  15.335  0.8076  2.9579  2.2969
 1683TIP3    H226465   4.953   4.108  15.344  0.9446  2.8101 -0.2879
 1684TIP3   OH226466   4.308   5.604  15.780  0.3858  0.1969  0.2165
 1684TIP3    H126467   4.381   5.542  15.776  1.5169  1.4299  0.9191
 1684TIP3    H226468   4.331   5.664  15.851 -1.2090  0.7716  0.2983
 1685TIP3   OH226469   1.367   4.694   3.174 -1.3481  0.2338  0.0949
 1685TIP3    H126470   1.275   4.697   3.199 -0.9209  1.5532  1.7192
 1685TIP3    H226471   1.379   4.771   3.117 -1.1078  0.4675  0.4581
 1686TIP3   OH226472   1.839   5.720   3.902 -0.3891 -0.0093 -0.5073
 1686TIP3    H126473   1.910   5.730   3.966 -1.8832 -1.2243  1.5064
 1686TIP3    H226474   1.873   5.657   3.838  0.8829  0.6367 -0.5058
 1687TIP3   OH226475   3.463   3.224  10.724 -0.4665 -0.4024  0.2872
 1687TIP3    H126476   3.486   3.279  10.649  0.1842 -0.9754  0.0528
 1687TIP3    H226477   3.474   3.281  10.800  1.0719 -0.4382  0.1241
 1688TIP3   OH226478   1.623   2.104  16.653  0.2984  0.7766 -0.4401
 1688TIP3    H126479   1.701   2.145  16.615  1.0294 -0.4048 -0.2737
 1688TIP3    H226480   1.634   2.011  16.635 -0.9798  0.5680 -0.2154
 1689TIP3   OH226481   2.774   3.557   3.962  0.6155  0.8511 -0.4826
 1689TIP3    H126482   2.716   3.611   4.015  0.0741  0.0453 -0.2504
 1689TIP3    H226483   2.848   3.538   4.019  0.0209 -0.0385  0.0114
 1690TIP3   OH226484   3.276   3.042   3.519 -0.1657 -0.4596 -0.2263
 1690TIP3    H126485   3.231   3.078   3.443  1.1214 -0.0444 -0.8319
 1690TIP3    H226486   3.302   2.953   3.492  1.6285  0.2141 -0.9029
 1691TIP3   OH226487   3.841   3.507   0.424  0.2308  0.4782 -0.1016
 1691TIP3    H126488   3.903   3.579   0.419 -0.0009  0.5828 -2.4074
 1691TIP3    H226489   3.893   3.432   0.454  0.8686  1.1380  0.4848
 1692TIP3   OH226490   6.752   3.035  17.123  0.6751 -0.1915 -0.1662
 1692TIP3    H126491   6.697   2.991  17.059 -0.0518  0.6662 -0.1499
 1692TIP3    H226492   6.703   3.113  17.148  1.0363 -0.3826  1.2724
 1693TIP3   OH226493   5.591   6.425   2.827 -0.3516  0.4420 -0.3384
 1693TIP3    H126494   5.540   6.384   2.897 -2.3634 -0.3089 -2.1303
 1693TIP3    H226495   5.682   6.406   2.849 -1.0178 -1.3260  1.1152
 1694TIP3   OH226496   4.434   5.363  17.087  0.4696  0.3148 -0.2713
 1694TIP3    H126497   4.439   5.432  17.021 -1.6736 -0.9594 -1.8920
 1694TIP3    H226498   4.395   5.289  17.041 -0.9417 -0.7149  2.3752
 1695TIP3   OH226499   2.864   3.113  11.540  0.2217  0.3943  0.0642
 1695TIP3    H126500   2.840   3.150  11.626  0.9274  1.2247 -0.0878
 1695TIP3    H226501   2.818   3.029  11.537  1.2476 -0.2789  1.8276
 1696TIP3   OH226502   0.090   6.108  17.298 -0.3166  0.7721  0.2533
 1696TIP3    H126503   0.019   6.166  17.325 -0.2504 -0.0864  2.5442
 1696TIP3    H226504   0.108   6.132  17.207 -1.5791  2.9689  0.5118
 1697TIP3   OH226505   4.452   1.367  11.637  0.3606  0.3084 -0.2504
 1697TIP3    H126506   4.490   1.438  11.585 -1.6131  1.8730  0.3353
 1697TIP3    H226507   4.400   1.317  11.574 -0.5608  1.1192 -0.1528
 1698TIP3   OH226508   0.223   3.239  14.095 -0.0201 -0.2176 -0.6600
 1698TIP3    H126509   0.283   3.171  14.065 -1.0567 -1.6193  0.2931
 1698TIP3    H226510   0.166   3.195  14.158 -2.9268  0.6809 -2.4283
 1699TIP3   OH226511   6.702   1.844  16.167  0.5338  0.1965  0.0041
 1699TIP3    H126512   6.791   1.822  16.197  0.3019  0.7047  1.1399
 1699TIP3    H226513   6.698   1.940  16.175 -0.0704  0.1870 -0.1581
 1700TIP3   OH226514   4.347   4.996   0.335 -0.5266  0.2226 -0.5677
 1700TIP3    H126515   4.334   5.052   0.258 -0.0845 -0.7843 -1.4186
 1700TIP3    H226516   4.391   4.919   0.300 -3.2543 -1.7934  0.0596
 1701TIP3   OH226517   6.716   6.079  13.794 -0.5308  0.1103 -0.1924
 1701TIP3    H126518   6.791   6.136  13.807  1.1191 -1.8359 -0.7215
 1701TIP3    H226519   6.710   6.029  13.876 -0.6141 -0.4491 -0.5395
 1702TIP3   OH226520   5.510   3.499  12.928 -0.0381 -0.0682 -0.2926
 1702TIP3    H126521   5.507   3.536  12.840 -0.0865  0.4626 -0.0746
 1702TIP3    H226522   5.590   3.536  12.967  0.6299 -1.2373 -0.5156
 1703TIP3   OH226523   5.244   6.132  14.309 -0.1482 -0.3212 -0.3497
 1703TIP3    H126524   5.152   6.157  14.310 -0.4286 -1.2884 -0.9542
 1703TIP3    H226525   5.288   6.202  14.261 -0.4141  0.5896  0.6924
 1704TIP3   OH226526   0.822   5.419   1.044  0.1656 -0.2164  0.7827
 1704TIP3    H126527   0.782   5.482   0.983  0.4885 -1.9665 -1.3468
 1704TIP3    H226528   0.749   5.364   1.073 -0.0078  0.6782  2.1592
 1705TIP3   OH226529   0.218   0.287   1.942 -0.2394 -0.7982 -0.1302
 1705TIP3    H126530   0.193   0.321   1.856  0.3395 -0.0841 -0.0267
 1705TIP3    H226531   0.276   0.354   1.978  2.1244 -2.5049 -0.5086
 1706TIP3   OH226532   6.270   3.603   2.149 -0.3498  0.2470  0.2616
 1706TIP3    H126533   6.220   3.667   2.199 -0.2405  0.0569  0.6143
 1706TIP3    H226534   6.284   3.645   2.064 -0.6186  0.5296  0.3552
 1707TIP3   OH226535   3.933   4.767  16.900  0.5709 -0.1025  0.2470
 1707TIP3    H126536   3.841   4.794  16.912  0.0644 -0.2046 -2.7001
 1707TIP3    H226537   3.969   4.832  16.840  1.6185 -1.6064 -0.7966
 1708TIP3   OH226538   5.179   2.509   4.934  0.2787 -0.0700 -0.2036
 1708TIP3    H126539   5.235   2.499   5.011  0.8612 -1.2693 -0.7521
 1708TIP3    H226540   5.210   2.590   4.893  2.0467 -1.0007 -0.8126
 1709TIP3   OH226541   6.013   3.963  16.018  0.4492  0.1125 -0.1417
 1709TIP3    H126542   5.963   4.042  16.040  2.9302  1.2327  2.0488
 1709TIP3    H226543   5.962   3.891  16.055  0.1958  1.1484  1.6430
 1710TIP3   OH226544   5.046   3.183   2.532  0.0389  0.2600  0.2787
 1710TIP3    H126545   5.139   3.193   2.553  0.2210 -0.4334 -0.1477
 1710TIP3    H226546   5.007   3.268   2.553  1.1258  1.2134 -1.3159
 1711TIP3   OH226547   1.846   3.361   3.478  0.5412  0.1036 -0.0657
 1711TIP3    H126548   1.833   3.332   3.388  3.0384 -0.1068 -0.4132
 1711TIP3    H226549   1.858   3.456   3.471  0.3351  0.1442  0.1127
 1712TIP3   OH226550   6.714   3.670   4.809  0.7310  0.0904 -0.4035
 1712TIP3    H126551   6.629   3.627   4.812  1.4708 -1.4283  1.7577
 1712TIP3    H226552   6.736   3.673   4.716 -2.5274  2.4970 -1.2694
 1713TIP3   OH226553   5.002   3.757  14.842  0.1755 -0.5224  0.5458
 1713TIP3    H126554   5.049   3.676  14.860 -0.4746 -0.4832  2.6934
 1713TIP3    H226555   5.047   3.823  14.894 -0.5759  0.0719  0.4666
 1714TIP3   OH226556   1.284   2.392   6.526 -0.2157  0.0299  0.5058
 1714TIP3    H126557   1.360   2.451   6.529  1.8415 -2.3288 -1.3083
 1714TIP3    H226558   1.295   2.335   6.602  0.9416 -1.4803 -0.7358
 1715TIP3   OH226559   1.194   2.540   3.136 -0.2127  0.2705 -0.0510
 1715TIP3    H126560   1.145   2.614   3.172  0.6872  0.8231  0.0714
 1715TIP3    H226561   1.135   2.500   3.072 -1.8423 -0.6893  1.9314
 1716TIP3   OH226562   6.619   5.150  11.919 -0.0496  0.3179  0.1202
 1716TIP3    H126563   6.698   5.198  11.896  0.5646  1.2905  3.6512
 1716TIP3    H226564   6.547   5.203  11.883  0.7638  1.9672  0.8260
 1717TIP3   OH226565   3.426   3.290  15.799 -0.1137  0.0093  0.1875
 1717TIP3    H126566   3.412   3.266  15.891 -1.2399 -1.0893 -0.2462
 1717TIP3    H226567   3.459   3.209  15.759 -1.9800 -0.2624 -0.8826
 1718TIP3   OH226568   3.336   3.497   3.029  0.1249 -0.5573 -0.4419
 1718TIP3    H126569   3.384   3.565   2.982  0.7649 -0.8307 -0.1980
 1718TIP3    H226570   3.393   3.421   3.026 -0.0152 -0.7076  0.3927
 1719TIP3   OH226571   5.479   5.668  16.543  0.0182 -0.1865 -0.0887
 1719TIP3    H126572   5.406   5.712  16.499  0.6162 -1.1039 -2.0948
 1719TIP3    H226573   5.533   5.739  16.577 -0.3299  0.5762 -1.0813
 1720TIP3   OH226574   3.015   3.706  11.542 -1.1352 -0.5860 -0.0753
 1720TIP3    H126575   2.971   3.781  11.582  0.3901  0.0158  0.5481
 1720TIP3    H226576   3.103   3.708  11.578 -0.5529 -1.6925 -1.3468
 1721TIP3   OH226577   3.969   3.164  13.749  0.3013 -0.4051  0.3754
 1721TIP3    H126578   3.971   3.228  13.677  1.7483 -1.0401 -0.1878
 1721TIP3    H226579   3.921   3.090  13.714 -1.4414  0.3362  1.0531
 1722TIP3   OH226580   6.655   1.013   0.172  0.1610  0.4982 -0.1838
 1722TIP3    H126581   6.748   1.035   0.160  0.1558  0.2053 -0.7800
 1722TIP3    H226582   6.648   0.922   0.142 -0.5837  0.9459 -1.4378
 1723TIP3   OH226583   5.734   3.048  17.000  0.6799 -0.0234  0.4471
 1723TIP3    H126584   5.727   3.143  17.013 -0.1157  0.2343 -1.5308
 1723TIP3    H226585   5.659   3.012  17.048 -0.4886  0.6119 -0.8305
 1724TIP3   OH226586   5.346   4.307  15.391 -0.0849 -0.0629  0.0283
 1724TIP3    H126587   5.378   4.397  15.379  0.0854 -0.0767  0.3769
 1724TIP3    H226588   5.423   4.252  15.375 -0.1085 -0.1308  0.1514
 1725TIP3   OH226589   2.620   3.555  10.911 -0.4932 -0.3631 -0.0534
 1725TIP3    H126590   2.684   3.620  10.882  1.3220 -0.8873  2.4456
 1725TIP3    H226591   2.653   3.472  10.876 -0.3806 -0.5127  0.4126
 1726TIP3   OH226592   5.230   1.332  15.938 -0.5938 -0.5832  0.5430
 1726TIP3    H126593   5.318   1.301  15.918 -1.0643 -0.8760 -1.3560
 1726TIP3    H226594   5.230   1.424  15.909 -1.3413 -1.0507 -1.0667
 1727TIP3   OH226595   2.201   0.426   5.504  0.3295  0.6025 -0.0026
 1727TIP3    H126596   2.267   0.407   5.437 -0.5990  0.0099 -0.7789
 1727TIP3    H226597   2.148   0.346   5.509  0.3010  0.6775  1.3676
 1728TIP3   OH226598   1.671   0.078  15.413 -0.1551 -0.1093  0.0828
 1728TIP3    H126599   1.591   0.096  15.364 -0.5127 -1.0932  0.2767
 1728TIP3    H226600   1.699  -0.009  15.383  0.3177 -0.1800  0.6938
 1729TIP3   OH226601   6.212   2.684  12.611 -0.4737 -0.3553 -0.6733
 1729TIP3    H126602   6.117   2.692  12.596 -0.4286 -0.7363 -1.2312
 1729TIP3    H226603   6.251   2.749  12.553 -0.3959 -0.1061 -0.3443
 1730TIP3   OH226604   3.635   2.775   6.135  0.2962 -0.2112  0.5234
 1730TIP3    H126605   3.665   2.766   6.045  2.0145 -1.0514  1.1351
 1730TIP3    H226606   3.631   2.869   6.150 -0.2533 -0.0631 -0.4890
 1731TIP3   OH226607   2.325   3.945   6.177 -0.0132 -0.8251  0.4614
 1731TIP3    H126608   2.286   3.869   6.136 -1.2948  0.2844 -0.4616
 1731TIP3    H226609   2.279   3.955   6.260 -0.3613 -0.6293  0.2447
 1732TIP3   OH226610   0.672   6.659   1.372 -0.3758 -0.0191  0.2227
 1732TIP3    H126611   0.656   6.565   1.375  2.0273 -0.5992 -1.6544
 1732TIP3    H226612   0.694   6.683   1.462 -0.4752 -1.3608  0.6189
 1733TIP3   OH226613   4.887   6.536  14.699  0.2892  0.2523 -0.3252
 1733TIP3    H126614   4.928   6.479  14.764  0.3892  0.4650 -0.1991
 1733TIP3    H226615   4.961   6.577  14.653  0.3402 -2.2924 -2.7736
 1734TIP3   OH226616   4.375   1.818  13.254  0.3825 -0.5515 -0.0771
 1734TIP3    H126617   4.410   1.735  13.221 -0.2305 -1.0157  0.4049
 1734TIP3    H226618   4.281   1.803  13.261  0.1448  0.4823 -0.8139
 1735TIP3   OH226619   2.600   0.582  16.228  0.0907 -0.1223  0.4058
 1735TIP3    H126620   2.611   0.667  16.271  1.4571 -0.1131  0.0779
 1735TIP3    H226621   2.567   0.525  16.297  0.1847  0.4136  0.9088
 1736TIP3   OH226622   5.464   1.497  15.741 -0.0556  0.2994 -0.2548
 1736TIP3    H126623   5.476   1.503  15.835 -1.1878  1.4295 -0.1566
 1736TIP3    H226624   5.427   1.582  15.716  0.2387  0.0231 -1.7186
 1737TIP3   OH226625   5.531   6.124   0.524  0.1259 -0.1131 -0.0968
 1737TIP3    H126626   5.464   6.152   0.586  1.2566  0.2306  1.0105
 1737TIP3    H226627   5.519   6.030   0.516  0.2147 -0.2288  0.9802
 1738TIP3   OH226628   3.410   4.065  15.666  0.0380 -0.1059  1.1073
 1738TIP3    H126629   3.342   4.032  15.725 -0.9747  0.0454  0.0605
 1738TIP3    H226630   3.444   4.143  15.710  0.5738 -0.9916  2.3289
 1739TIP3   OH226631   2.607   5.801   4.091 -0.1983  0.8749  0.6541
 1739TIP3    H126632   2.654   5.718   4.103 -0.3684  0.7614  0.5293
 1739TIP3    H226633   2.660   5.850   4.029 -2.3816 -0.9519 -2.9470
 1740TIP3   OH226634   4.521   2.433   5.796 -0.0311  0.0039 -0.5623
 1740TIP3    H126635   4.495   2.522   5.774  1.4725  0.2258 -1.6313
 1740TIP3    H226636   4.598   2.416   5.741  0.1656 -1.6877  0.1573
 1741TIP3   OH226637   1.355   0.956  15.233 -0.2362  0.0238 -0.3362
 1741TIP3    H126638   1.397   1.042  15.233  0.0858 -0.1232  0.5315
 1741TIP3    H226639   1.412   0.901  15.287 -1.3600 -0.2606  0.6007
 1742TIP3   OH226640   6.751   0.684   3.827  0.1364 -0.4954  0.0289
 1742TIP3    H126641   6.716   0.658   3.741  0.3697  2.8794 -1.2376
 1742TIP3    H226642   6.673   0.711   3.876  0.0776 -1.7785  0.6701
 1743TIP3   OH226643   2.941   3.272   4.536  0.3406 -0.6600  0.0363
 1743TIP3    H126644   2.847   3.271   4.523  0.1711  0.9963  0.8297
 1743TIP3    H226645   2.977   3.225   4.461 -1.0539 -0.2224 -0.9328
 1744TIP3   OH226646   6.321   4.403   3.786  0.3075 -0.3037  0.0377
 1744TIP3    H126647   6.395   4.349   3.760 -0.5367 -0.7307 -1.6398
 1744TIP3    H226648   6.267   4.410   3.707 -0.1880  2.0795  0.5002
 1745TIP3   OH226649   1.410   3.835  10.701 -0.5053 -0.2041  0.1859
 1745TIP3    H126650   1.433   3.742  10.704  0.6307  0.0859  0.8129
 1745TIP3    H226651   1.474   3.874  10.641 -1.1340  0.1417 -0.2728
 1746TIP3   OH226652   4.906   5.154   0.158  0.0983 -0.8584  0.0899
 1746TIP3    H126653   4.969   5.182   0.091  0.9461  1.0477  1.5911
 1746TIP3    H226654   4.943   5.186   0.240 -1.8339 -1.5093  1.2757
 1747TIP3   OH226655   6.723   0.932  11.662  0.3227 -0.4508  1.2385
 1747TIP3    H126656   6.812   0.928  11.626 -0.3999  0.6122 -0.8976
 1747TIP3    H226657   6.702   1.026  11.662 -1.2350 -0.7625  0.4268
 1748TIP3   OH226658   1.821   0.594  15.105  0.7993 -0.4282  0.9400
 1748TIP3    H126659   1.828   0.565  15.196  0.3918 -1.6148  0.6109
 1748TIP3    H226660   1.898   0.557  15.062  0.6752 -0.3791  0.6750
 1749TIP3   OH226661   2.201   6.244  12.082  0.2083  0.4854 -0.0194
 1749TIP3    H126662   2.246   6.168  12.120 -1.6397 -0.3873  0.4992
 1749TIP3    H226663   2.194   6.223  11.989 -0.1980  0.0482  0.1025
 1750TIP3   OH226664   1.359   3.774  16.755  0.7986  0.4848 -0.5482
 1750TIP3    H126665   1.270   3.779  16.790  1.5236  2.6026  1.2230
 1750TIP3    H226666   1.350   3.725  16.673 -1.7365 -0.6509  0.3112
 1751TIP3   OH226667   3.468   6.438   5.390  0.5032  0.5693 -0.7933
 1751TIP3    H126668   3.558   6.444   5.422 -0.0173  1.0027  0.6666
 1751TIP3    H226669   3.432   6.362   5.435 -0.1536  0.9992 -0.5787
 1752TIP3   OH226670   3.691   4.199  13.172 -0.0617  0.1623 -0.7881
 1752TIP3    H126671   3.611   4.214  13.223  0.5596 -1.3056  0.7031
 1752TIP3    H226672   3.677   4.115  13.129  0.7871 -0.2809 -0.2322
 1753TIP3   OH226673   1.220   1.710  10.838  0.2032 -0.2940 -0.7969
 1753TIP3    H126674   1.185   1.767  10.907  0.2802 -0.7190 -0.4020
 1753TIP3    H226675   1.216   1.763  10.759  1.2996  0.6667 -0.2466
 1754TIP3   OH226676   5.352   3.337   2.468 -0.3701 -0.1725  0.2160
 1754TIP3    H126677   5.383   3.295   2.548 -0.0665  0.3286  0.3600
 1754TIP3    H226678   5.431   3.369   2.425 -0.6591  1.0476  0.5535
 1755TIP3   OH226679   4.981   1.744   5.115 -0.2870  0.2090  0.0223
 1755TIP3    H126680   5.031   1.786   5.185 -0.0956  0.6170 -0.3481
 1755TIP3    H226681   4.974   1.653   5.142  1.0279  0.0392 -0.1024
 1756TIP3   OH226682   2.098   3.092   2.405  0.3202  0.5908 -0.2273
 1756TIP3    H126683   2.107   3.020   2.467 -1.3942 -0.4576 -1.1259
 1756TIP3    H226684   2.184   3.134   2.404  0.6619  0.1075  2.1583
 1757TIP3   OH226685   1.082   4.066  12.750 -0.3277  0.0346 -0.0684
 1757TIP3    H126686   1.125   4.014  12.818 -0.3164 -0.5818 -0.5382
 1757TIP3    H226687   1.079   4.154  12.786  1.7924  0.2184 -0.1921
 1758TIP3   OH226688   6.755   5.634  14.867  0.1839 -0.4016 -0.3950
 1758TIP3    H126689   6.780   5.542  14.877  1.0594 -0.2028 -0.6124
 1758TIP3    H226690   6.665   5.631  14.835 -0.2901 -1.1506  0.9143
 1759TIP3   OH226691   3.077   0.986   4.188 -0.2264 -0.4285 -0.4268
 1759TIP3    H126692   3.110   0.920   4.248  1.4406  0.5419 -0.2241
 1759TIP3    H226693   2.983   0.968   4.181  0.0853 -2.4260  0.0701
 1760TIP3   OH226694   6.370   3.807   4.047 -0.4214  0.4744 -0.1147
 1760TIP3    H126695   6.397   3.896   4.070  2.4209 -0.6917  1.6904
 1760TIP3    H226696   6.324   3.776   4.126  0.4745 -0.3004  0.1172
 1761TIP3   OH226697   5.494   4.681   2.619 -0.6259 -0.1495 -0.4193
 1761TIP3    H126698   5.471   4.744   2.551  0.6356 -0.7291 -1.4247
 1761TIP3    H226699   5.455   4.599   2.591 -0.8512 -0.1966  0.0212
 1762TIP3   OH226700   0.240   1.409   3.727  0.6199 -0.4310 -0.8208
 1762TIP3    H126701   0.334   1.405   3.743  0.4311  0.6367  0.6964
 1762TIP3    H226702   0.200   1.382   3.810 -0.4123 -0.1311 -1.2087
 1763TIP3   OH226703   4.774   5.581   0.703 -0.2898  0.5195  0.2442
 1763TIP3    H126704   4.789   5.615   0.614  0.0346  1.0379  0.4881
 1763TIP3    H226705   4.719   5.648   0.744 -1.1191 -0.1157  0.1821
 1764TIP3   OH226706   2.045   0.047  13.425 -0.0698 -0.1729  0.3505
 1764TIP3    H126707   2.118  -0.009  13.400  0.2242  0.2326  0.2889
 1764TIP3    H226708   1.987  -0.009  13.476 -0.5169 -0.9407 -0.9407
 1765TIP3   OH226709   5.821   6.349   3.075 -0.0299  0.0001 -0.2384
 1765TIP3    H126710   5.892   6.328   3.014  0.4683 -1.8326  0.8749
 1765TIP3    H226711   5.778   6.265   3.091 -1.2786  0.7581  0.5658
 1766TIP3   OH226712   5.535   0.934  11.960  0.5919  0.0594 -0.0467
 1766TIP3    H126713   5.448   0.918  11.923 -0.0690  1.8193  0.6295
 1766TIP3    H226714   5.556   1.024  11.933  2.4540 -0.5116 -0.6403
 1767TIP3   OH226715   5.048   2.723   1.289  0.5187 -0.0295  0.1395
 1767TIP3    H126716   4.965   2.767   1.308  0.4078  0.6616 -1.6680
 1767TIP3    H226717   5.106   2.748   1.361  0.2263  2.5497 -0.4210
 1768TIP3   OH226718   2.185   4.060   4.601 -0.3196  0.7341  0.5081
 1768TIP3    H126719   2.168   4.031   4.511  2.5045 -0.1502  0.1401
 1768TIP3    H226720   2.137   3.998   4.655  1.4355 -1.6089 -0.3995
 1769TIP3   OH226721   1.260   4.124  11.555 -0.0704 -0.2660  0.3635
 1769TIP3    H126722   1.340   4.104  11.506  0.0155 -2.2233  1.2056
 1769TIP3    H226723   1.263   4.219  11.569  1.1762 -0.0401 -1.1708
 1770TIP3   OH226724   4.699   1.281   1.083  0.0361 -0.2551  0.1600
 1770TIP3    H126725   4.742   1.320   1.159  0.9147  0.9230 -0.9165
 1770TIP3    H226726   4.643   1.213   1.120  0.4090  0.3232  1.8646
 1771TIP3   OH226727   4.348   4.223   2.642  0.3966  0.0754 -0.2058
 1771TIP3    H126728   4.296   4.295   2.679  1.6837  2.1253 -2.1520
 1771TIP3    H226729   4.368   4.251   2.553 -0.5232 -3.5269 -1.7483
 1772TIP3   OH226730   4.637   5.372   4.431  0.1268  0.3803  0.1607
 1772TIP3    H126731   4.659   5.286   4.395  2.4053  1.3061 -0.8922
 1772TIP3    H226732   4.602   5.421   4.356 -1.5927  0.2821  0.8564
 1773TIP3   OH226733   0.786   4.544   1.972  0.5261  0.3261  0.4648
 1773TIP3    H126734   0.708   4.570   2.021 -0.7483  0.0140 -1.3272
 1773TIP3    H226735   0.762   4.553   1.880  2.5941  0.1609 -0.1519
 1774TIP3   OH226736   4.513   3.473   2.909  0.2022  0.2440  0.0814
 1774TIP3    H126737   4.481   3.411   2.843 -0.5657  0.1486  0.5359
 1774TIP3    H226738   4.590   3.513   2.868 -1.6328  2.0092 -1.9559
 1775TIP3   OH226739   5.246   1.508  15.315 -0.1244 -0.2991  0.0749
 1775TIP3    H126740   5.257   1.584  15.259  0.4391 -1.6136 -1.6991
 1775TIP3    H226741   5.151   1.491  15.314 -0.0384 -0.8337 -1.2760
 1776TIP3   OH226742   4.479   3.634  12.868 -0.3413 -0.0647 -0.1349
 1776TIP3    H126743   4.543   3.704  12.877  1.2607 -1.5319  0.7216
 1776TIP3    H226744   4.431   3.634  12.951 -0.9960  0.6072 -0.5091
 1777TIP3   OH226745   0.971   0.760   0.110  0.2371  0.2596  0.2920
 1777TIP3    H126746   1.059   0.768   0.147  0.4767  1.3329 -0.4677
 1777TIP3    H226747   0.958   0.841   0.060 -1.3669  0.3413  0.7779
 1778TIP3   OH226748   5.129   5.777  17.230  0.5555 -0.4012  0.3486
 1778TIP3    H126749   5.190   5.848  17.251 -0.6672  0.5230  0.8987
 1778TIP3    H226750   5.177   5.697  17.255  2.0568  0.1720 -0.5436
 1779TIP3   OH226751   6.001   2.250  10.669 -0.1506  0.3187  0.0636
 1779TIP3    H126752   6.031   2.252  10.760 -3.6289  0.3960  1.3415
 1779TIP3    H226753   5.997   2.157  10.647  0.7507  0.3009 -0.0622
 1780TIP3   OH226754   4.583   5.986   2.825 -0.9654  0.1464 -0.5999
 1780TIP3    H126755   4.652   5.921   2.836 -0.7164  0.5741  0.5831
 1780TIP3    H226756   4.568   5.990   2.731  0.0383 -0.5586 -0.8064
 1781TIP3   OH226757   3.599   5.299  16.182 -0.7653  0.0622  1.0948
 1781TIP3    H126758   3.658   5.249  16.126 -1.4032  0.0368  0.4355
 1781TIP3    H226759   3.527   5.239  16.201 -2.1720  1.0663 -0.7201
 1782TIP3   OH226760   0.621   0.539   5.270 -0.0358 -0.3240 -0.5977
 1782TIP3    H126761   0.583   0.498   5.348  0.5816  1.4141  0.7076
 1782TIP3    H226762   0.564   0.613   5.252  0.0163 -0.5224 -1.6245
 1783TIP3   OH226763   0.805   3.600   1.921  0.1874  0.5695  0.5449
 1783TIP3    H126764   0.739   3.541   1.957 -2.4298  1.1292 -2.7591
 1783TIP3    H226765   0.855   3.547   1.859  2.3072  0.4014  2.2856
 1784TIP3   OH226766   2.368   4.744  17.060  0.1361 -0.1926 -0.9227
 1784TIP3    H126767   2.447   4.696  17.083  0.1824  0.7675  1.1557
 1784TIP3    H226768   2.301   4.710  17.119 -0.2908  0.9589 -0.7115
 1785TIP3   OH226769   1.980   0.219  12.609 -0.2362  0.1707 -0.2485
 1785TIP3    H126770   1.891   0.234  12.576  0.7744  0.8868 -2.9273
 1785TIP3    H226771   2.037   0.252  12.539  2.1526 -0.2658  1.3873
 1786TIP3   OH226772   0.100   5.246  16.818 -0.0396 -0.2500  0.1046
 1786TIP3    H126773   0.059   5.277  16.737 -0.1487 -1.0487 -0.1498
 1786TIP3    H226774   0.191   5.277  16.812 -0.1299 -0.0315 -0.1674
 1787TIP3   OH226775   3.378   0.059   0.235 -0.4238 -0.4766  1.0267
 1787TIP3    H126776   3.386  -0.036   0.231 -1.7901 -0.6194  0.9411
 1787TIP3    H226777   3.464   0.092   0.209 -0.2131 -1.6739  0.1085
 1788TIP3   OH226778   0.374   3.029   6.204  0.5062 -0.7025  0.3209
 1788TIP3    H126779   0.306   3.051   6.140  0.4444  0.6440  0.8337
 1788TIP3    H226780   0.325   2.994   6.278  0.4476 -0.6067  0.3277
 1789TIP3   OH226781   3.101   0.897   4.622 -0.2299  0.2467  0.7688
 1789TIP3    H126782   3.058   0.981   4.608  1.6705  1.1669  0.0904
 1789TIP3    H226783   3.090   0.851   4.539 -0.6904  0.0794  0.9169
 1790TIP3   OH226784   4.706   2.682  16.767  0.2282 -0.1365 -0.5594
 1790TIP3    H126785   4.693   2.770  16.804 -0.4199 -0.5372  0.2014
 1790TIP3    H226786   4.617   2.648  16.755  0.4237 -0.1125 -2.3072
 1791TIP3   OH226787   4.783   3.945  15.834 -0.4075  0.0035 -0.3238
 1791TIP3    H126788   4.723   3.877  15.804  1.5521 -1.4580 -1.1281
 1791TIP3    H226789   4.778   4.013  15.767 -0.7550 -0.3458 -0.6571
 1792TIP3   OH226790   1.958   2.818  13.046  0.5103 -0.1614 -0.1499
 1792TIP3    H126791   1.924   2.737  13.084  0.6892 -0.5611 -0.8073
 1792TIP3    H226792   1.893   2.885  13.067 -0.5475 -0.8456 -1.1487
 1793TIP3   OH226793   3.824   3.662  14.190 -0.3815  0.1921 -0.1316
 1793TIP3    H126794   3.764   3.725  14.150  1.2803  1.4613 -0.7739
 1793TIP3    H226795   3.774   3.580  14.194 -3.0260  1.7458  1.7619
 1794TIP3   OH226796   4.562   2.048  14.629 -0.3857 -0.4533  0.4134
 1794TIP3    H126797   4.563   2.138  14.595 -1.5132 -0.6756 -0.2493
 1794TIP3    H226798   4.523   1.996  14.559  1.3405 -1.6966  0.3093
 1795TIP3   OH226799   3.032   6.742   3.288  0.0313  0.0071  0.4014
 1795TIP3    H126800   3.069   6.780   3.367  0.0242  1.2372 -0.1652
 1795TIP3    H226801   2.950   6.703   3.316  0.1425  0.2244  1.0451
 1796TIP3   OH226802   4.321   0.002   0.391  0.4774 -0.5454  0.2274
 1796TIP3    H126803   4.273  -0.078   0.371 -1.3140  0.2112  1.2383
 1796TIP3    H226804   4.356  -0.012   0.478  1.2030 -0.6804 -0.0812
 1797TIP3   OH226805   1.118   0.911   5.867 -0.5481 -0.0129  0.3699
 1797TIP3    H126806   1.066   0.834   5.845 -0.0074 -0.4198  0.4963
 1797TIP3    H226807   1.115   0.917   5.962  0.1315 -0.3960  0.4209
 1798TIP3   OH226808   1.594   1.239  17.296  0.0666 -0.2702 -0.0358
 1798TIP3    H126809   1.559   1.206  17.213 -0.3559  1.0122 -0.3999
 1798TIP3    H226810   1.564   1.177  17.362 -2.2714  0.3199 -0.4455
 1799TIP3   OH226811   0.512   1.220  14.061  0.8976  0.6233  0.3998
 1799TIP3    H126812   0.560   1.215  14.144 -0.3843 -0.2408  1.1261
 1799TIP3    H226813   0.456   1.297  14.071  0.6575  0.4507  0.3895
 1800TIP3   OH226814   5.663   6.465  13.505  0.1711  0.3145  0.2811
 1800TIP3    H126815   5.679   6.381  13.548  0.2075  0.1748 -0.0083
 1800TIP3    H226816   5.655   6.527  13.578 -1.3024 -0.1676  0.5682
 1801TIP3   OH226817   6.018   1.824   6.450 -0.1739  0.2401  0.7534
 1801TIP3    H126818   6.025   1.845   6.543  1.3341 -1.2050  1.0166
 1801TIP3    H226819   6.082   1.881   6.407 -0.7383  0.7756  0.6114
 1802TIP3   OH226820   1.343   6.246   1.120  0.2315  0.1365  0.1333
 1802TIP3    H126821   1.337   6.305   1.044 -2.7883 -0.9344 -0.6280
 1802TIP3    H226822   1.295   6.291   1.189  0.3567 -0.2070  0.4467
 1803TIP3   OH226823   1.512   5.606   5.270  0.3926 -0.0496  0.1710
 1803TIP3    H126824   1.566   5.548   5.217 -0.3486 -0.6777  0.0942
 1803TIP3    H226825   1.512   5.689   5.221  1.4001  0.0128  0.2522
 1804TIP3   OH226826   5.967   5.307  12.797 -0.4801  0.2050  0.0060
 1804TIP3    H126827   5.877   5.287  12.823 -0.5997 -0.1596 -0.6896
 1804TIP3    H226828   5.996   5.232  12.746  0.9414 -0.6269  1.9090
 1805TIP3   OH226829   0.777   1.017  14.826  0.1766 -0.3118 -0.1122
 1805TIP3    H126830   0.705   0.955  14.837 -1.9832  1.9767 -0.4456
 1805TIP3    H226831   0.856   0.968  14.850 -1.6052 -2.5915  1.4316
 1806TIP3   OH226832   6.722   6.677  14.469 -0.2836 -0.3670 -0.4275
 1806TIP3    H126833   6.645   6.681  14.526 -0.5771 -0.4607 -0.8123
 1806TIP3    H226834   6.777   6.609  14.508 -1.0425 -1.2913 -0.9403
 1807TIP3   OH226835   3.895   1.976  14.544 -0.6984  0.2420 -0.3353
 1807TIP3    H126836   3.986   2.002  14.525  0.0988 -0.4026  2.2077
 1807TIP3    H226837   3.871   2.028  14.620 -1.5605 -1.4151  0.5614
 1808TIP3   OH226838   0.537   1.353   1.206  0.3183 -0.2468 -0.1248
 1808TIP3    H126839   0.579   1.324   1.287 -1.6982 -0.7741  0.7792
 1808TIP3    H226840   0.513   1.444   1.223  1.4851  0.2184 -0.8311
 1809TIP3   OH226841   6.129   0.196   3.044 -0.6155 -0.4404  0.1687
 1809TIP3    H126842   6.181   0.143   2.983  0.1020  1.2066 -0.7300
 1809TIP3    H226843   6.080   0.132   3.095  2.5290 -2.1738  1.3365
 1810TIP3   OH226844   1.746   2.692  16.101  0.2118 -0.1821 -0.2704
 1810TIP3    H126845   1.828   2.646  16.085 -0.4487 -0.5813 -3.0368
 1810TIP3    H226846   1.765   2.784  16.081  0.3741 -0.0048  0.6777
 1811TIP3   OH226847   4.542   6.117   5.897  0.0381 -0.3424 -0.5901
 1811TIP3    H126848   4.489   6.192   5.922 -0.8591 -1.2432  0.2897
 1811TIP3    H226849   4.550   6.123   5.802  0.1065  0.9370 -0.5126
 1812TIP3   OH226850   3.831   5.050   3.299  0.1304 -0.3480 -0.5349
 1812TIP3    H126851   3.925   5.062   3.308  0.2130 -0.7697 -0.7808
 1812TIP3    H226852   3.804   5.011   3.382  0.4582 -1.7899 -1.0657
 1813TIP3   OH226853   4.314   0.989   1.971  0.0233  0.2963  0.4246
 1813TIP3    H126854   4.378   1.054   2.000 -0.2408  1.2195 -0.9500
 1813TIP3    H226855   4.243   1.041   1.933 -0.8669 -0.7620  0.6033
 1814TIP3   OH226856   2.793   3.223  11.770 -0.0716 -0.0673  0.1120
 1814TIP3    H126857   2.736   3.163  11.818 -1.6200  1.1890 -0.0918
 1814TIP3    H226858   2.825   3.285  11.836 -0.5794  0.4401 -0.1075
 1815TIP3   OH226859   5.245   6.150  15.806 -0.3919  0.3421  0.6203
 1815TIP3    H126860   5.316   6.086  15.808 -1.7246 -1.1804  1.6306
 1815TIP3    H226861   5.253   6.197  15.889  0.0042  0.8394  0.3051
 1816TIP3   OH226862   0.655   4.630  15.154  0.1903 -0.6125 -0.2199
 1816TIP3    H126863   0.667   4.667  15.067 -3.3407  3.7821  0.8249
 1816TIP3    H226864   0.565   4.597  15.154  0.5220 -1.6514  1.4519
 1817TIP3   OH226865   5.197   4.894  14.671  0.0875 -0.2840  0.1150
 1817TIP3    H126866   5.206   4.813  14.720 -0.4987 -0.8239 -0.6489
 1817TIP3    H226867   5.246   4.879  14.590 -1.0310 -0.3320 -0.5633
 1818TIP3   OH226868   4.020   2.758   2.071 -0.0446  0.0099  0.3982
 1818TIP3    H126869   3.970   2.815   2.013 -0.5576  0.9182  1.6707
 1818TIP3    H226870   4.109   2.759   2.035 -0.5152 -0.1230 -0.8171
 1819TIP3   OH226871   3.064   5.317  16.813 -0.2543  0.8107 -0.1351
 1819TIP3    H126872   3.125   5.389  16.797  1.5437 -0.5293  0.4117
 1819TIP3    H226873   3.078   5.257  16.739 -1.9297  1.1033 -0.7336
 1820TIP3   OH226874   3.190   5.899  14.634  0.5554 -0.5327  0.1343
 1820TIP3    H126875   3.249   5.966  14.670  1.0141 -0.0675 -1.3923
 1820TIP3    H226876   3.104   5.941  14.636  0.9460  0.4422 -1.4840
 1821TIP3   OH226877   5.403   0.336   6.302 -0.1906 -0.3467 -0.4018
 1821TIP3    H126878   5.438   0.276   6.367  0.1305 -0.8131 -0.9903
 1821TIP3    H226879   5.339   0.390   6.349 -0.7724 -1.4140  0.0504
 1822TIP3   OH226880   3.870   6.226  15.607 -0.3286 -0.3005  0.4966
 1822TIP3    H126881   3.909   6.240  15.521  0.5267  1.0244  1.0622
 1822TIP3    H226882   3.945   6.213  15.665 -0.8337 -0.0770  1.2177
 1823TIP3   OH226883   5.094   3.034   5.094  0.5935  0.2520 -0.5038
 1823TIP3    H126884   5.108   3.097   5.022 -0.5733  1.6066  0.3939
 1823TIP3    H226885   5.032   2.970   5.058 -0.4033  1.2209 -0.5857
 1824TIP3   OH226886   0.039   6.443   3.815  0.7192  0.4101 -0.8081
 1824TIP3    H126887  -0.039   6.406   3.772  0.4393  1.5100 -1.2687
 1824TIP3    H226888   0.046   6.531   3.780  2.8445 -0.0309 -1.6309
 1825TIP3   OH226889   2.755   1.922  17.203 -0.0040 -0.1715  0.1476
 1825TIP3    H126890   2.712   1.851  17.251 -2.2340  1.8655  1.3846
 1825TIP3    H226891   2.722   1.913  17.113  0.6146 -1.3240  0.0215
 1826TIP3   OH226892   6.753   4.152   3.802  0.2492  0.3114 -0.0622
 1826TIP3    H126893   6.785   4.138   3.713  0.9457  0.8374  0.1011
 1826TIP3    H226894   6.691   4.080   3.817  0.0022  0.3158 -1.0272
 1827TIP3   OH226895   2.814   3.650  16.144 -0.1055  0.0067 -0.1279
 1827TIP3    H126896   2.832   3.623  16.054  0.5941  0.4841 -0.1354
 1827TIP3    H226897   2.740   3.711  16.136  0.7384  1.0078 -0.5280
 1828TIP3   OH226898   4.701   0.062   1.649 -0.0062  0.0570 -0.3234
 1828TIP3    H126899   4.693   0.154   1.675 -0.7412 -0.0660 -0.1076
 1828TIP3    H226900   4.726   0.066   1.556  1.0237  0.4755 -0.0401
 1829TIP3   OH226901   5.020   5.900  12.352 -0.1452 -0.2959 -0.6961
 1829TIP3    H126902   4.926   5.915  12.360  0.0838  0.7124  0.5419
 1829TIP3    H226903   5.028   5.823  12.296 -1.6457  0.5480 -2.1408
 1830TIP3   OH226904   2.360   3.604   0.941  0.0780  0.6387 -0.5410
 1830TIP3    H126905   2.442   3.644   0.912 -0.0681 -0.0107 -1.9596
 1830TIP3    H226906   2.325   3.563   0.862 -1.4012  0.5341  0.1451
 1831TIP3   OH226907   3.127   2.170   2.557  0.5141 -0.4166 -0.3248
 1831TIP3    H126908   3.044   2.122   2.555  1.0784 -1.3893 -0.9946
 1831TIP3    H226909   3.189   2.113   2.512  1.4703  0.4589 -0.1497
 1832TIP3   OH226910   6.448   3.622   0.322  0.0432  0.0675 -0.0897
 1832TIP3    H126911   6.355   3.633   0.303 -0.2194  0.5404  1.2974
 1832TIP3    H226912   6.451   3.611   0.417  1.4373  0.4920 -0.0629
 1833TIP3   OH226913   5.322   0.673  14.010  0.1986 -0.6439  0.4576
 1833TIP3    H126914   5.253   0.608  14.016 -0.2527 -0.2830 -0.4930
 1833TIP3    H226915   5.390   0.631  13.957 -0.3689 -0.1508 -0.7119
 1834TIP3   OH226916   0.796   1.916   2.293 -0.2598  0.2774 -0.3620
 1834TIP3    H126917   0.786   1.842   2.354 -1.5341  0.5934 -0.1712
 1834TIP3    H226918   0.707   1.937   2.265  0.3102 -0.0962 -2.6598
 1835TIP3   OH226919   4.054   5.561  13.118 -0.3740  0.4693 -0.5166
 1835TIP3    H126920   4.097   5.632  13.070 -0.2004  0.5332 -0.2641
 1835TIP3    H226921   4.024   5.501  13.049  0.5414  0.1805 -0.6783
 1836TIP3   OH226922   4.579   1.571  12.583 -0.0198 -0.2093  0.4394
 1836TIP3    H126923   4.633   1.497  12.555  1.1009  0.1348  1.5921
 1836TIP3    H226924   4.523   1.535  12.652  0.9155  0.1033  1.3945
 1837TIP3   OH226925   5.520   4.572   1.183  0.1098 -0.1857 -0.3606
 1837TIP3    H126926   5.540   4.485   1.148 -1.7274 -1.6740  1.9779
 1837TIP3    H226927   5.426   4.583   1.167  0.3557  1.4881 -0.7855
 1838TIP3   OH226928   1.916   4.945  12.306  0.1672  0.2224 -0.0578
 1838TIP3    H126929   1.849   4.936  12.373  1.5629  0.5300  1.4552
 1838TIP3    H226930   1.879   5.004  12.241 -0.9164  0.5568  0.8554
 1839TIP3   OH226931   3.672   0.171  12.055 -0.3293 -0.1657  0.6286
 1839TIP3    H126932   3.621   0.090  12.052 -0.0578 -0.4699  2.6808
 1839TIP3    H226933   3.747   0.150  12.111 -0.0846  1.4118  0.9283
 1840TIP3   OH226934   1.090   2.868   1.844 -0.4726  0.6401  0.5287
 1840TIP3    H126935   1.055   2.827   1.765  3.2126 -0.1202 -0.9055
 1840TIP3    H226936   1.083   2.800   1.911  2.3241 -1.3081 -0.9401
 1841TIP3   OH226937   3.987   1.627   0.935 -0.4995  0.1406 -0.3268
 1841TIP3    H126938   4.039   1.546   0.936  0.0333  0.4700 -0.7889
 1841TIP3    H226939   3.907   1.603   0.887 -0.7895 -0.3658  0.3832
 1842TIP3   OH226940   6.445   4.666  14.948  0.2965  0.3613 -0.0524
 1842TIP3    H126941   6.484   4.716  15.019  2.6766  0.4868 -1.3737
 1842TIP3    H226942   6.409   4.732  14.889  1.2005  0.4049 -0.5560
 1843TIP3   OH226943   6.044   4.555   3.893 -0.6203  0.4859  0.6017
 1843TIP3    H126944   6.043   4.459   3.888  0.4769  0.5197 -0.6089
 1843TIP3    H226945   5.997   4.583   3.815  0.8600  0.9288 -0.1632
 1844TIP3   OH226946   5.256   4.411   0.895 -0.1211 -0.3709  0.4490
 1844TIP3    H126947   5.174   4.367   0.916 -1.2390 -0.0542 -2.6804
 1844TIP3    H226948   5.275   4.384   0.805  1.9620  1.4318  0.2684
 1845TIP3   OH226949   0.509   1.920   0.731 -0.2321  0.6607 -0.6066
 1845TIP3    H126950   0.605   1.914   0.734 -0.2853 -0.7047 -1.1361
 1845TIP3    H226951   0.479   1.830   0.744 -1.4679  1.1377  0.0034
 1846TIP3   OH226952   0.116   4.636  11.643  0.2727 -0.9883  0.2810
 1846TIP3    H126953   0.115   4.689  11.723 -0.8804 -1.1706  0.4046
 1846TIP3    H226954   0.028   4.598  11.638 -0.8044  1.3856 -2.6130
 1847TIP3   OH226955   4.706   5.837   1.156 -0.0657 -0.2030  0.0735
 1847TIP3    H126956   4.748   5.920   1.178 -0.0573 -0.1996  0.0436
 1847TIP3    H226957   4.771   5.770   1.181 -0.0836 -0.2015  0.1229
 1848TIP3   OH226958   5.295   4.542   5.448 -0.1558 -0.5796 -0.5785
 1848TIP3    H126959   5.207   4.558   5.480 -0.4135 -0.8541 -1.1397
 1848TIP3    H226960   5.330   4.474   5.506 -0.2940 -0.4352 -0.3256
 1849TIP3   OH226961   6.584   3.264   2.355 -0.2475 -0.9968 -0.2211
 1849TIP3    H126962   6.626   3.187   2.315 -1.2378 -0.3652 -2.6738
 1849TIP3    H226963   6.657   3.323   2.375  0.3391 -1.6110 -0.5040
 1850TIP3   OH226964   5.778   3.760  11.205  0.0687  0.1270 -0.1972
 1850TIP3    H126965   5.739   3.697  11.143  0.2624 -0.7055  0.5013
 1850TIP3    H226966   5.871   3.736  11.207  0.1359  0.4149  0.1084
 1851TIP3   OH226967   6.675   4.849   2.129 -0.0512 -0.4071 -0.3903
 1851TIP3    H126968   6.620   4.777   2.098 -1.0674  0.6207 -1.0569
 1851TIP3    H226969   6.757   4.807   2.154 -1.6749 -2.2909  2.3538
 1852TIP3   OH226970   6.481   2.928   1.256 -0.9109  0.3563  0.1575
 1852TIP3    H126971   6.477   2.918   1.351 -0.2053  0.3560  0.1936
 1852TIP3    H226972   6.411   2.871   1.223  0.6251 -1.9014  0.5482
 1853TIP3   OH226973   1.358   5.690  13.047 -0.1751  0.0456 -0.1289
 1853TIP3    H126974   1.448   5.669  13.022 -0.1185  0.7829 -0.5764
 1853TIP3    H226975   1.320   5.727  12.968 -0.4848  0.9449  0.4308
 1854TIP3   OH226976   4.678   4.581   5.437  0.0809 -0.3418 -0.5053
 1854TIP3    H126977   4.736   4.567   5.512 -0.0750  0.9369 -0.1198
 1854TIP3    H226978   4.716   4.528   5.367  0.8199 -0.7355  0.1795
 1855TIP3   OH226979   6.290   3.185   3.363 -0.0122 -0.7578 -0.4263
 1855TIP3    H126980   6.340   3.198   3.283 -1.3776  0.8995 -1.0735
 1855TIP3    H226981   6.202   3.215   3.342 -1.1167 -2.8239  0.9099
 1856TIP3   OH226982   1.032   2.880  12.005  1.0058  0.2143  0.4400
 1856TIP3    H126983   1.032   2.895  11.910  1.9594 -0.7202  0.2650
 1856TIP3    H226984   0.948   2.914  12.035  1.4801  2.2922 -0.4481
 1857TIP3   OH226985   0.322   2.448   0.203  0.1711  0.5877  0.2657
 1857TIP3    H126986   0.414   2.421   0.212  0.3075  1.1078  0.5123
 1857TIP3    H226987   0.323   2.512   0.132  0.0165  0.6666  0.3356
 1858TIP3   OH226988   4.676   3.784  10.873 -0.2015 -0.1032 -0.1357
 1858TIP3    H126989   4.746   3.720  10.864 -0.1519 -0.0504 -0.1317
 1858TIP3    H226990   4.596   3.737  10.848 -0.0389  0.1014 -1.0892
 1859TIP3   OH226991   0.518   0.672   4.505 -0.1441  0.2472 -0.0112
 1859TIP3    H126992   0.486   0.759   4.526 -0.1403  0.8838 -2.4333
 1859TIP3    H226993   0.442   0.625   4.471  0.3108  0.0251 -0.7474
 1860TIP3   OH226994   4.407   1.683  15.753 -0.1478 -0.5046 -0.4399
 1860TIP3    H126995   4.467   1.626  15.803  1.8047  1.7673 -0.0158
 1860TIP3    H226996   4.357   1.729  15.820 -0.1349 -0.1205 -0.6928
 1861TIP3   OH226997   4.810   2.735   5.913 -0.2401 -0.5226 -0.1306
 1861TIP3    H126998   4.857   2.720   5.995  1.6961 -0.0274 -1.0815
 1861TIP3    H226999   4.730   2.780   5.938  1.3809  1.7713  1.3372
 1862TIP3   OH227000   3.863   5.653   6.091 -0.0114  0.0174 -0.1339
 1862TIP3    H127001   3.883   5.712   6.018 -1.4088 -0.9276 -1.3312
 1862TIP3    H227002   3.853   5.711   6.167 -1.3782  1.3625 -1.2815
 1863TIP3   OH227003   5.576   1.821  11.011 -1.3196  0.0479  0.4458
 1863TIP3    H127004   5.646   1.762  11.040 -2.6192 -1.5169  0.5322
 1863TIP3    H227005   5.587   1.826  10.916  0.3186  1.7513  0.6554
 1864TIP3   OH227006   1.773   0.490   4.763 -0.0635  0.0896  0.2528
 1864TIP3    H127007   1.835   0.563   4.772  0.2598 -0.1530  0.0173
 1864TIP3    H227008   1.812   0.433   4.697  0.9289 -1.5764  2.1576
 1865TIP3   OH227009   0.374   5.449   0.345 -0.0753  0.2396 -0.4293
 1865TIP3    H127010   0.384   5.542   0.325  0.5735 -0.1923 -2.3561
 1865TIP3    H227011   0.349   5.409   0.262 -1.8415 -1.1287  0.6787
 1866TIP3   OH227012   2.002   4.256  11.217  0.3876 -0.1621 -0.2070
 1866TIP3    H127013   2.074   4.303  11.258  1.6691 -1.3826 -0.9653
 1866TIP3    H227014   2.034   4.233  11.130 -1.6436  0.8965 -1.2941
 1867TIP3   OH227015   4.693   0.806   5.433  0.5264  0.8190 -1.2038
 1867TIP3    H127016   4.787   0.791   5.446 -0.0025 -1.5502  0.7847
 1867TIP3    H227017   4.657   0.804   5.522 -1.5492  0.4687 -2.0077
 1868TIP3   OH227018   2.425   1.615   2.427  0.4822 -0.2800  0.0082
 1868TIP3    H127019   2.480   1.659   2.491  0.4079 -1.8476  1.2330
 1868TIP3    H227020   2.362   1.566   2.480 -1.2654  0.4241 -1.3321
 1869TIP3   OH227021   3.907   6.570   6.308 -0.0392  0.1512 -0.4024
 1869TIP3    H127022   3.878   6.492   6.261  1.8915  0.2239 -1.8265
 1869TIP3    H227023   3.989   6.545   6.349 -0.5286  0.8018  1.0490
 1870TIP3   OH227024   3.906   0.896   3.463 -0.0405  0.3504  0.8932
 1870TIP3    H127025   3.876   0.934   3.380 -0.2240  0.7365  1.1342
 1870TIP3    H227026   3.935   0.808   3.439 -0.0877  0.4581  0.4174
 1871TIP3   OH227027   4.726   5.834  15.304  0.2582 -0.2218  0.3259
 1871TIP3    H127028   4.679   5.839  15.388  1.1314  0.6764  0.7991
 1871TIP3    H227029   4.793   5.903  15.311 -0.5776  0.8875 -1.6970
 1872TIP3   OH227030   5.511   2.499   5.509  0.7229  0.3441 -0.1557
 1872TIP3    H127031   5.473   2.575   5.466 -2.6046 -1.7426 -1.2438
 1872TIP3    H227032   5.585   2.475   5.453  0.2802  1.3184 -1.2013
 1873TIP3   OH227033   1.249   1.296  16.685  1.1017  0.2194 -0.2555
 1873TIP3    H127034   1.226   1.363  16.621  1.8343 -0.0929 -0.8529
 1873TIP3    H227035   1.295   1.229  16.635  0.0154 -0.9492  0.2594
 1874TIP3   OH227036   2.683   6.003   2.890  0.4002  0.3513 -0.2095
 1874TIP3    H127037   2.595   5.968   2.895  0.4738  0.1235 -0.5188
 1874TIP3    H227038   2.720   5.967   2.810 -0.6239  3.6267 -2.3542
 1875TIP3   OH227039   2.509   0.062   4.840 -0.2767  0.3248 -0.1049
 1875TIP3    H127040   2.457   0.063   4.760 -1.8760  1.6268  0.8844
 1875TIP3    H227041   2.445   0.075   4.910  0.9554 -1.5765  1.4795
 1876TIP3   OH227042   0.921   4.213  15.577 -0.1917  0.1557 -0.0556
 1876TIP3    H127043   1.004   4.224  15.625 -0.3732 -2.1470  0.9130
 1876TIP3    H227044   0.932   4.130  15.530 -2.5626 -1.1930  1.5760
 1877TIP3   OH227045   3.280   1.115  16.301 -0.3705 -0.3468  0.1250
 1877TIP3    H127046   3.368   1.153  16.305  0.9414 -3.0846 -0.2071
 1877TIP3    H227047   3.287   1.043  16.238 -2.6119 -1.1971  0.7262
 1878TIP3   OH227048   0.313   3.743  13.125  0.6364  0.0120 -0.0097
 1878TIP3    H127049   0.265   3.720  13.205  0.8980  2.1492  0.8220
 1878TIP3    H227050   0.280   3.682  13.059 -2.1513  0.4305  0.8784
 1879TIP3   OH227051   3.845   4.487   1.323 -0.1393  0.2841 -0.4148
 1879TIP3    H127052   3.777   4.431   1.360  0.2057 -0.2829 -0.6326
 1879TIP3    H227053   3.836   4.570   1.370 -0.5607  0.0033  0.0069
 1880TIP3   OH227054   5.332   0.111   4.706 -0.3642  0.7855  0.3205
 1880TIP3    H127055   5.247   0.108   4.662 -0.1890 -2.7966 -0.0816
 1880TIP3    H227056   5.393   0.138   4.638 -0.8057  0.4704 -0.2123
 1881TIP3   OH227057   1.483   0.544   2.705 -0.2118  0.9025 -0.1611
 1881TIP3    H127058   1.414   0.487   2.670  0.0083  0.5015  0.0524
 1881TIP3    H227059   1.477   0.532   2.800 -1.5001  2.7707  0.0362
 1882TIP3   OH227060   5.765   5.573  12.227 -0.2972 -0.5070  0.6459
 1882TIP3    H127061   5.675   5.550  12.248 -0.6384 -0.1332 -0.3821
 1882TIP3    H227062   5.811   5.489  12.222 -0.7224 -0.7323  0.5327
 1883TIP3   OH227063   2.728   0.793  15.598  0.2756 -0.1625 -0.0361
 1883TIP3    H127064   2.793   0.733  15.634 -0.5221 -0.5233  0.8395
 1883TIP3    H227065   2.663   0.737  15.557 -0.2965  0.1179  0.4764
 1884TIP3   OH227066   6.720   6.331  12.275  0.1470  0.1966  0.0513
 1884TIP3    H127067   6.650   6.334  12.339  0.6628 -0.0349  0.6403
 1884TIP3    H227068   6.682   6.287  12.199 -0.9281  1.8272 -0.4089
 1885TIP3   OH227069   6.320   5.012   5.565  0.1238 -0.2861  1.0856
 1885TIP3    H127070   6.262   5.048   5.631 -3.2217  1.5356 -2.4576
 1885TIP3    H227071   6.281   4.927   5.543  0.7022 -0.5105  0.9142
 1886TIP3   OH227072   2.510   3.743  15.097  0.3271 -0.7918  0.1421
 1886TIP3    H127073   2.544   3.679  15.159 -1.4014  0.7512  2.9262
 1886TIP3    H227074   2.569   3.819  15.107  1.7801 -1.4889 -2.3934
 1887TIP3   OH227075   0.791   1.187  14.209 -0.5856 -0.1619  0.2272
 1887TIP3    H127076   0.747   1.103  14.198  0.7105 -0.6240 -2.0522
 1887TIP3    H227077   0.884   1.168  14.190 -0.2338  1.7144 -0.1022
 1888TIP3   OH227078   4.120   0.241  16.272 -0.3283  0.4613 -0.9439
 1888TIP3    H127079   4.036   0.279  16.246  0.2102  1.3284 -1.4786
 1888TIP3    H227080   4.106   0.146  16.267 -1.2014  0.5951 -1.2459
 1889TIP3   OH227081   1.834   5.550  14.281 -0.1138  0.5328 -0.4035
 1889TIP3    H127082   1.869   5.490  14.215  0.2181  0.7789 -0.4521
 1889TIP3    H227083   1.911   5.594  14.316 -0.3292  0.6976 -0.1394
 1890TIP3   OH227084   3.986   6.551   3.593 -0.1829 -0.1570 -0.5947
 1890TIP3    H127085   3.973   6.640   3.559 -1.1188  0.5327  1.3794
 1890TIP3    H227086   3.996   6.497   3.516 -0.6049  1.5243 -1.8939
 1891TIP3   OH227087   6.527   1.115  15.572 -0.0116  0.0297  0.2914
 1891TIP3    H127088   6.437   1.144  15.559  0.0582 -0.2928 -1.0433
 1891TIP3    H227089   6.564   1.179  15.633 -1.2437 -0.0756  1.1912
 1892TIP3   OH227090   6.506   6.706   4.833  0.0140  0.3670 -0.7416
 1892TIP3    H127091   6.516   6.796   4.865  0.8901 -0.3777  1.2484
 1892TIP3    H227092   6.557   6.704   4.752 -0.7906  1.8781 -1.3360
 1893TIP3   OH227093   5.534   2.541   3.829  0.2874 -0.5910  0.4598
 1893TIP3    H127094   5.469   2.531   3.759 -0.3770  1.1757  0.7665
 1893TIP3    H227095   5.490   2.506   3.907 -1.3707  2.6591  1.1823
 1894TIP3   OH227096   3.544   1.442  11.345  0.1258  0.0413 -0.0507
 1894TIP3    H127097   3.485   1.402  11.408  0.7382  0.7176  0.9749
 1894TIP3    H227098   3.504   1.424  11.259 -0.2122 -1.7185  0.4530
 1895TIP3   OH227099   3.460   1.031  14.985  0.0653 -0.0085 -0.6876
 1895TIP3    H127100   3.546   1.073  14.990  0.2290 -0.1844 -1.7267
 1895TIP3    H227101   3.406   1.078  15.048  1.2886 -0.7985  1.0043
 1896TIP3   OH227102   1.797   0.043  13.565 -0.0296  0.2536  0.1503
 1896TIP3    H127103   1.731   0.059  13.633  1.2966  0.6788  1.3937
 1896TIP3    H227104   1.841   0.127  13.555 -0.6152  0.3858 -1.7606
 1897TIP3   OH227105   0.602   1.822   0.421  0.0601  0.0993 -0.3125
 1897TIP3    H127106   0.649   1.876   0.484 -0.7409 -1.2446  1.5328
 1897TIP3    H227107   0.570   1.884   0.356  0.7051  1.5992  0.7312
 1898TIP3   OH227108   4.574   4.306  11.978 -0.8889 -0.8398  0.2237
 1898TIP3    H127109   4.641   4.364  11.941 -0.2605 -1.7475 -0.1025
 1898TIP3    H227110   4.538   4.355  12.052 -2.2750  1.0756 -1.6195
 1899TIP3   OH227111   3.579   0.800   1.207 -0.5371 -0.0442 -0.2996
 1899TIP3    H127112   3.663   0.818   1.249 -0.2981  2.7497 -1.7215
 1899TIP3    H227113   3.601   0.783   1.115 -1.5395  1.4802 -0.8568
 1900TIP3   OH227114   0.351   0.525  12.073  0.4249 -0.1949  0.3389
 1900TIP3    H127115   0.267   0.568  12.092  0.3603 -1.5220  3.7727
 1900TIP3    H227116   0.390   0.578  12.003 -2.4690  1.4866 -0.1553
 1901TIP3   OH227117   0.308   5.515  15.434 -0.1144 -0.3050  0.2883
 1901TIP3    H127118   0.268   5.446  15.382 -0.5897 -0.1001  0.3762
 1901TIP3    H227119   0.369   5.558  15.374  0.2781 -0.8740  0.2706
 1902TIP3   OH227120   5.411   5.215  13.842  0.0298  0.2698  0.2322
 1902TIP3    H127121   5.500   5.228  13.876  0.7552 -0.5904 -1.1815
 1902TIP3    H227122   5.388   5.299  13.802  1.1610 -0.1318 -1.3605
 1903TIP3   OH227123   2.837   1.567  11.403  0.2488  0.3044 -0.1417
 1903TIP3    H127124   2.787   1.648  11.393  0.8591  0.8243  0.8613
 1903TIP3    H227125   2.878   1.574  11.490  0.8406 -0.7833 -0.3106
 1904TIP3   OH227126   5.871   1.342  15.221 -0.1273 -0.1212  0.7861
 1904TIP3    H127127   5.939   1.281  15.250  0.4870  1.0480  1.9245
 1904TIP3    H227128   5.808   1.344  15.293 -0.5297  0.0206  0.4314
 1905TIP3   OH227129   3.110   5.177  11.717 -0.1511  0.1543 -0.3454
 1905TIP3    H127130   3.095   5.261  11.760  0.4438 -0.0746  0.3284
 1905TIP3    H227131   3.067   5.113  11.773  1.1874 -0.2246  0.3068
 1906TIP3   OH227132   5.289   4.814  12.097 -0.3323  0.3048 -0.1683
 1906TIP3    H127133   5.286   4.851  12.009  1.3044 -0.4556 -0.5832
 1906TIP3    H227134   5.383   4.803  12.115 -0.6972 -1.3835  0.8868
 1907TIP3   OH227135   5.102   5.306   6.568  0.3058  0.8174 -0.1499
 1907TIP3    H127136   5.196   5.324   6.575  0.4320 -0.3121  2.1724
 1907TIP3    H227137   5.091   5.269   6.480  2.0217  1.0706 -0.5003
 1908TIP3   OH227138   6.269   0.030  13.911  0.1745  0.0494  0.5763
 1908TIP3    H127139   6.231  -0.049  13.872  3.0975 -1.8311  1.2201
 1908TIP3    H227140   6.227   0.036  13.997 -1.6298  0.5192 -0.2864
 1909TIP3   OH227141   3.200   4.937  13.794  0.1318  0.1638  0.1212
 1909TIP3    H127142   3.216   5.010  13.735  0.1992 -0.4572 -0.6485
 1909TIP3    H227143   3.267   4.945  13.862  0.2738  0.6859 -0.0812
 1910TIP3   OH227144   4.305   2.071  10.725 -0.0246  0.3158  0.5246
 1910TIP3    H127145   4.367   1.997  10.721  1.2565  1.3201  1.1125
 1910TIP3    H227146   4.330   2.118  10.804  1.1061  2.9985 -1.2710
 1911TIP3   OH227147   1.420   1.952   2.557  0.0137 -0.4285  0.7068
 1911TIP3    H127148   1.444   1.877   2.504  0.5942  1.4526 -1.8772
 1911TIP3    H227149   1.502   1.998   2.572 -0.6219  0.9546  0.1116
 1912TIP3   OH227150   5.714   1.632  16.923 -0.1854 -0.4421  0.3529
 1912TIP3    H127151   5.742   1.701  16.863  1.7564  0.8875  2.6282
 1912TIP3    H227152   5.632   1.666  16.961 -0.3147 -0.3382 -0.0122
 1913TIP3   OH227153   3.742   6.733  15.545  0.2749  0.0668  0.0739
 1913TIP3    H127154   3.694   6.690  15.474  1.4913 -0.2869 -0.5814
 1913TIP3    H227155   3.722   6.826  15.534 -1.2556 -0.1656  0.6265
 1914TIP3   OH227156   6.405   0.120   1.352  0.7046 -0.2483  0.0333
 1914TIP3    H127157   6.470   0.067   1.305 -0.2264 -0.9392 -0.4976
 1914TIP3    H227158   6.346   0.152   1.284 -0.3724 -0.8417  0.6708
 1915TIP3   OH227159   2.899   2.739   3.805 -0.1402 -0.6661  0.3085
 1915TIP3    H127160   2.947   2.809   3.760  1.7406 -2.0819 -0.0149
 1915TIP3    H227161   2.807   2.762   3.794  0.3925  2.2998  1.1313
 1916TIP3   OH227162   0.151   1.195   4.728  0.9144  0.0222 -0.4002
 1916TIP3    H127163   0.131   1.204   4.635 -1.8065  1.4278  0.2172
 1916TIP3    H227164   0.210   1.267   4.747  0.9687  0.1133 -0.9066
 1917TIP3   OH227165   6.608   0.597  17.301 -0.2366  0.1573  0.0359
 1917TIP3    H127166   6.693   0.593  17.258 -0.8163 -2.0217 -1.0902
 1917TIP3    H227167   6.626   0.583  17.394  0.5473 -2.3892 -0.4248
 1918TIP3   OH227168   1.000   4.545  14.107  0.2871  0.5379 -0.6673
 1918TIP3    H127169   1.044   4.554  14.022  1.3970 -1.1937 -0.3362
 1918TIP3    H227170   1.072   4.538  14.170 -0.5153  0.5106  0.2637
 1919TIP3   OH227171   0.481   5.369  15.838  0.3680  0.3847  0.9652
 1919TIP3    H127172   0.532   5.431  15.890 -0.9952  0.9941  1.6254
 1919TIP3    H227173   0.483   5.406  15.750  0.1285  1.0129  1.2149
 1920TIP3   OH227174   2.890   3.871  13.068  0.6531 -0.3261  0.1686
 1920TIP3    H127175   2.980   3.877  13.101  0.4725  1.1283  0.4787
 1920TIP3    H227176   2.851   3.799  13.117  1.1262  0.1979  1.3761
 1921TIP3   OH227177   1.032   3.723  16.156 -0.0312 -0.7075 -0.4780
 1921TIP3    H127178   1.082   3.683  16.227  0.1691 -0.0034 -0.2156
 1921TIP3    H227179   0.966   3.658  16.134  0.2753 -1.1748 -0.0474
 1922TIP3   OH227180   3.949   1.201  15.696  0.0069 -0.5119  0.2055
 1922TIP3    H127181   4.021   1.180  15.756  0.4813 -0.0341 -0.1812
 1922TIP3    H227182   3.872   1.159  15.735 -0.1089  1.3615  2.1992
 1923TIP3   OH227183   1.309   6.660   2.191 -0.3429 -0.0302 -0.5363
 1923TIP3    H127184   1.262   6.719   2.251 -0.5335 -0.8998  0.1941
 1923TIP3    H227185   1.392   6.642   2.234  0.0474  0.3126 -1.1271
 1924TIP3   OH227186   1.915   2.395   2.136 -0.2012  0.2751  0.0841
 1924TIP3    H127187   1.991   2.435   2.093 -0.4550 -0.1391 -0.7739
 1924TIP3    H227188   1.850   2.387   2.066 -0.2191 -1.4730  0.2767
 1925TIP3   OH227189   0.189   2.951   3.746  0.5509  0.0907  0.1767
 1925TIP3    H127190   0.213   3.042   3.731 -1.2441  0.9088  1.8710
 1925TIP3    H227191   0.126   2.931   3.677 -0.3843  0.7141  0.8420
 1926TIP3   OH227192   5.118   6.668   5.073  0.2787 -0.3504  0.0126
 1926TIP3    H127193   5.048   6.605   5.056  0.8524 -0.3792 -2.6408
 1926TIP3    H227194   5.194   6.632   5.026  1.0712  1.4708 -0.1685
 1927TIP3   OH227195   0.898   1.019  15.421 -0.3481  0.3865 -0.8453
 1927TIP3    H127196   0.831   1.028  15.353 -0.4367 -0.2088 -0.8376
 1927TIP3    H227197   0.895   1.103  15.468 -2.3516 -0.2614  0.3116
 1928TIP3   OH227198   0.216   6.459  11.572  0.2734 -0.6527  0.1221
 1928TIP3    H127199   0.181   6.541  11.538  3.2785  0.0375 -1.6400
 1928TIP3    H227200   0.157   6.392  11.539 -1.1102  0.6305 -0.0853
 1929TIP3   OH227201   4.180   0.805   1.663  0.6170 -0.3485  0.1461
 1929TIP3    H127202   4.155   0.729   1.611 -0.1400 -0.2495  0.3646
 1929TIP3    H227203   4.167   0.880   1.605 -0.0211 -0.2575  0.4025
 1930TIP3   OH227204   1.958   1.094  15.504  0.1957 -0.2009  0.1036
 1930TIP3    H127205   1.914   1.162  15.555  2.2138  1.3358 -0.0588
 1930TIP3    H227206   1.944   1.119  15.413  1.3067  0.3045  0.0489
 1931TIP3   OH227207   3.374   3.602   2.523  0.1895  0.7921  0.5475
 1931TIP3    H127208   3.386   3.649   2.440 -1.3175 -0.4989 -0.4514
 1931TIP3    H227209   3.428   3.524   2.515 -0.2960  0.4464  0.5838
 1932TIP3   OH227210   3.133   2.529  12.185 -0.4406  0.0293 -0.2985
 1932TIP3    H127211   3.141   2.508  12.278 -0.6649 -1.3928 -0.5684
 1932TIP3    H227212   3.039   2.542  12.171 -0.4650 -0.2671 -0.4185
 1933TIP3   OH227213   0.837   6.290  15.682  0.5467  0.8518  0.1396
 1933TIP3    H127214   0.749   6.314  15.710  0.5656  1.7421 -0.5310
 1933TIP3    H227215   0.846   6.329  15.595  1.1321 -0.3244 -0.3574
 1934TIP3   OH227216   5.350   1.076  13.384  0.0398  0.4022 -0.3080
 1934TIP3    H127217   5.351   1.171  13.395  0.9095  0.7969 -3.0130
 1934TIP3    H227218   5.279   1.059  13.322 -0.3634 -0.7561  0.4461
 1935TIP3   OH227219   4.150   2.186  16.012 -0.1566 -0.1476  0.1221
 1935TIP3    H127220   4.110   2.264  16.052  0.0713 -0.2848  0.6279
 1935TIP3    H227221   4.108   2.112  16.057 -0.3015 -0.3185 -0.2866
 1936TIP3   OH227222   5.858   2.381   2.110 -0.4626 -0.4579 -0.4829
 1936TIP3    H127223   5.804   2.347   2.039 -2.2121  1.5260 -0.2245
 1936TIP3    H227224   5.899   2.460   2.074  0.6725 -0.8316 -0.0443
 1937TIP3   OH227225   1.259   1.964  12.045 -0.1193  0.2905 -0.4360
 1937TIP3    H127226   1.188   1.996  12.101  2.8928  1.5666  3.0724
 1937TIP3    H227227   1.266   2.030  11.976 -0.2171  2.1001  1.1661
 1938TIP3   OH227228   0.516   3.122   4.515  0.0516 -0.4346 -1.2180
 1938TIP3    H127229   0.457   3.188   4.480 -0.4640 -0.5093 -0.5189
 1938TIP3    H227230   0.602   3.164   4.515 -0.5758  1.0692  1.1912
 1939TIP3   OH227231   3.827   3.974  13.643  0.2451 -0.2254 -0.2088
 1939TIP3    H127232   3.759   3.954  13.579 -0.1603 -0.0548  0.1633
 1939TIP3    H227233   3.909   3.948  13.600 -0.1225 -1.2224 -0.3318
 1940TIP3   OH227234   1.332   3.086  17.001  0.9052  0.3015 -0.3045
 1940TIP3    H127235   1.349   3.144  16.927  1.5083 -0.2418 -0.6024
 1940TIP3    H227236   1.361   3.000  16.971 -0.4344 -0.2594 -0.0421
 1941TIP3   OH227237   0.055   0.060  16.226 -0.4118  0.3035 -0.1620
 1941TIP3    H127238  -0.015   0.026  16.281  1.2608 -0.5597  1.5623
 1941TIP3    H227239   0.048   0.156  16.233 -0.6665  0.2063  0.9882
 1942TIP3   OH227240   1.859   2.353  16.797  0.5227 -0.2851  0.2173
 1942TIP3    H127241   1.907   2.288  16.848  0.1279  0.3398  1.4277
 1942TIP3    H227242   1.895   2.437  16.825 -0.1874  0.1070 -0.0097
 1943TIP3   OH227243   3.530   1.483   1.330  0.1160  0.8197 -0.2530
 1943TIP3    H127244   3.610   1.445   1.366  2.1597  2.9866 -2.1147
 1943TIP3    H227245   3.475   1.501   1.406  0.7612 -1.8971  0.9825
 1944TIP3   OH227246   1.528   5.559   4.427 -0.1784  0.0817 -0.5724
 1944TIP3    H127247   1.532   5.625   4.496  0.0916 -0.9150  0.3924
 1944TIP3    H227248   1.538   5.476   4.473 -3.1725 -0.8531 -1.3865
 1945TIP3   OH227249   3.294   6.130  13.393 -0.3067  0.0491  0.7981
 1945TIP3    H127250   3.210   6.091  13.368  0.3172 -1.4114  0.8648
 1945TIP3    H227251   3.347   6.055  13.421  1.0650  0.9349  0.6296
 1946TIP3   OH227252   0.002   4.439  11.952  0.5704 -0.1615 -0.6300
 1946TIP3    H127253  -0.060   4.387  11.900  1.5167 -2.2079  0.1565
 1946TIP3    H227254   0.083   4.436  11.902  0.2968  1.8663 -1.2792
 1947TIP3   OH227255   3.935   1.429  14.563 -0.4365 -0.0618  0.5317
 1947TIP3    H127256   3.843   1.402  14.555 -0.8352  1.3384  0.0077
 1947TIP3    H227257   3.932   1.501  14.626 -0.0088  1.2809 -0.9199
 1948TIP3   OH227258   6.310   5.333  17.115 -0.1275  0.3746  0.1403
 1948TIP3    H127259   6.237   5.286  17.157 -1.1319  1.7684  0.0124
 1948TIP3    H227260   6.368   5.356  17.187 -0.4392  0.3346  0.4089
 1949TIP3   OH227261   0.969   1.429  10.705 -0.1733 -0.2731 -0.1907
 1949TIP3    H127262   1.003   1.486  10.636  1.4134 -0.6145  0.2637
 1949TIP3    H227263   0.889   1.391  10.667  0.8377 -0.7256 -2.0032
 1950TIP3   OH227264   4.353   6.156   5.700  0.8076 -0.2035 -0.1540
 1950TIP3    H127265   4.298   6.235   5.701 -1.9530 -1.9675  0.9582
 1950TIP3    H227266   4.354   6.130   5.608 -2.9200 -1.6568  0.0077
 1951TIP3   OH227267   2.447   5.537  15.889  0.4139  0.1125 -0.5480
 1951TIP3    H127268   2.390   5.500  15.821 -0.2469  0.8076 -0.3844
 1951TIP3    H227269   2.395   5.607  15.928 -0.5297 -2.2210  2.8438
 1952TIP3   OH227270   2.963   5.936   2.289 -0.3308 -0.3892  0.7199
 1952TIP3    H127271   2.980   5.859   2.344  1.2573 -0.0334  0.7821
 1952TIP3    H227272   2.930   6.002   2.350  0.0577 -0.4464  0.9957
 1953TIP3   OH227273   5.608   4.051   0.880 -0.0092  0.6896 -0.4523
 1953TIP3    H127274   5.650   3.982   0.930  2.2960  1.1934 -1.5626
 1953TIP3    H227275   5.650   4.132   0.910 -1.7179  1.4958 -0.1129
 1954TIP3   OH227276   1.101   1.009   4.232 -0.1688 -1.2137  0.1264
 1954TIP3    H127277   1.128   0.953   4.160 -0.1550  0.8862 -1.6077
 1954TIP3    H227278   1.182   1.045   4.267 -0.2953 -0.2005 -0.5795
 1955TIP3   OH227279   2.640   3.367  11.554  0.5993  0.0604  0.1255
 1955TIP3    H127280   2.573   3.392  11.617 -0.9245  0.2320 -1.4933
 1955TIP3    H227281   2.700   3.311  11.604 -0.7386 -0.1080  1.6317
 1956TIP3   OH227282   4.910   2.150  14.986 -0.2142 -0.1199 -0.4748
 1956TIP3    H127283   5.001   2.169  14.962  0.0182 -0.5205  0.0632
 1956TIP3    H227284   4.883   2.079  14.928 -0.0662 -0.2363 -0.4023
 1957TIP3   OH227285   2.885   0.007   0.893  0.1091  0.1990 -0.2397
 1957TIP3    H127286   2.821   0.027   0.961 -1.0887 -2.0222 -0.6153
 1957TIP3    H227287   2.861   0.063   0.819  0.6124  1.6762  0.6775
 1958TIP3   OH227288   2.995   2.423  12.736  0.1832  0.2037  0.4088
 1958TIP3    H127289   3.014   2.478  12.812  0.1929  1.0427 -0.1839
 1958TIP3    H227290   2.922   2.368  12.764 -0.3343  1.0545  0.7745
 1959TIP3   OH227291   3.903   1.027  11.748  0.1991 -0.0299 -0.8094
 1959TIP3    H127292   3.994   1.032  11.778  0.1806 -2.9358  0.0691
 1959TIP3    H227293   3.910   1.004  11.655  0.3710 -0.4587 -0.6928
 1960TIP3   OH227294   5.636   5.161   0.723  0.5736 -0.3222  0.6836
 1960TIP3    H127295   5.700   5.228   0.748  0.5441  0.4629 -1.1583
 1960TIP3    H227296   5.687   5.081   0.715  1.2485  0.1726 -0.2061
 1961TIP3   OH227297   6.345   6.488   5.611  0.1944 -0.3779 -0.1269
 1961TIP3    H127298   6.357   6.398   5.581  0.9358 -0.6336  0.8706
 1961TIP3    H227299   6.402   6.495   5.688  1.0657  1.2950 -0.8765
 1962TIP3   OH227300   1.984   4.711   3.201 -0.1915 -0.3114 -0.2114
 1962TIP3    H127301   1.989   4.667   3.116 -3.4912  0.3348 -0.8486
 1962TIP3    H227302   2.050   4.781   3.195 -0.5210 -0.1144 -2.3394
 1963TIP3   OH227303   1.291   3.672  13.538 -0.3698  0.4355  0.3787
 1963TIP3    H127304   1.364   3.713  13.491 -0.9920  0.7509 -0.3436
 1963TIP3    H227305   1.282   3.586  13.498 -0.0880  0.2123  0.7953
 1964TIP3   OH227306   6.045   2.924   3.184  0.0571  0.4533  0.4693
 1964TIP3    H127307   6.120   2.884   3.142 -1.0350  0.1258 -1.2515
 1964TIP3    H227308   6.065   3.018   3.186  0.2163  0.4487 -0.6336
 1965TIP3   OH227309   1.135   4.666  16.130 -1.0050 -0.7284  0.8616
 1965TIP3    H127310   1.218   4.713  16.124 -1.5027  0.2572  1.4697
 1965TIP3    H227311   1.142   4.596  16.065  0.1979 -0.5016  0.7319
 1966TIP3   OH227312   5.320   0.246   5.159 -0.1575 -0.0658 -0.6541
 1966TIP3    H127313   5.285   0.268   5.072  2.5926  1.4934 -1.4678
 1966TIP3    H227314   5.400   0.197   5.141  0.6426  0.5638  0.9778
 1967TIP3   OH227315   2.591   3.635   0.765 -0.0596 -0.1563 -0.0323
 1967TIP3    H127316   2.564   3.562   0.708 -0.0780 -0.2757  0.1281
 1967TIP3    H227317   2.687   3.633   0.761  0.0016 -1.2142  1.2400
 1968TIP3   OH227318   3.604   1.541   4.820  0.2587  0.5078  0.3793
 1968TIP3    H127319   3.593   1.522   4.913  1.0972 -0.8548  0.2219
 1968TIP3    H227320   3.698   1.535   4.805 -0.0343 -2.5453 -1.1406
 1969TIP3   OH227321   4.803   5.499   3.917  0.4050 -0.1251 -0.5214
 1969TIP3    H127322   4.735   5.564   3.904 -0.2493 -1.0173 -1.8383
 1969TIP3    H227323   4.765   5.435   3.977  1.6905  1.5281  2.2475
 1970TIP3   OH227324   1.256   0.964   2.068  0.9725 -0.8765  0.0357
 1970TIP3    H127325   1.208   1.026   2.014  0.9597  0.0658  1.1115
 1970TIP3    H227326   1.269   0.888   2.010 -1.2618 -0.9316 -0.4746
 1971TIP3   OH227327   2.806   6.304  15.787 -0.9228 -0.3851  0.3130
 1971TIP3    H127328   2.842   6.218  15.764  0.0003 -0.6130  2.4554
 1971TIP3    H227329   2.765   6.334  15.706  1.2230 -1.5750 -1.3322
 1972TIP3   OH227330   3.146   4.655   0.096  0.4456  0.4373  0.3622
 1972TIP3    H127331   3.166   4.651   0.003 -1.0693 -1.6845  0.0560
 1972TIP3    H227332   3.228   4.631   0.140  0.3993 -1.6571 -0.5775
 1973TIP3   OH227333   1.974   4.363  14.746 -0.3495  0.0915  0.3045
 1973TIP3    H127334   1.967   4.298  14.676  0.0469 -0.5031  0.8032
 1973TIP3    H227335   1.988   4.311  14.825  0.0133  0.7870  0.7050
 1974TIP3   OH227336   3.031   5.015   0.479 -0.2636 -0.6027  0.7867
 1974TIP3    H127337   3.048   4.921   0.482 -0.3411 -0.5948  1.7719
 1974TIP3    H227338   3.048   5.040   0.388  1.9100 -1.1654  1.0010
 1975TIP3   OH227339   4.277   5.833  17.003 -0.1480  0.0501 -0.6606
 1975TIP3    H127340   4.238   5.750  16.978 -1.1962  0.2316  0.2887
 1975TIP3    H227341   4.365   5.811  17.033  0.7569 -0.3009 -3.3485
 1976TIP3   OH227342   3.164   0.267   2.355  0.2696 -0.5309  1.1200
 1976TIP3    H127343   3.131   0.356   2.367 -0.3492 -0.5692 -0.0801
 1976TIP3    H227344   3.165   0.255   2.260  1.2533 -1.4764  1.2383
 1977TIP3   OH227345   0.177   3.762  16.232 -0.0554  0.2083 -0.4974
 1977TIP3    H127346   0.095   3.809  16.222 -0.0355  0.4078  0.2553
 1977TIP3    H227347   0.210   3.752  16.142 -0.3559  1.0902 -0.7150
 1978TIP3   OH227348   5.881   5.977   4.493  0.0776 -0.3841 -1.0562
 1978TIP3    H127349   5.918   5.889   4.505  2.2188  0.7280  1.6899
 1978TIP3    H227350   5.820   5.987   4.566 -0.2248  0.3790 -1.4093
 1979TIP3   OH227351   5.237   4.459  14.228  0.1085  0.1098  0.5505
 1979TIP3    H127352   5.248   4.408  14.308  3.0506 -1.4980 -0.7040
 1979TIP3    H227353   5.322   4.500  14.213 -0.5507  0.9213 -1.3864
 1980TIP3   OH227354   0.553   3.248  11.978  0.2430  0.4743 -0.0090
 1980TIP3    H127355   0.525   3.164  11.940 -0.7296  0.2960  1.0720
 1980TIP3    H227356   0.637   3.265  11.935 -0.4415 -0.0828 -1.6772
 1981TIP3   OH227357   2.410   3.663   4.251 -0.0896  0.5600 -0.1082
 1981TIP3    H127358   2.341   3.628   4.308 -1.0735  1.0143 -0.9915
 1981TIP3    H227359   2.395   3.620   4.166  0.2852  1.1905 -0.4994
 1982TIP3   OH227360   1.250   2.006  14.877 -0.8274  0.5522  0.2685
 1982TIP3    H127361   1.172   1.997  14.822  0.0608 -1.3592 -0.7899
 1982TIP3    H227362   1.301   1.926  14.860  1.8580  2.1765  0.0977
 1983TIP3   OH227363   1.935   2.607  16.952 -0.3767 -0.5085 -0.5454
 1983TIP3    H127364   1.889   2.561  17.022  0.5251 -0.6855 -0.0527
 1983TIP3    H227365   1.987   2.674  16.997 -0.2020 -0.2684 -1.0917
 1984TIP3   OH227366   2.086   0.576   3.537 -0.3784 -0.1311  0.5918
 1984TIP3    H127367   2.172   0.542   3.511 -0.2006  0.0127  0.9962
 1984TIP3    H227368   2.104   0.656   3.586 -0.7739  0.2551  0.1279
 1985TIP3   OH227369   1.027   5.823   0.652 -0.1261 -0.0181  0.0294
 1985TIP3    H127370   1.018   5.804   0.745 -0.4268  0.2568  0.0562
 1985TIP3    H227371   1.105   5.774   0.625  0.1358  0.1359  0.4898
 1986TIP3   OH227372   0.015   0.126  16.545  0.2991 -0.2015  0.1497
 1986TIP3    H127373  -0.046   0.183  16.500  2.7472  2.5059 -0.0083
 1986TIP3    H227374   0.027   0.166  16.631  0.4558 -1.7570  0.8957
 1987TIP3   OH227375   6.161   5.215  14.113  0.1193 -0.0715  0.1908
 1987TIP3    H127376   6.155   5.309  14.132  1.9510 -0.2562  2.0212
 1987TIP3    H227377   6.109   5.204  14.034 -2.0279  2.0951  1.1318
 1988TIP3   OH227378   4.694   4.641   4.363  0.5076  0.3944  0.3888
 1988TIP3    H127379   4.655   4.657   4.449  1.8797 -1.5892  1.4730
 1988TIP3    H227380   4.719   4.548   4.365  0.2816  0.1969 -2.3002
 1989TIP3   OH227381   0.090   0.153   5.822 -0.0970  0.4424  0.2412
 1989TIP3    H127382   0.095   0.186   5.911 -0.6805  1.7957 -0.2109
 1989TIP3    H227383   0.011   0.192   5.786  2.2203  3.3082 -2.2003
 1990TIP3   OH227384   0.342   4.680   4.018  0.2511 -0.1291 -0.0550
 1990TIP3    H127385   0.400   4.659   4.092  0.0392 -0.9426 -0.1118
 1990TIP3    H227386   0.277   4.610   4.018 -0.0738  0.1657 -0.6824
 1991TIP3   OH227387   0.487   6.408  10.777 -0.4159 -0.6126  0.4247
 1991TIP3    H127388   0.443   6.329  10.807 -2.1969 -0.2994 -1.1447
 1991TIP3    H227389   0.434   6.480  10.812  0.1014 -0.1649  0.2988
 1992TIP3   OH227390   0.280   5.875   4.906  0.0547 -0.1183  0.6717
 1992TIP3    H127391   0.372   5.886   4.881  0.5425 -2.6602  1.1066
 1992TIP3    H227392   0.284   5.842   4.996 -1.1886 -1.7577  0.1664
 1993TIP3   OH227393   5.227   4.311  11.931  0.3308 -0.3688  0.4559
 1993TIP3    H127394   5.226   4.372  12.004 -0.7785  0.3511 -0.1453
 1993TIP3    H227395   5.286   4.241  11.960  1.7851  1.0479  1.0808
 1994TIP3   OH227396   1.711   4.605   0.541  0.3444  0.2627  0.2800
 1994TIP3    H127397   1.787   4.568   0.495  0.5495  0.3459  0.5518
 1994TIP3    H227398   1.657   4.642   0.471  0.7352  0.5330  0.1190
 1995TIP3   OH227399   5.792   1.301   2.906  0.1055  0.2399 -0.0751
 1995TIP3    H127400   5.780   1.292   2.812  3.3891  0.3697 -0.6319
 1995TIP3    H227401   5.800   1.211   2.938 -1.2702  0.1835  0.1824
 1996TIP3   OH227402   5.120   4.493  13.181  0.3006  0.0473  0.4587
 1996TIP3    H127403   5.195   4.468  13.235  1.1219  2.1881  0.4449
 1996TIP3    H227404   5.052   4.518  13.243  0.7952  1.2646  0.5471
 1997TIP3   OH227405   2.262   1.303  15.707 -0.0426 -0.0092 -0.1799
 1997TIP3    H127406   2.193   1.362  15.736  0.7799  0.9407 -0.1198
 1997TIP3    H227407   2.315   1.356  15.647  0.5705 -0.7605 -0.3119
 1998TIP3   OH227408   5.415   4.821   6.684  0.3913  0.0330 -0.2627
 1998TIP3    H127409   5.414   4.732   6.717  2.0799 -0.1624 -0.6427
 1998TIP3    H227410   5.472   4.869   6.744  0.6321  0.5078 -0.8548
 1999TIP3   OH227411   6.042   3.951  14.181 -0.2069 -0.5517  0.6095
 1999TIP3    H127412   5.948   3.936  14.170 -0.2319  0.2706 -0.4336
 1999TIP3    H227413   6.072   3.877  14.234 -1.1610 -1.6654 -0.3580
 2000TIP3   OH227414   3.248   4.014  14.682  0.0691  0.2297 -0.1079
 2000TIP3    H127415   3.215   3.988  14.597  0.1236 -2.5290  0.6032
 2000TIP3    H227416   3.336   3.976  14.686  1.5259  3.2860 -0.0855
 2001TIP3   OH227417   2.947   1.076   4.987 -0.1955 -0.4492  0.4662
 2001TIP3    H127418   3.011   1.139   4.953 -0.7694 -0.2034 -0.1823
 2001TIP3    H227419   2.881   1.070   4.918 -0.1838 -1.7191  0.5453
 2002TIP3   OH227420   4.692   1.384  12.338 -0.5270 -0.3879 -0.0303
 2002TIP3    H127421   4.689   1.296  12.300 -1.0245 -0.1185 -0.6340
 2002TIP3    H227422   4.635   1.436  12.282  0.6437  0.5864 -0.3395
 2003TIP3   OH227423   4.031   0.025  12.000 -0.6903 -0.0389 -0.0516
 2003TIP3    H127424   4.096   0.051  12.065 -0.5572  0.6509 -0.4614
 2003TIP3    H227425   3.956  -0.004  12.052 -1.9762  3.8054  0.5031
 2004TIP3   OH227426   1.638   1.288   6.073 -0.0439  0.5243  0.1217
 2004TIP3    H127427   1.674   1.295   6.161  1.6333 -0.9327 -0.4064
 2004TIP3    H227428   1.635   1.194   6.055 -0.5125  0.7845 -1.3106
 2005TIP3   OH227429   0.871   5.197  15.908 -0.1011  0.4042  0.0380
 2005TIP3    H127430   0.896   5.110  15.937  1.3322  0.4126 -1.0361
 2005TIP3    H227431   0.784   5.186  15.870 -0.3925 -0.3300  0.9054
 2006TIP3   OH227432   6.132   5.688   2.907  0.1757 -0.0298  0.6796
 2006TIP3    H127433   6.205   5.695   2.845  0.3535 -1.8818  0.6212
 2006TIP3    H227434   6.109   5.595   2.906 -0.5600  0.0966  2.5685
 2007TIP3   OH227435   4.427   3.981  13.552  0.3147 -0.4459 -0.0104
 2007TIP3    H127436   4.458   3.971  13.642  0.2782 -0.9610 -0.0529
 2007TIP3    H227437   4.420   4.076  13.539 -1.6228 -0.3882  1.1916
 2008TIP3   OH227438   2.991   3.841   5.296  0.3144  0.6859  0.0622
 2008TIP3    H127439   3.072   3.889   5.313  0.3542  0.3917  0.7205
 2008TIP3    H227440   2.990   3.771   5.361  0.1221 -0.0504 -0.7196
 2009TIP3   OH227441   6.645   5.400   2.883 -0.3210 -0.3278 -0.3012
 2009TIP3    H127442   6.710   5.421   2.816 -1.5425  1.3577 -1.0307
 2009TIP3    H227443   6.659   5.307   2.901  1.1682 -0.4165 -1.6472
 2010TIP3   OH227444   3.363   5.447   5.671 -0.2165  0.0472  0.0931
 2010TIP3    H127445   3.307   5.522   5.690  0.5249  0.9287 -1.0630
 2010TIP3    H227446   3.307   5.370   5.685 -1.0954  0.8138  0.9221
 2011TIP3   OH227447   1.819   4.280  14.212  0.2704  0.1391  0.0764
 2011TIP3    H127448   1.798   4.351  14.272  0.3805 -0.8917  1.3758
 2011TIP3    H227449   1.755   4.287  14.141 -1.1153  0.2080  1.3021
 2012TIP3   OH227450   6.775   5.691  12.497  0.0660 -0.2794 -0.0840
 2012TIP3    H127451   6.694   5.729  12.532 -0.2814 -1.6881  0.7600
 2012TIP3    H227452   6.764   5.692  12.402  0.4771  2.4893 -0.1722
 2013TIP3   OH227453   5.041   6.609  11.637 -0.2981  0.2418 -0.1872
 2013TIP3    H127454   4.980   6.539  11.614  0.6316 -0.5725 -0.2388
 2013TIP3    H227455   5.025   6.677  11.572 -1.9027  0.5248  0.4524
 2014TIP3   OH227456   3.770   2.115   1.811  0.0680 -0.5491 -0.0188
 2014TIP3    H127457   3.691   2.086   1.765 -0.1643 -0.0010  0.0206
 2014TIP3    H227458   3.842   2.096   1.751 -0.4094  2.1745 -1.6557
 2015TIP3   OH227459   2.953   1.921  12.503  0.1173  0.5714  0.5332
 2015TIP3    H127460   3.047   1.908  12.514  0.3223  1.0444 -0.5452
 2015TIP3    H227461   2.940   2.016  12.512 -0.4180  0.4100  1.7081
 2016TIP3   OH227462   1.833   3.753  10.734 -0.1977  0.0680  0.5533
 2016TIP3    H127463   1.879   3.700  10.798  0.9797 -2.5518 -2.2204
 2016TIP3    H227464   1.896   3.820  10.707 -1.0034  1.7704  2.6081
 2017TIP3   OH227465   4.312   6.722  16.722  0.5148  0.1917  0.2036
 2017TIP3    H127466   4.240   6.664  16.697  0.3834  1.4377 -2.7169
 2017TIP3    H227467   4.270   6.794  16.768 -0.2262  1.0526 -1.7229
 2018TIP3   OH227468   0.333   2.532   2.468 -0.1318 -0.1015  0.0746
 2018TIP3    H127469   0.254   2.479   2.462  0.4623 -0.8696 -1.6613
 2018TIP3    H227470   0.402   2.476   2.432  0.8341  1.2330 -0.2254
 2019TIP3   OH227471   6.742   0.752   5.504 -0.5044 -0.3009  0.2272
 2019TIP3    H127472   6.676   0.729   5.570  0.0748  0.5474  1.1321
 2019TIP3    H227473   6.698   0.740   5.420 -2.5096  2.1506  0.8194
 2020TIP3   OH227474   4.993   1.254  12.170 -0.5594  0.1959 -0.6503
 2020TIP3    H127475   4.916   1.279  12.119 -1.6577 -0.8827  0.4294
 2020TIP3    H227476   4.991   1.312  12.247 -1.9985 -1.7063  0.8534
 2021TIP3   OH227477   0.743   5.380   4.407 -0.3037  0.3800  0.2059
 2021TIP3    H127478   0.672   5.414   4.353  0.4289  0.7293 -0.5604
 2021TIP3    H227479   0.778   5.457   4.451 -0.3826  0.2105  0.5681
 2022TIP3   OH227480   2.478   5.499   4.165  0.2522  0.3282  0.1097
 2022TIP3    H127481   2.554   5.538   4.208  0.1738 -0.0008  0.5616
 2022TIP3    H227482   2.410   5.567   4.169  0.3117  0.3762  0.3210
 2023TIP3   OH227483   6.690   5.721  10.593  0.0936  0.2222  0.3286
 2023TIP3    H127484   6.743   5.748  10.667  0.6593 -2.4187  1.0045
 2023TIP3    H227485   6.742   5.745  10.516  0.7595  0.5624  0.8769
 2024TIP3   OH227486   0.520   0.441   1.687  0.0465 -0.5171  0.1920
 2024TIP3    H127487   0.561   0.514   1.734 -2.5473  1.6304 -0.5757
 2024TIP3    H227488   0.505   0.475   1.599  0.3154 -2.6604 -0.7375
 2025TIP3   OH227489   4.015   6.024  11.243 -0.3505 -0.3096  0.4991
 2025TIP3    H127490   4.088   6.041  11.183 -0.3923 -0.2635  0.4618
 2025TIP3    H227491   3.946   6.085  11.215  0.2989  1.0778  1.7876
 2026TIP3   OH227492   4.358   5.354   3.296 -0.0726  0.0330 -0.2225
 2026TIP3    H127493   4.289   5.407   3.336  0.2335  0.2506  0.0222
 2026TIP3    H227494   4.316   5.311   3.222 -0.5335 -0.0207  0.0688
 2027TIP3   OH227495   1.781   5.264  13.592 -0.3059  0.5284  0.1213
 2027TIP3    H127496   1.761   5.211  13.515  1.6329 -1.8248  1.1273
 2027TIP3    H227497   1.716   5.239  13.657 -0.6956  1.0093 -0.0750
 2028TIP3   OH227498   2.504   6.489   5.311 -0.3804  0.9082 -0.3421
 2028TIP3    H127499   2.527   6.545   5.237 -0.0681  2.1369  0.6455
 2028TIP3    H227500   2.582   6.438   5.328  0.7503  2.9779  1.1588
 2029TIP3   OH227501   6.741   2.206  16.927  0.7142 -0.4621  0.5173
 2029TIP3    H127502   6.753   2.300  16.937  0.4951 -0.4424  0.6056
 2029TIP3    H227503   6.824   2.175  16.891  0.3414 -0.0471 -0.7545
 2030TIP3   OH227504   3.378   5.869  16.934 -0.5062  0.3109  0.1309
 2030TIP3    H127505   3.370   5.874  16.839  1.5188 -0.7273 -0.1561
 2030TIP3    H227506   3.294   5.836  16.964 -1.1803  0.6644 -1.2857
 2031TIP3   OH227507   6.500   5.009   1.219  0.3293 -0.4761  0.2350
 2031TIP3    H127508   6.489   4.943   1.151 -1.3519 -1.1417  1.1092
 2031TIP3    H227509   6.415   5.015   1.262  1.4386 -0.3976  2.5915
 2032TIP3   OH227510   5.723   3.661   1.581  0.2665  0.8498  0.4676
 2032TIP3    H127511   5.733   3.595   1.512 -0.1334  0.3312  0.9035
 2032TIP3    H227512   5.712   3.744   1.533  0.7399  0.6060 -0.0799
 2033TIP3   OH227513   3.311   6.419  16.779  0.7732  0.6941  0.0912
 2033TIP3    H127514   3.271   6.498  16.742 -0.5726 -0.8786 -2.0710
 2033TIP3    H227515   3.257   6.347  16.747  2.8163 -1.2539  0.6958
 2034TIP3   OH227516   5.444   1.903  17.255  0.1033 -0.5737 -0.6830
 2034TIP3    H127517   5.391   1.845  17.310 -0.7721  2.0344  1.3892
 2034TIP3    H227518   5.533   1.890  17.286 -0.3557  0.7321  1.3691
 2035TIP3   OH227519   5.534   5.103   4.854  0.0430  0.1305  0.1136
 2035TIP3    H127520   5.535   5.011   4.825  0.5119 -0.5281  2.0429
 2035TIP3    H227521   5.469   5.105   4.924  0.8691  1.0007  0.8733
 2036TIP3   OH227522   2.806   6.404   4.628  0.4280 -0.4860  0.3494
 2036TIP3    H127523   2.799   6.323   4.677 -1.2267 -0.7339 -0.2228
 2036TIP3    H227524   2.752   6.466   4.677  0.3578 -0.1966 -0.0890
 2037TIP3   OH227525   6.630   4.614  12.962 -0.0534  0.1589 -0.2806
 2037TIP3    H127526   6.672   4.625  13.047  0.0632  0.5085 -0.3807
 2037TIP3    H227527   6.591   4.700  12.943 -1.1057 -0.2507 -0.0353
 2038TIP3   OH227528   2.635   0.999   5.113 -0.6441 -0.4055 -0.2308
 2038TIP3    H127529   2.646   1.011   5.019  1.4080  0.6958  0.1042
 2038TIP3    H227530   2.649   1.086   5.150  0.0485 -1.1051  1.2000
 2039TIP3   OH227531   6.018   6.411  14.001  0.5047 -0.0328  0.0711
 2039TIP3    H127532   5.997   6.503  13.986  0.0516 -0.0474  0.6034
 2039TIP3    H227533   6.086   6.412  14.067  2.6737  0.0393 -2.0173
 2040TIP3   OH227534   6.249   5.789   1.851 -0.1084  0.1361 -0.9190
 2040TIP3    H127535   6.186   5.742   1.797  1.3710 -0.2330 -2.4183
 2040TIP3    H227536   6.198   5.858   1.894 -1.5738 -0.3491 -1.8225
 2041TIP3   OH227537   4.238   1.096   4.725  0.1511  0.2541  0.5398
 2041TIP3    H127538   4.269   1.018   4.770 -0.3877 -0.9928 -1.1629
 2041TIP3    H227539   4.316   1.132   4.683  0.0687 -0.5326 -0.3227
 2042TIP3   OH227540   0.941   1.859  15.948  0.0064 -0.2249  0.2860
 2042TIP3    H127541   0.983   1.815  16.022  0.6308 -0.3814 -0.1469
 2042TIP3    H227542   0.862   1.807  15.931  1.5025 -2.1964 -1.1897
 2043TIP3   OH227543   3.543   2.738   4.825  0.0090  0.1269 -0.4941
 2043TIP3    H127544   3.535   2.826   4.789 -0.1282 -1.1258 -3.8504
 2043TIP3    H227545   3.547   2.681   4.749  1.0248 -2.7414  1.5385
 2044TIP3   OH227546   4.259   5.300  13.761  0.3044  0.2302 -0.0254
 2044TIP3    H127547   4.306   5.351  13.826  2.5166 -0.2077 -1.1835
 2044TIP3    H227548   4.261   5.210  13.795  0.7597  0.1357 -0.2846
 2045TIP3   OH227549   2.397   4.581  17.307 -0.0852  0.2466 -0.3409
 2045TIP3    H127550   2.464   4.567  17.373  0.5916  0.4827 -0.9642
 2045TIP3    H227551   2.371   4.673  17.318  0.8062  0.6006 -1.1003
 2046TIP3   OH227552   1.698   6.293   2.600 -0.1034 -0.2708 -0.2928
 2046TIP3    H127553   1.633   6.234   2.637 -2.0519  2.1666  0.4456
 2046TIP3    H227554   1.723   6.351   2.672  0.5470  0.8078 -1.3382
 2047TIP3   OH227555   2.052   4.863   0.157 -0.2929  0.1126  0.2027
 2047TIP3    H127556   2.067   4.862   0.251 -2.3725 -0.0525  0.5655
 2047TIP3    H227557   2.029   4.772   0.135 -1.3331  0.4536 -0.1757
 2048TIP3   OH227558   6.240   1.467  13.499 -0.1975 -0.3058  0.5421
 2048TIP3    H127559   6.313   1.442  13.556  0.2735  1.0592  0.5689
 2048TIP3    H227560   6.162   1.446  13.551  0.1091 -2.4579  0.2271
 2049TIP3   OH227561   0.573   5.591   4.377 -0.4452 -0.0373  0.0539
 2049TIP3    H127562   0.636   5.651   4.336  0.3568 -1.8363 -1.5027
 2049TIP3    H227563   0.576   5.613   4.470  1.1214  1.1440 -0.2342
 2050TIP3   OH227564   5.059   0.586  16.403 -0.3293  0.2011  0.2485
 2050TIP3    H127565   5.134   0.626  16.359 -0.1005 -0.5618 -0.0769
 2050TIP3    H227566   4.992   0.654  16.404  0.1424  0.6718 -0.0571
 2051TIP3   OH227567   0.763   5.262  12.430  0.0434  0.4887 -0.4033
 2051TIP3    H127568   0.842   5.255  12.483  0.4620 -2.4241 -1.2250
 2051TIP3    H227569   0.783   5.330  12.366  1.5636  0.3877 -0.0614
 2052TIP3   OH227570   4.444   1.847  11.810 -0.4473 -0.4146  0.0944
 2052TIP3    H127571   4.404   1.923  11.767 -0.5712 -1.0732 -0.9966
 2052TIP3    H227572   4.532   1.877  11.834  0.2446 -0.4921 -2.1428
 2053TIP3   OH227573   0.902   4.956  14.228  0.3823  0.1076 -0.3808
 2053TIP3    H127574   0.981   4.969  14.175  0.6412  0.7526  0.1635
 2053TIP3    H227575   0.909   5.019  14.299 -1.2407  1.0650 -1.0186
 2054TIP3   OH227576   0.714   5.602   0.383  0.6008  0.4435  0.4254
 2054TIP3    H127577   0.801   5.624   0.416  1.1200  2.8204 -2.1200
 2054TIP3    H227578   0.715   5.506   0.375  2.6412  0.3416  1.2929
 2055TIP3   OH227579   3.658   1.035   4.828  0.3692  0.1191  0.5119
 2055TIP3    H127580   3.738   1.061   4.874  0.7531 -0.5917  0.2628
 2055TIP3    H227581   3.690   0.993   4.748 -0.2254 -0.9187  0.8013
 2056TIP3   OH227582   2.268   5.530  12.729 -0.2044  0.3196  0.0762
 2056TIP3    H127583   2.243   5.526  12.637 -0.0126  0.1298  0.0301
 2056TIP3    H227584   2.310   5.446  12.746  2.3226  1.3683 -0.4367
 2057TIP3   OH227585   1.329   1.722  11.789 -1.0607  0.5862  0.7677
 2057TIP3    H127586   1.416   1.759  11.771 -1.0020  0.7571  1.3787
 2057TIP3    H227587   1.289   1.783  11.849 -1.7098  0.6308  0.3026
 2058TIP3   OH227588   6.402   6.041   0.753  0.3489 -0.1056  0.5070
 2058TIP3    H127589   6.491   6.076   0.746 -0.0143  0.9550  0.8553
 2058TIP3    H227590   6.346   6.114   0.726 -0.3676 -1.4093 -1.8123
 2059TIP3   OH227591   0.753   4.309  16.955  0.1118  0.4038  0.2436
 2059TIP3    H127592   0.684   4.271  16.900 -0.4397  0.4770  0.8786
 2059TIP3    H227593   0.799   4.233  16.990  0.1863  0.3502  0.0324
 2060TIP3   OH227594   2.229   5.617  10.827 -0.0393 -0.2502 -0.0248
 2060TIP3    H127595   2.137   5.599  10.812 -0.4734  0.0213  2.0047
 2060TIP3    H227596   2.232   5.711  10.848  0.5581 -0.4278  0.7410
 2061TIP3   OH227597   1.700   0.617  13.205  0.1132 -0.1465  0.2500
 2061TIP3    H127598   1.685   0.706  13.237  0.4530 -0.0890  0.2506
 2061TIP3    H227599   1.788   0.620  13.167  0.2177 -0.5404  0.4593
 2062TIP3   OH227600   3.212   4.381  13.862 -0.0787  0.0679  0.1528
 2062TIP3    H127601   3.295   4.334  13.858 -0.2919 -0.3904  0.9549
 2062TIP3    H227602   3.235   4.469  13.893  0.3588  0.6294 -1.6459
 2063TIP3   OH227603   5.875   1.654  14.810 -0.0337 -0.4702  1.0358
 2063TIP3    H127604   5.804   1.717  14.798 -0.9180 -1.5778  0.2525
 2063TIP3    H227605   5.937   1.698  14.869  0.0210  1.6250 -0.4660
 2064TIP3   OH227606   5.670   2.195  10.970 -0.0698  0.6336 -0.5930
 2064TIP3    H127607   5.621   2.185  10.888 -2.4257  2.4038  0.4913
 2064TIP3    H227608   5.627   2.137  11.032  1.9925 -1.0574 -0.6044
 2065TIP3   OH227609   3.527   5.788  13.902  0.2820 -0.1307 -0.1558
 2065TIP3    H127610   3.605   5.755  13.857  1.2285  2.3710 -0.5332
 2065TIP3    H227611   3.458   5.785  13.837  0.7694  0.2168 -0.6934
 2066TIP3   OH227612   4.481   1.412   0.890 -0.3362 -0.1624  0.0853
 2066TIP3    H127613   4.517   1.493   0.924 -0.6878  0.4082 -0.8548
 2066TIP3    H227614   4.549   1.347   0.906  0.4984  0.5831 -0.3395
 2067TIP3   OH227615   0.678   4.859   5.019  0.4865  0.6659 -0.1062
 2067TIP3    H127616   0.631   4.921   4.964  0.1496  0.6687  0.1864
 2067TIP3    H227617   0.629   4.777   5.010  0.9265  0.4382 -0.4888
 2068TIP3   OH227618   2.048   0.626  14.346  0.4992  0.0624  0.0903
 2068TIP3    H127619   2.008   0.597  14.264  0.4967 -0.0391  0.1280
 2068TIP3    H227620   2.142   0.610  14.335  0.4289 -0.5748  0.3617
 2069TIP3   OH227621   3.071   4.457   1.644 -0.2234  0.3576 -0.2505
 2069TIP3    H127622   3.016   4.431   1.570  0.7096  1.2340 -1.2829
 2069TIP3    H227623   3.070   4.552   1.643  1.2240  0.3928 -0.2404
 2070TIP3   OH227624   0.027   1.792  11.794  0.2848 -0.8373  0.0491
 2070TIP3    H127625   0.060   1.810  11.706  0.3435  0.1179  0.2528
 2070TIP3    H227626   0.105   1.785  11.849  0.2592 -1.7249 -0.0239
 2071TIP3   OH227627   5.072   3.732  12.155 -0.0922 -0.2452 -0.6031
 2071TIP3    H127628   5.156   3.719  12.200  0.0317  2.0362 -0.0317
 2071TIP3    H227629   5.090   3.708  12.064  0.3035 -2.6826  0.0543
 2072TIP3   OH227630   4.696   3.893   0.165 -0.1479  0.0304 -0.5377
 2072TIP3    H127631   4.667   3.982   0.189  3.8383  1.9958 -2.1327
 2072TIP3    H227632   4.722   3.854   0.248 -2.7051 -0.0864  0.3008
 2073TIP3   OH227633   4.336   5.581  13.243  0.4984 -0.2287  0.1276
 2073TIP3    H127634   4.254   5.541  13.214  0.8933 -0.4016 -0.7815
 2073TIP3    H227635   4.391   5.507  13.267  0.9337 -0.2069 -0.7594
 2074TIP3   OH227636   5.529   5.169  14.308 -0.3560 -0.8508 -0.0083
 2074TIP3    H127637   5.570   5.207  14.229  1.7203 -0.5739  1.1311
 2074TIP3    H227638   5.487   5.089  14.276  0.1907 -0.6094 -1.4489
 2075TIP3   OH227639   0.829   0.406  11.998  0.4416 -0.3438 -0.3547
 2075TIP3    H127640   0.833   0.376  12.088 -0.4222  0.4969 -0.0212
 2075TIP3    H227641   0.920   0.427  11.976  0.9341 -2.2244 -0.2950
 2076TIP3   OH227642   0.641   2.143  15.629 -0.2502  0.7741  0.1519
 2076TIP3    H127643   0.668   2.085  15.700  2.0175  0.9675 -0.4753
 2076TIP3    H227644   0.688   2.225  15.646  1.2948  0.4673 -2.1110
 2077TIP3   OH227645   3.034   4.056  15.889  0.1447 -0.4812  0.8698
 2077TIP3    H127646   3.080   3.981  15.850 -0.8460 -1.2555  1.1640
 2077TIP3    H227647   3.090   4.083  15.961  0.7425 -0.6368  0.4780
 2078TIP3   OH227648   4.938   4.416  16.375 -0.2241  0.3574  0.2147
 2078TIP3    H127649   4.853   4.420  16.418  0.1083  0.4630  0.8744
 2078TIP3    H227650   5.002   4.433  16.445  0.3007  1.2302 -0.4487
 2079TIP3   OH227651   2.612   2.619   2.834 -0.3004 -0.2729 -0.5378
 2079TIP3    H127652   2.700   2.602   2.801  0.1776 -0.8130  0.9540
 2079TIP3    H227653   2.584   2.698   2.788  1.0829  0.0884 -0.8025
 2080TIP3   OH227654   3.899   0.277   1.564 -0.2611 -0.7699  0.3385
 2080TIP3    H127655   3.954   0.267   1.641  0.5674  2.5482  0.3574
 2080TIP3    H227656   3.960   0.281   1.490 -0.3214  2.3520  0.3010
 2081TIP3   OH227657   0.709   4.760  16.000  0.3849  0.2052 -0.1220
 2081TIP3    H127658   0.741   4.670  15.995 -2.1814 -0.8469  0.3615
 2081TIP3    H227659   0.697   4.787  15.909  0.9948 -0.0094 -0.2663
 2082TIP3   OH227660   1.003   2.001   3.162 -0.1705 -0.4961  0.1582
 2082TIP3    H127661   0.924   1.952   3.139  0.6282 -0.7169 -2.4098
 2082TIP3    H227662   1.071   1.933   3.171  0.1694 -0.1492  0.2408
 2083TIP3   OH227663   4.471   1.217   5.978  0.2182 -0.5501 -0.2896
 2083TIP3    H127664   4.404   1.226   5.910  0.8249 -1.4904 -1.0339
 2083TIP3    H227665   4.435   1.153   6.039 -0.6330  0.8040  0.7032
 2084TIP3   OH227666   6.524   1.694  12.866  0.1823 -0.0890  0.1207
 2084TIP3    H127667   6.554   1.681  12.956  0.2467 -0.5566  0.0386
 2084TIP3    H227668   6.429   1.701  12.873  0.3404  2.2200  0.4706
 2085TIP3   OH227669   2.848   3.477   3.090  0.3934  0.0123  0.5744
 2085TIP3    H127670   2.909   3.542   3.125  0.5508 -0.2423  0.7743
 2085TIP3    H227671   2.761   3.511   3.111  0.4595  0.4743  0.1152
 2086TIP3   OH227672   1.765   4.488   0.788 -0.2269 -0.0728  0.2555
 2086TIP3    H127673   1.720   4.507   0.706  2.0259  1.0342 -0.8265
 2086TIP3    H227674   1.788   4.574   0.824 -0.0630 -0.5691  1.3915
 2087TIP3   OH227675   5.987   5.112  15.847  0.0141  0.1883  0.6539
 2087TIP3    H127676   5.921   5.080  15.787 -0.4567  0.6505  0.9194
 2087TIP3    H227677   5.938   5.147  15.922  0.5907 -0.4723  1.3595
 2088TIP3   OH227678   5.902   2.679   5.778 -0.2903 -0.3544 -0.2711
 2088TIP3    H127679   5.842   2.745   5.811  0.7631  0.2389  0.4949
 2088TIP3    H227680   5.985   2.725   5.765  0.1804 -1.2884 -0.7138
 2089TIP3   OH227681   0.106   0.586  12.257 -0.7109 -0.2163 -0.5620
 2089TIP3    H127682   0.026   0.589  12.204 -0.6215 -0.4973 -0.7163
 2089TIP3    H227683   0.112   0.673  12.297 -2.2027 -0.8010  1.0705
 2090TIP3   OH227684   2.275   3.286  15.564 -0.1649 -0.1855  0.1573
 2090TIP3    H127685   2.228   3.304  15.645  0.0619 -0.3205  0.3212
 2090TIP3    H227686   2.309   3.370  15.535 -0.5226 -0.0849  0.0283
 2091TIP3   OH227687   1.576   6.616  14.367  0.1856 -0.3425  0.4327
 2091TIP3    H127688   1.608   6.526  14.369  0.4254 -0.2525  1.7848
 2091TIP3    H227689   1.512   6.620  14.438 -1.5472 -0.0332 -1.0713
 2092TIP3   OH227690   3.658   1.605  16.143 -0.1285  0.0561 -0.7618
 2092TIP3    H127691   3.671   1.512  16.160  1.3885  0.3876  0.0074
 2092TIP3    H227692   3.571   1.624  16.180  0.5769 -0.5391  1.3038
 2093TIP3   OH227693   5.505   2.224   2.374 -0.1002 -0.7348  0.4362
 2093TIP3    H127694   5.458   2.301   2.405 -1.7295 -0.5794 -2.1227
 2093TIP3    H227695   5.466   2.151   2.422 -1.2933 -0.3290  0.1237
 2094TIP3   OH227696   4.895   2.185  13.503  0.9234 -0.3056 -0.1228
 2094TIP3    H127697   4.896   2.122  13.431 -0.3987 -0.7644  0.2329
 2094TIP3    H227698   4.812   2.168  13.549  1.3048  0.6024  0.9493
 2095TIP3   OH227699   5.736   0.236  13.000  0.2033  0.1136  0.5507
 2095TIP3    H127700   5.779   0.311  13.041  1.4317 -0.3908  0.2326
 2095TIP3    H227701   5.651   0.270  12.970  0.6367  1.3059  0.6325
 2096TIP3   OH227702   0.103   2.084   2.080  0.3837  0.5419 -0.0577
 2096TIP3    H127703   0.047   2.017   2.039  0.1911 -0.2634  1.4487
 2096TIP3    H227704   0.190   2.067   2.045 -0.1839  1.5265 -2.0912
 2097TIP3   OH227705   0.560   6.043  14.922  0.5512 -0.2796 -0.1966
 2097TIP3    H127706   0.515   6.120  14.956  1.8783 -0.1939  1.4989
 2097TIP3    H227707   0.546   6.047  14.827 -0.7450  1.1533  0.0108
 2098TIP3   OH227708   2.571   0.873   1.135  0.2021 -0.2482  0.0659
 2098TIP3    H127709   2.592   0.860   1.043 -0.8223  2.3783 -0.6383
 2098TIP3    H227710   2.655   0.870   1.181  0.8057 -0.7775 -1.0594
 2099TIP3   OH227711   5.582   4.581   4.632  0.3088 -1.0389  0.3780
 2099TIP3    H127712   5.501   4.588   4.580  0.3812  2.6222  0.4900
 2099TIP3    H227713   5.652   4.579   4.567  0.2470 -0.6250  0.2957
 2100TIP3   OH227714   2.110   1.291  16.775  0.3257  0.5325  0.7024
 2100TIP3    H127715   2.108   1.335  16.691  1.0108 -2.1646 -0.8540
 2100TIP3    H227716   2.043   1.223  16.769 -0.3721  0.9465  2.7873
 2101TIP3   OH227717   1.854   0.768  16.079  0.8325 -0.4398  0.2543
 2101TIP3    H127718   1.831   0.675  16.083 -1.1565 -0.0484 -0.8321
 2101TIP3    H227719   1.919   0.772  16.008 -0.9711 -0.7294 -1.5141
 2102TIP3   OH227720   6.237   2.123  13.561 -0.2764  1.2014  0.1297
 2102TIP3    H127721   6.240   2.218  13.549  0.5904  1.1492 -0.1652
 2102TIP3    H227722   6.304   2.089  13.501  0.6633  0.5435  1.4838
 2103TIP3   OH227723   5.717   5.402  17.371  0.1930 -0.3557 -0.0263
 2103TIP3    H127724   5.711   5.494  17.346  1.2229 -0.0122  0.9031
 2103TIP3    H227725   5.626   5.376  17.385 -0.0726  0.7834  0.5442
 2104TIP3   OH227726   2.227   4.169  10.666 -0.6361 -0.0188 -0.4058
 2104TIP3    H127727   2.136   4.197  10.669 -0.8563 -0.7364  2.6663
 2104TIP3    H227728   2.277   4.250  10.656 -1.5059  0.8183  1.5245
 2105TIP3   OH227729   5.119   5.724   4.220 -0.5308 -0.3570 -0.4392
 2105TIP3    H127730   5.100   5.658   4.154  1.3454 -0.8322 -0.5562
 2105TIP3    H227731   5.207   5.703   4.251 -0.2684  1.4979  0.2318
 2106TIP3   OH227732   2.026   6.487   6.167 -1.0259 -0.2757 -0.0337
 2106TIP3    H127733   2.084   6.533   6.106  0.8490 -2.9379 -0.4803
 2106TIP3    H227734   2.068   6.498   6.252 -0.7820 -0.7918 -0.0822
 2107TIP3   OH227735   1.999   6.100   5.288 -0.1465  0.1260  0.7809
 2107TIP3    H127736   1.909   6.091   5.257 -0.8716  2.2998  2.0811
 2107TIP3    H227737   2.051   6.046   5.228 -2.1476 -0.2189 -0.7106
 2108TIP3   OH227738   1.060   3.918  16.401 -0.3424  0.1380 -0.7930
 2108TIP3    H127739   1.104   3.956  16.478 -1.9852  0.1114  0.2068
 2108TIP3    H227740   1.042   3.828  16.426  1.6988 -0.7836 -2.3796
 2109TIP3   OH227741   4.109   5.405  15.024 -0.6984 -0.0881 -0.1295
 2109TIP3    H127742   4.177   5.371  15.081 -2.2042 -1.1778  1.0723
 2109TIP3    H227743   4.101   5.340  14.954 -1.2733 -0.5502  0.3559
 2110TIP3   OH227744   5.279   2.627   3.598  0.6546  0.5629 -0.3517
 2110TIP3    H127745   5.215   2.592   3.660  0.3830 -1.2156 -1.5582
 2110TIP3    H227746   5.226   2.669   3.530  0.6016 -1.8745 -1.9331
 2111TIP3   OH227747   0.638   3.500   5.776 -0.3885 -0.8644  0.3029
 2111TIP3    H127748   0.638   3.448   5.696  0.5539  0.2416 -0.4609
 2111TIP3    H227749   0.605   3.442   5.844 -0.9686 -1.9018 -0.8486
 2112TIP3   OH227750   4.957   0.900  11.369  0.1418 -0.1940  0.7432
 2112TIP3    H127751   4.898   0.869  11.438 -0.4257  1.0147  0.8220
 2112TIP3    H227752   4.914   0.977  11.333 -0.5905 -1.9260 -2.4001
 2113TIP3   OH227753   5.461   4.105  16.796 -0.9992  0.1329  0.0568
 2113TIP3    H127754   5.459   4.047  16.720  1.1456  1.6812 -1.3101
 2113TIP3    H227755   5.525   4.065  16.855 -0.6895  0.2963 -0.1678
 2114TIP3   OH227756   5.373   6.207   6.597 -0.1432  0.1876 -0.0102
 2114TIP3    H127757   5.310   6.225   6.526 -0.4196 -2.6567 -0.6065
 2114TIP3    H227758   5.320   6.208   6.677 -0.0574  2.1852  0.0673
 2115TIP3   OH227759   2.599   5.708  14.702 -0.4636  0.0730 -0.0419
 2115TIP3    H127760   2.621   5.751  14.784  1.3878 -0.3557 -0.2599
 2115TIP3    H227761   2.584   5.780  14.640 -0.7450  0.3884  0.3909
 2116TIP3   OH227762   5.214   4.819   0.620  0.3946  0.6772  0.0153
 2116TIP3    H127763   5.212   4.787   0.710 -1.3872 -1.0496 -0.5767
 2116TIP3    H227764   5.280   4.889   0.621  1.7277 -0.5036  2.2256
 2117TIP3   OH227765   1.920   5.088  12.647 -0.4557  0.3427 -0.0681
 2117TIP3    H127766   1.995   5.078  12.589 -0.5793  1.2610 -0.3999
 2117TIP3    H227767   1.933   5.021  12.714 -0.6957 -1.2379 -1.5247
 2118TIP3   OH227768   1.925   4.007   3.437  0.5740  0.1076 -0.2156
 2118TIP3    H127769   1.884   4.093   3.446 -1.1984 -0.7093  0.0405
 2118TIP3    H227770   1.885   3.970   3.358  0.7255 -0.7853  0.1133
 2119TIP3   OH227771   0.232   6.772  17.222 -0.2570  0.4663 -0.0808
 2119TIP3    H127772   0.282   6.778  17.303 -0.4161  4.4564 -0.0805
 2119TIP3    H227773   0.297   6.777  17.153 -0.0336 -3.8310 -0.4248
 2120TIP3   OH227774   2.512   6.274  15.524 -0.3736  0.5425 -0.3779
 2120TIP3    H127775   2.458   6.225  15.586 -1.3408  1.9957 -0.0083
 2120TIP3    H227776   2.575   6.210  15.492 -0.7194 -0.6011  1.0674
 2121TIP3   OH227777   6.057   1.925   0.829  0.8033 -0.2215  0.3050
 2121TIP3    H127778   6.085   1.847   0.781 -1.1677  0.0680 -1.4236
 2121TIP3    H227779   5.975   1.899   0.871  1.0835  0.3837  1.2607
 2122TIP3   OH227780   0.143   0.531  13.419  0.1377  0.6440  0.3944
 2122TIP3    H127781   0.165   0.490  13.503  1.5003 -0.2454 -0.3572
 2122TIP3    H227782   0.062   0.487  13.392  1.6497 -1.8001 -0.4669
 2123TIP3   OH227783   0.528   0.358   0.693 -0.2485  0.1048  0.4116
 2123TIP3    H127784   0.568   0.421   0.633 -1.1686  1.2351  0.9373
 2123TIP3    H227785   0.572   0.275   0.674  1.5112  1.0405  0.1732
 2124TIP3   OH227786   3.477   3.475   0.305  0.5236 -0.0083 -0.1895
 2124TIP3    H127787   3.420   3.511   0.237 -1.0251  1.4369  1.7663
 2124TIP3    H227788   3.418   3.429   0.364  1.0620  2.6300  2.6283
 2125TIP3   OH227789   5.636   1.473  16.676  0.0722 -0.3640 -0.0953
 2125TIP3    H127790   5.632   1.546  16.614  0.5684 -0.6535 -0.4756
 2125TIP3    H227791   5.551   1.474  16.720  1.0396  2.2715  2.0173
 2126TIP3   OH227792   2.289   1.091  13.963 -0.0209 -0.3944  0.0615
 2126TIP3    H127793   2.198   1.115  13.981 -0.6623 -2.0458 -0.7917
 2126TIP3    H227794   2.340   1.147  14.022 -1.5021  1.3523 -0.2109
 2127TIP3   OH227795   0.873   4.616  15.332  0.3766  0.1209 -0.2423
 2127TIP3    H127796   0.802   4.631  15.269  0.2852 -0.2949 -0.2462
 2127TIP3    H227797   0.834   4.561  15.399  0.3271  1.0084  0.4707
 2128TIP3   OH227798   1.174   4.020   5.202  0.2546  0.0499  0.3266
 2128TIP3    H127799   1.246   4.083   5.199  0.5696 -0.2160 -3.9173
 2128TIP3    H227800   1.096   4.073   5.218  1.0362  0.6909  2.2923
 2129TIP3   OH227801   4.299   0.714  12.521  0.1621 -0.2104  0.1331
 2129TIP3    H127802   4.225   0.709  12.582  0.0931  0.4373  0.1136
 2129TIP3    H227803   4.357   0.643  12.547  0.8696  0.9502  1.9364
 2130TIP3   OH227804   6.640   4.450   2.154 -0.1966 -0.4336  0.0247
 2130TIP3    H127805   6.647   4.356   2.138  0.2772 -0.6970  1.5929
 2130TIP3    H227806   6.708   4.468   2.219 -1.1560  0.7366  0.7482
 2131TIP3   OH227807   0.446   1.474  11.752 -0.3631 -0.0288  0.1865
 2131TIP3    H127808   0.391   1.496  11.678 -0.5966 -0.6901  0.1552
 2131TIP3    H227809   0.386   1.471  11.827 -0.6465 -2.0989 -0.0784
 2132TIP3   OH227810   4.257   0.071   0.849 -0.0937 -0.8808 -0.1617
 2132TIP3    H127811   4.312   0.047   0.924 -0.2717 -0.6697  0.0379
 2132TIP3    H227812   4.319   0.085   0.777  0.2188  0.5126  0.3527
 2133TIP3   OH227813   3.137   5.888  10.844 -0.1217  0.6309 -0.2143
 2133TIP3    H127814   3.058   5.941  10.839 -0.2174  0.4345 -0.7855
 2133TIP3    H227815   3.202   5.946  10.883 -1.5615 -0.3818  4.3310
 2134TIP3   OH227816   3.298   1.563   6.363 -0.0344  0.4510 -0.2311
 2134TIP3    H127817   3.329   1.633   6.421 -0.1757 -0.7318  1.3212
 2134TIP3    H227818   3.367   1.497   6.367  0.3263  0.6506 -2.0696
 2135TIP3   OH227819   3.009   3.969   4.928 -0.2338 -0.4478  0.5615
 2135TIP3    H127820   3.087   3.965   4.984 -0.5810 -0.4666  1.0465
 2135TIP3    H227821   2.946   3.911   4.971 -1.4670  1.5994  1.6541
 2136TIP3   OH227822   0.261   2.549  12.484  0.5283 -0.1446  0.1524
 2136TIP3    H127823   0.183   2.529  12.432 -0.5789  0.2490  1.6014
 2136TIP3    H227824   0.316   2.601  12.425 -0.6822  0.2828 -0.6475
 2137TIP3   OH227825   5.401   3.229  12.935  0.6690 -0.4879  0.6347
 2137TIP3    H127826   5.423   3.322  12.936 -0.3650 -0.2327  0.5769
 2137TIP3    H227827   5.435   3.197  12.851  0.5295 -0.0356  0.4040
 2138TIP3   OH227828   4.928   5.670  15.732 -0.2916 -0.0135  0.3428
 2138TIP3    H127829   5.019   5.641  15.732 -0.1415  0.3317  1.9929
 2138TIP3    H227830   4.929   5.753  15.685  0.3030  0.1315  0.6006
 2139TIP3   OH227831   0.270   2.525   2.736 -0.1452  0.5436 -0.4575
 2139TIP3    H127832   0.311   2.507   2.651  1.4677 -1.3307  0.6523
 2139TIP3    H227833   0.333   2.494   2.800 -0.9574  2.6615  1.5002
 2140TIP3   OH227834   5.964   3.049   4.689  0.4229  0.1910  0.1964
 2140TIP3    H127835   6.003   3.091   4.766 -0.9383  2.5064 -0.2716
 2140TIP3    H227836   5.992   3.103   4.616  0.3727 -1.0381 -0.7545
 2141TIP3   OH227837   0.758   1.380   3.406  0.1737 -0.6871 -0.3046
 2141TIP3    H127838   0.807   1.423   3.336 -0.7716  1.0565  0.0463
 2141TIP3    H227839   0.824   1.327   3.453  1.0814 -0.7675 -1.6305
 2142TIP3   OH227840   1.622   6.290  10.719 -0.5599 -0.6272 -0.1264
 2142TIP3    H127841   1.528   6.274  10.731 -0.4542  0.4369  2.8003
 2142TIP3    H227842   1.626   6.376  10.678 -0.8527 -0.3318  0.4596
 2143TIP3   OH227843   5.554   1.087  16.177  0.7700 -0.3857 -0.0640
 2143TIP3    H127844   5.573   1.005  16.131  0.8745 -0.6723  0.4861
 2143TIP3    H227845   5.613   1.151  16.136  1.3430 -0.7828  0.1278
 2144TIP3   OH227846   4.061   5.894  11.479 -0.1806  0.0270 -0.2409
 2144TIP3    H127847   4.027   5.962  11.538 -0.1570  1.1630 -1.5027
 2144TIP3    H227848   4.028   5.918  11.393  1.9448 -0.1118 -1.1372
 2145TIP3   OH227849   0.889   0.772  11.873 -0.2748  0.1307  0.8718
 2145TIP3    H127850   0.908   0.694  11.820  0.2154 -0.1811  1.5067
 2145TIP3    H227851   0.833   0.826  11.816 -1.4529 -1.1338  0.7841
 2146TIP3   OH227852   1.312   0.284  14.235  0.4533 -0.7314 -0.2796
 2146TIP3    H127853   1.304   0.189  14.247  0.2329 -0.7418 -0.5053
 2146TIP3    H227854   1.345   0.316  14.319 -0.4848 -0.8791  0.1573
 2147TIP3   OH227855   4.408   6.674   4.201  0.7371  0.1884 -0.1611
 2147TIP3    H127856   4.475   6.678   4.132  0.1696 -0.5440 -0.7762
 2147TIP3    H227857   4.374   6.585   4.195  0.2842  0.2977  0.7013
 2148TIP3   OH227858   4.145   2.767  10.899  0.5573 -0.1576 -0.3136
 2148TIP3    H127859   4.226   2.775  10.950  0.2382  2.3688 -0.0979
 2148TIP3    H227860   4.173   2.776  10.808  0.5987  0.1281 -0.2744
 2149TIP3   OH227861   2.274   2.028   3.175  0.1392 -0.0693 -0.2955
 2149TIP3    H127862   2.238   2.116   3.180 -1.6264 -0.7807  0.5361
 2149TIP3    H227863   2.301   2.017   3.084 -1.7147  0.5631 -0.9542
 2150TIP3   OH227864   5.805   2.476  11.313  0.2673  0.0854 -0.0321
 2150TIP3    H127865   5.714   2.475  11.285 -0.1372  0.3724  1.2055
 2150TIP3    H227866   5.803   2.443  11.403  0.9547  3.0145  1.1731
 2151TIP3   OH227867   0.957   2.552   5.592  0.0927  0.2562  0.0153
 2151TIP3    H127868   0.876   2.518   5.630  0.9010 -1.5176  0.2542
 2151TIP3    H227869   0.997   2.476   5.549  0.7907  1.4856 -1.6252
 2152TIP3   OH227870   6.272   5.501  15.718 -0.0239 -0.5970  0.4216
 2152TIP3    H127871   6.229   5.461  15.793 -0.8154 -2.8309 -1.1196
 2152TIP3    H227872   6.215   5.573  15.692 -1.8751 -2.2761 -0.3769
 2153TIP3   OH227873   5.543   0.765  14.227  0.3352 -0.6978 -0.5085
 2153TIP3    H127874   5.454   0.770  14.193  0.7681 -2.9821 -2.2914
 2153TIP3    H227875   5.553   0.675  14.256  2.2283 -0.6658 -0.9081
 2154TIP3   OH227876   2.235   1.770   2.960 -0.2218  0.4917  0.0734
 2154TIP3    H127877   2.295   1.723   2.902  1.2788  0.6712  1.4004
 2154TIP3    H227878   2.239   1.861   2.932 -0.6948  0.3431 -0.4965
 2155TIP3   OH227879   6.648   3.823  11.627 -0.2461 -0.0446 -0.1132
 2155TIP3    H127880   6.709   3.770  11.678 -0.5275 -2.0709 -1.7494
 2155TIP3    H227881   6.702   3.865  11.560 -0.4626 -1.1830 -1.0452
 2156TIP3   OH227882   3.092   0.729   3.693 -0.0285  0.0538  0.0604
 2156TIP3    H127883   3.121   0.643   3.662 -1.2609 -0.3733  0.0382
 2156TIP3    H227884   3.145   0.745   3.771 -0.0555 -0.9112  0.2923
 2157TIP3   OH227885   4.125   3.776   3.172  0.0992  0.4015 -0.5141
 2157TIP3    H127886   4.069   3.853   3.180  0.0662  0.2612  0.8782
 2157TIP3    H227887   4.138   3.746   3.262  1.1190 -0.5004 -0.9309
 2158TIP3   OH227888   5.656   3.656  14.263  0.3152 -0.4990 -0.2389
 2158TIP3    H127889   5.597   3.711  14.316  1.6839  0.6984  0.1247
 2158TIP3    H227890   5.598   3.594  14.218 -1.0494 -0.4387  1.3474
 2159TIP3   OH227891   0.781   5.428   4.037  0.3255 -0.4090 -0.0774
 2159TIP3    H127892   0.784   5.522   4.022  2.6087 -0.8970 -4.0115
 2159TIP3    H227893   0.858   5.409   4.091  1.2631 -0.2039 -1.3003
 2160TIP3   OH227894   6.585   1.622  16.039  0.2184  0.2489 -0.0770
 2160TIP3    H127895   6.523   1.619  16.111  1.3614 -0.1968  0.9279
 2160TIP3    H227896   6.645   1.694  16.062  0.6707  0.0214 -0.5142
 2161TIP3   OH227897   1.747   1.306   2.382 -0.6230  0.7589  0.4071
 2161TIP3    H127898   1.714   1.251   2.311  2.9603 -2.3062  0.7707
 2161TIP3    H227899   1.713   1.266   2.462  1.4813 -0.7929  0.6363
 2162TIP3   OH227900   0.613   4.058   5.811 -0.2130  0.4341 -0.3760
 2162TIP3    H127901   0.693   4.067   5.863  0.5459  0.4089 -1.5060
 2162TIP3    H227902   0.548   4.022   5.872  0.4712  0.9982  0.7007
 2163TIP3   OH227903   6.304   6.027  16.246  0.1846 -0.0233 -0.2850
 2163TIP3    H127904   6.309   6.029  16.151  0.3763 -0.7565 -0.2973
 2163TIP3    H227905   6.392   6.001  16.274  0.3158  0.8421  0.1208
 2164TIP3   OH227906   1.009   1.622  11.755 -0.3711 -0.0727 -0.6980
 2164TIP3    H127907   1.034   1.711  11.779 -0.5806  0.1158 -1.1768
 2164TIP3    H227908   0.914   1.625  11.746 -0.3325 -0.2377 -1.1587
 2165TIP3   OH227909   4.788   0.883   5.816 -0.1765  0.3689 -0.1729
 2165TIP3    H127910   4.750   0.817   5.874 -2.4529  0.0237 -1.8854
 2165TIP3    H227911   4.793   0.962   5.870 -3.4261  0.4152  0.2938
 2166TIP3   OH227912   5.497   6.489   3.794 -0.4361  0.2741 -0.1760
 2166TIP3    H127913   5.487   6.419   3.858  1.0639  0.6916  0.5600
 2166TIP3    H227914   5.486   6.569   3.844 -1.8053  0.6018 -0.9519
 2167TIP3   OH227915   2.348   2.178  15.450 -0.2732  0.1061 -0.1411
 2167TIP3    H127916   2.380   2.264  15.475 -1.6915  0.8388 -0.7308
 2167TIP3    H227917   2.326   2.187  15.357 -0.5014 -0.8712 -0.1897
 2168TIP3   OH227918   1.609   5.121  13.420 -0.2119  0.7840 -0.2509
 2168TIP3    H127919   1.606   5.041  13.473 -0.9664  0.9188 -0.0894
 2168TIP3    H227920   1.647   5.093  13.336  0.4782  0.4621  0.1585
 2169TIP3   OH227921   1.020   4.343   5.834 -0.4842  0.1436 -0.3198
 2169TIP3    H127922   1.017   4.301   5.748  0.7708 -0.6882  0.0214
 2169TIP3    H227923   0.932   4.378   5.846 -1.0213 -0.7450 -1.4434
 2170TIP3   OH227924   2.360   3.412   0.408  0.0699  0.2125  0.4066
 2170TIP3    H127925   2.286   3.384   0.354 -0.2992 -1.7184  1.8198
 2170TIP3    H227926   2.342   3.504   0.426 -1.9475 -0.1605  0.5804
 2171TIP3   OH227927   2.181   1.701   4.003 -0.5308  0.2911 -0.3008
 2171TIP3    H127928   2.140   1.750   4.075  1.2147  0.4686  0.6203
 2171TIP3    H227929   2.259   1.752   3.981  0.9246 -1.6491  0.1576
 2172TIP3   OH227930   5.740   6.575  12.098  0.0860  0.2210 -0.2924
 2172TIP3    H127931   5.835   6.580  12.108 -0.0013  0.2084  0.7363
 2172TIP3    H227932   5.723   6.601  12.008  1.3163 -2.8053 -1.5363
 2173TIP3   OH227933   4.868   3.913   1.230  0.2332 -0.2899  0.0213
 2173TIP3    H127934   4.908   3.827   1.243  0.1438 -0.3240  0.0769
 2173TIP3    H227935   4.774   3.897   1.242  0.2236 -0.1700  0.1132
 2174TIP3   OH227936   4.147   6.451   6.109 -0.5185  0.2050 -0.4516
 2174TIP3    H127937   4.069   6.413   6.070 -0.4616 -0.1780 -0.1939
 2174TIP3    H227938   4.120   6.476   6.197 -0.5571  0.7733 -0.6191
 2175TIP3   OH227939   2.658   3.386   1.505  0.0047 -0.3482 -0.0887
 2175TIP3    H127940   2.714   3.371   1.429 -1.0979 -0.5578 -0.8920
 2175TIP3    H227941   2.625   3.299   1.528  0.1065 -0.2457  0.4501
 2176TIP3   OH227942   2.487   3.459  13.001 -0.2708  0.2291  0.3074
 2176TIP3    H127943   2.467   3.409  12.921 -1.7273  1.0000  0.1598
 2176TIP3    H227944   2.403   3.466  13.046  0.0570  1.9193  0.6910
 2177TIP3   OH227945   5.625   3.584   0.353 -0.0456  0.2409 -0.3118
 2177TIP3    H127946   5.587   3.500   0.329 -0.2609 -0.1508  1.3064
 2177TIP3    H227947   5.634   3.581   0.448  0.9139  1.6447 -0.3154
 2178TIP3   OH227948   3.190   1.682  14.894 -0.0783  0.0782  0.2331
 2178TIP3    H127949   3.145   1.676  14.978 -0.2258 -1.3355  0.0836
 2178TIP3    H227950   3.119   1.680  14.829  0.0868  0.2091  0.0471
 2179TIP3   OH227951   4.447   6.384   3.404 -0.2506 -0.6069 -0.0812
 2179TIP3    H127952   4.502   6.368   3.328  0.4093 -0.1791  0.2892
 2179TIP3    H227953   4.408   6.470   3.388  0.9249  0.0904  0.6410
 2180TIP3   OH227954   0.724   1.573  14.747 -0.0433  1.0344 -0.0505
 2180TIP3    H127955   0.699   1.640  14.811 -0.7537  0.5325  0.2133
 2180TIP3    H227956   0.645   1.559  14.695  0.5722  1.5516 -1.1589
 2181TIP3   OH227957   6.041   4.689  13.415 -0.0054 -0.6290  0.2802
 2181TIP3    H127958   6.092   4.735  13.349 -1.0659  0.9253  0.4844
 2181TIP3    H227959   6.102   4.673  13.486  0.8992 -1.4226 -0.6413
 2182TIP3   OH227960   2.891   2.502   5.466  0.1135 -0.1851  0.9345
 2182TIP3    H127961   2.955   2.447   5.422  0.3750  0.7580  0.0947
 2182TIP3    H227962   2.864   2.451   5.542 -0.1511 -1.7491 -0.1634
 2183TIP3   OH227963   0.264   1.112  11.759 -0.1167  0.4760 -0.3666
 2183TIP3    H127964   0.358   1.122  11.772 -0.3738  1.2759  1.0732
 2183TIP3    H227965   0.255   1.029  11.712  1.1931 -0.4573  0.9603
 2184TIP3   OH227966   1.432   3.712   4.029 -0.0010 -0.1308  1.4772
 2184TIP3    H127967   1.414   3.688   3.938  0.7925 -1.1173  1.5535
 2184TIP3    H227968   1.430   3.628   4.076  1.2588  0.1438  2.0583
 2185TIP3   OH227969   0.775   1.258  13.147  0.0631 -0.3275 -0.4759
 2185TIP3    H127970   0.757   1.164  13.140  2.2274 -0.9671  1.3232
 2185TIP3    H227971   0.869   1.263  13.168 -0.1983  2.1934  0.4712
 2186TIP3   OH227972   1.359   0.085  11.888  0.6336  0.3015 -0.1708
 2186TIP3    H127973   1.281   0.066  11.940  0.2872  2.3615  0.1636
 2186TIP3    H227974   1.429   0.036  11.931  0.0275  0.6097  1.2157
 2187TIP3   OH227975   5.560   3.132  12.716  0.4825  0.1314 -0.3017
 2187TIP3    H127976   5.620   3.205  12.702  1.1078 -0.6196 -1.7124
 2187TIP3    H227977   5.613   3.054  12.704 -0.1585 -0.5999  1.2713
 2188TIP3   OH227978   3.579   4.338  14.669 -0.1717  1.0860  0.5975
 2188TIP3    H127979   3.633   4.280  14.616 -0.8037  0.7104  0.3542
 2188TIP3    H227980   3.571   4.293  14.753 -1.0021  0.6051  0.2752
 2189TIP3   OH227981   2.449   4.783  11.508  0.2314  0.1390  0.5380
 2189TIP3    H127982   2.366   4.775  11.556 -2.0610  1.9701 -2.7233
 2189TIP3    H227983   2.466   4.696  11.474 -1.3232  0.0436 -0.0860
 2190TIP3   OH227984   4.841   0.734   4.413 -0.1952 -0.0422  0.4212
 2190TIP3    H127985   4.809   0.729   4.503  1.4228 -1.6971  0.9779
 2190TIP3    H227986   4.763   0.749   4.359 -1.2218  0.6990  2.0512
 2191TIP3   OH227987   3.114   4.830   4.359  0.1564  0.0846 -0.1255
 2191TIP3    H127988   3.104   4.871   4.444  0.6742  0.3997 -0.2097
 2191TIP3    H227989   3.026   4.802   4.335  0.2901 -2.0001  1.4853
 2192TIP3   OH227990   4.425   6.005  16.490  0.1870 -0.5230 -0.0175
 2192TIP3    H127991   4.465   5.971  16.410  0.7484  1.6356 -0.7230
 2192TIP3    H227992   4.349   5.949  16.504 -0.5223 -0.3680 -2.6587
 2193TIP3   OH227993   1.319   0.395  13.555  0.7232  0.2120  0.0628
 2193TIP3    H127994   1.374   0.471  13.575  0.1259  0.3163  1.4722
 2193TIP3    H227995   1.235   0.434  13.528  0.7873  0.0572 -0.3554
 2194TIP3   OH227996   4.473   3.239   1.149 -0.1654 -0.4011 -0.2701
 2194TIP3    H127997   4.433   3.219   1.234 -2.8906  0.6824 -1.1849
 2194TIP3    H227998   4.511   3.156   1.120  0.9578 -0.7659  1.9944
 2195TIP3   OH227999   4.335   2.772   0.238 -0.0977 -0.8439  0.1476
 2195TIP3    H128000   4.321   2.685   0.276  1.1227 -1.8956 -1.6783
 2195TIP3    H228001   4.257   2.788   0.185 -1.1619  0.0241  1.8835
 2196TIP3   OH228002   5.098   2.240   4.112 -0.7162 -0.3382  0.2716
 2196TIP3    H128003   5.177   2.243   4.166 -0.2390 -2.6455 -0.2075
 2196TIP3    H228004   5.026   2.235   4.175 -0.1988 -2.5033  0.7796
 2197TIP3   OH228005   0.288   0.084  12.160 -0.4496 -0.4019 -0.3032
 2197TIP3    H128006   0.248   0.152  12.214 -0.1242 -0.7707  0.4131
 2197TIP3    H228007   0.270   0.111  12.070 -1.5568 -0.1071 -0.0132
 2198TIP3   OH228008   1.033   5.587   1.183  0.2088 -0.0917  0.3031
 2198TIP3    H128009   0.985   5.669   1.194  0.7621  0.3835 -0.6966
 2198TIP3    H228010   0.968   5.519   1.201  0.0862  0.5414  2.5365
 2199TIP3   OH228011   0.613   1.136   4.589  0.2031 -0.0649 -0.2560
 2199TIP3    H128012   0.694   1.101   4.554  0.9018  1.9211 -0.7580
 2199TIP3    H228013   0.637   1.171   4.675 -0.2234  0.1661 -0.2288
 2200TIP3   OH228014   2.240   4.734   5.300  0.3245  0.2475  0.1636
 2200TIP3    H128015   2.315   4.675   5.287 -0.1127 -0.4371  0.6630
 2200TIP3    H228016   2.266   4.790   5.373  0.7809  0.7496 -0.3721
 2201TIP3   OH228017   6.218   0.872   0.800  0.1730 -0.3002 -0.2023
 2201TIP3    H128018   6.301   0.869   0.752  0.8890 -1.2618  1.0248
 2201TIP3    H228019   6.217   0.790   0.850 -0.7395  0.4707  1.0778
 2202TIP3   OH228020   3.357   4.897   2.998  0.7162 -0.1095 -0.3326
 2202TIP3    H128021   3.332   4.916   3.088 -0.0264 -0.7427 -0.3915
 2202TIP3    H228022   3.369   4.802   2.996 -1.9723 -0.5181 -1.5071
 2203TIP3   OH228023   3.431   2.665   6.612  0.2619  0.3501 -0.1758
 2203TIP3    H128024   3.436   2.757   6.640 -0.7509  1.4480 -3.2025
 2203TIP3    H228025   3.457   2.666   6.520 -0.1074 -2.3615 -0.4001
 2204TIP3   OH228026   3.894   4.693   4.157  0.2255 -0.5583 -0.4102
 2204TIP3    H128027   3.883   4.598   4.150 -1.1387 -0.4922  0.6067
 2204TIP3    H228028   3.833   4.730   4.093  0.1110 -0.3318 -0.1689
 2205TIP3   OH228029   6.281   3.012  12.870 -0.4474 -0.1173 -0.3091
 2205TIP3    H128030   6.198   2.970  12.893  0.5186 -0.4316  3.2300
 2205TIP3    H228031   6.266   3.105  12.886 -0.4140 -0.0464 -0.6909
 2206TIP3   OH228032   1.412   2.535   2.945 -0.3097  0.1808 -0.0904
 2206TIP3    H128033   1.384   2.614   2.898 -0.9893  0.1758  0.2948
 2206TIP3    H228034   1.358   2.534   3.024  1.3627  0.6058  1.0963
 2207TIP3   OH228035   0.912   1.724   0.705 -0.2473  0.2026 -0.6145
 2207TIP3    H128036   0.838   1.669   0.730  0.1490  0.6708  1.7987
 2207TIP3    H228037   0.964   1.669   0.647 -1.1703 -1.0378 -0.3004
 2208TIP3   OH228038   1.930   4.340   3.778 -0.2281  0.0062 -0.0595
 2208TIP3    H128039   1.963   4.368   3.864 -0.7079 -1.7322  0.7277
 2208TIP3    H228040   1.919   4.422   3.729 -0.7954  1.1181  1.8365
 2209TIP3   OH228041   6.343   4.357   2.989  0.4664 -0.0140  0.1490
 2209TIP3    H128042   6.390   4.393   3.064  0.1090 -0.1599  0.4480
 2209TIP3    H228043   6.411   4.335   2.926  1.0311 -2.2757  1.4260
 2210TIP3   OH228044   6.085   3.046  16.844 -0.0023 -0.2676 -0.0443
 2210TIP3    H128045   6.085   3.140  16.860  1.3588 -0.3055  0.2976
 2210TIP3    H228046   6.172   3.017  16.873 -0.6741 -1.7482  0.5606
 2211TIP3   OH228047   1.739   2.749  12.813 -0.0312 -0.0025  0.2605
 2211TIP3    H128048   1.674   2.819  12.817  0.3064  0.2914  0.6989
 2211TIP3    H228049   1.798   2.767  12.886  0.1979 -0.6091  0.2270
 2212TIP3   OH228050   6.704   1.179  10.394  0.3024  0.3289 -0.1934
 2212TIP3    H128051   6.785   1.212  10.356  0.3261  0.4507 -0.0365
 2212TIP3    H228052   6.635   1.227  10.347  0.3634  1.3754  0.7561
 2213TIP3   OH228053   5.727   4.804  15.016 -0.1988 -0.3182  0.1612
 2213TIP3    H128054   5.793   4.786  15.082  0.2872 -1.3043 -0.5605
 2213TIP3    H228055   5.643   4.791  15.061  0.0680  0.9869  1.0947
 2214TIP3   OH228056   3.456   5.275   4.647  0.0595 -0.0115  0.2251
 2214TIP3    H128057   3.527   5.317   4.694  0.5326 -0.3958 -0.1331
 2214TIP3    H228058   3.492   5.191   4.617 -0.3079  0.0988 -0.5721
 2215TIP3   OH228059   4.317   6.381  14.071 -0.2401  0.2773 -0.0773
 2215TIP3    H128060   4.409   6.354  14.080  0.1601  1.7621  0.6084
 2215TIP3    H228061   4.305   6.449  14.138 -2.0208 -0.3074  0.2524
 2216TIP3   OH228062   6.047   3.149  16.461  0.1527  0.6546  0.2904
 2216TIP3    H128063   5.988   3.074  16.453 -0.6498  1.3314 -0.3365
 2216TIP3    H228064   6.027   3.186  16.547  0.7729 -0.0044  0.7408
 2217TIP3   OH228065   6.503   2.772  15.088 -0.1887 -0.1098 -0.2915
 2217TIP3    H128066   6.483   2.861  15.061 -0.2648 -0.4678 -1.4351
 2217TIP3    H228067   6.429   2.747  15.143 -0.1060  0.5677  0.1451
 2218TIP3   OH228068   0.947   6.021   3.373 -0.0595 -0.1325  0.0321
 2218TIP3    H128069   1.002   5.980   3.307 -1.2068 -2.5817  0.4884
 2218TIP3    H228070   0.972   5.979   3.455  0.6852  2.1861  1.0994
 2219TIP3   OH228071   3.723   6.132   2.237  0.0035  0.2902 -0.2520
 2219TIP3    H128072   3.802   6.078   2.233  0.7728  0.5770  4.6630
 2219TIP3    H228073   3.653   6.075   2.207  1.5394 -1.3363 -0.8957
 2220TIP3   OH228074   6.385   3.883  17.301  0.5509 -0.0956 -0.3428
 2220TIP3    H128075   6.324   3.957  17.308  1.1290  0.3255  0.3904
 2220TIP3    H228076   6.354   3.834  17.224  0.3009  1.0387 -0.9945
 2221TIP3   OH228077   5.968   5.580  12.971 -0.1062  0.0647  0.5996
 2221TIP3    H128078   5.937   5.544  12.888 -0.1125 -0.4740  0.8261
 2221TIP3    H228079   6.041   5.523  12.996  1.7401  1.8827 -0.3882
 2222TIP3   OH228080   4.682   6.262   3.239  0.8868 -0.5112 -0.3416
 2222TIP3    H128081   4.736   6.317   3.182  0.7691 -1.4743 -1.4290
 2222TIP3    H228082   4.700   6.294   3.327  2.2766  0.0024 -0.7785
 2223TIP3   OH228083   5.243   6.760   2.110 -0.5315 -0.8406 -0.4374
 2223TIP3    H128084   5.248   6.855   2.120  1.1339 -0.7791 -1.4882
 2223TIP3    H228085   5.180   6.747   2.039 -1.3329 -0.5798  0.2094
 2224TIP3   OH228086   0.949   0.620   3.466 -0.0881  0.8148  0.4263
 2224TIP3    H128087   0.991   0.704   3.480  0.3473  0.3087  2.5046
 2224TIP3    H228088   1.012   0.569   3.415  0.4735  1.1149  0.8156
 2225TIP3   OH228089   5.857   5.604  11.156 -0.0707  0.4457 -0.2697
 2225TIP3    H128090   5.920   5.532  11.165 -0.7988 -0.2856 -0.9167
 2225TIP3    H228091   5.772   5.562  11.154 -0.6109  1.4331  0.6778
 2226TIP3   OH228092   4.198   3.735   1.529 -0.4196  0.2264  0.0190
 2226TIP3    H128093   4.185   3.780   1.612 -0.3529  0.6853 -0.2162
 2226TIP3    H228094   4.140   3.660   1.533 -1.2193  0.8378  0.0386
 2227TIP3   OH228095   0.957   1.258   3.540  0.0626 -0.5789 -0.3564
 2227TIP3    H128096   0.952   1.181   3.596  1.6560 -0.1109  0.4798
 2227TIP3    H228097   1.020   1.234   3.471  1.7477  0.4530  0.7700
 2228TIP3   OH228098   3.516   6.714  15.101  0.6226  0.2609  0.2605
 2228TIP3    H128099   3.544   6.793  15.148 -1.2261  0.1681  1.6568
 2228TIP3    H228100   3.559   6.642  15.147  1.5485  0.3645 -0.4112
 2229TIP3   OH228101   2.150   5.293  12.008 -0.4314 -0.4007 -0.4037
 2229TIP3    H128102   2.216   5.322  12.071  0.3036 -2.0653 -0.3691
 2229TIP3    H228103   2.163   5.350  11.932  1.5994 -1.1988 -0.7090
 2230TIP3   OH228104   1.303   2.213   4.282  0.3301  0.0487  0.1861
 2230TIP3    H128105   1.230   2.274   4.274  0.8459  0.6507  0.0025
 2230TIP3    H228106   1.330   2.196   4.192 -0.5626 -1.4003  0.1494
 2231TIP3   OH228107   3.803   5.613   0.420  0.1502 -0.6599 -0.0740
 2231TIP3    H128108   3.771   5.550   0.356  0.8181 -1.2168  0.1319
 2231TIP3    H228109   3.898   5.612   0.411  0.3737 -1.7185  1.7835
 2232TIP3   OH228110   3.360   6.216   3.724  0.4830 -0.5472 -0.0824
 2232TIP3    H128111   3.429   6.214   3.658 -1.1893  0.9383 -2.0142
 2232TIP3    H228112   3.400   6.257   3.801  1.5564  1.1242 -1.4596
 2233TIP3   OH228113   1.002   2.906  15.870 -0.2870  0.1459 -0.6010
 2233TIP3    H128114   1.070   2.892  15.936  0.7403  2.6460 -1.0198
 2233TIP3    H228115   1.019   2.840  15.804 -0.6303 -1.6670  1.0376
 2234TIP3   OH228116   5.853   0.902  13.074  0.1383 -0.5741 -0.4500
 2234TIP3    H128117   5.815   0.976  13.028 -1.4939 -1.4169 -0.5258
 2234TIP3    H228118   5.875   0.839  13.005 -2.4170 -1.8877 -0.1828
 2235TIP3   OH228119   6.163   2.290   5.772  0.3018  0.5352  0.3486
 2235TIP3    H128120   6.191   2.215   5.825  1.0092  0.2823 -0.3688
 2235TIP3    H228121   6.100   2.336   5.828  0.3632 -0.2171  1.0598
 2236TIP3   OH228122   5.762   6.122   0.067  0.1974  0.1473  0.1162
 2236TIP3    H128123   5.817   6.046   0.089 -0.2408 -0.1216  0.3089
 2236TIP3    H228124   5.820   6.197   0.072  0.9210 -0.2901 -1.1820
 2237TIP3   OH228125   0.156   3.155   6.064  0.5091  0.0290  0.0451
 2237TIP3    H128126   0.196   3.192   5.985 -0.7565 -0.3934 -0.8415
 2237TIP3    H228127   0.063   3.147   6.042  0.2289 -0.6876  1.3608
 2238TIP3   OH228128   4.799   2.002  11.739  0.6395  0.3791  0.2804
 2238TIP3    H128129   4.872   1.941  11.726  1.0938  0.8408  0.5934
 2238TIP3    H228130   4.834   2.087  11.711  0.4465  0.7236  1.0510
 2239TIP3   OH228131   4.738   5.675  12.584  0.0106  0.2093 -0.1295
 2239TIP3    H128132   4.650   5.638  12.589  0.4689 -1.0808 -1.1014
 2239TIP3    H228133   4.775   5.637  12.504  1.5522  0.5088  0.4171
 2240TIP3   OH228134   0.539   4.977   4.636  1.0478  0.7705  0.5463
 2240TIP3    H128135   0.511   5.052   4.583 -1.1139 -0.3015  0.0596
 2240TIP3    H228136   0.630   4.963   4.612  0.5802  1.3043 -1.7601
 2241TIP3   OH228137   1.066   5.348  11.385  0.5822  0.6688 -0.4884
 2241TIP3    H128138   1.013   5.310  11.315  1.1670 -0.6973 -0.2343
 2241TIP3    H228139   1.067   5.281  11.453  0.3124  1.8401  0.6902
 2242TIP3   OH228140   0.957   1.314  15.545 -0.7561  0.0166 -0.9237
 2242TIP3    H128141   0.873   1.346  15.513 -0.5748 -0.1432 -1.5803
 2242TIP3    H228142   0.949   1.315  15.640 -0.8554  1.7319 -0.9290
 2243TIP3   OH228143   5.289   4.327  12.560  0.0631 -0.4244  0.0883
 2243TIP3    H128144   5.319   4.245  12.601  1.2960  0.4352  0.9616
 2243TIP3    H228145   5.305   4.314  12.467  0.8048 -0.9781  0.2792
 2244TIP3   OH228146   2.856   2.130  16.474  0.3324 -0.1266 -0.1781
 2244TIP3    H128147   2.834   2.171  16.390 -0.2372 -1.3632 -0.6529
 2244TIP3    H228148   2.825   2.040  16.466  2.9991 -1.1576  0.2178
 2245TIP3   OH228149   5.625   1.276  15.683 -0.3230 -0.6385  0.1230
 2245TIP3    H128150   5.714   1.263  15.717 -0.9718 -0.3880  2.0271
 2245TIP3    H228151   5.592   1.351  15.732 -1.7017 -0.9328 -0.3335
 2246TIP3   OH228152   0.953   3.783  15.164 -0.3434 -0.1045  0.3869
 2246TIP3    H128153   0.907   3.712  15.208  0.6258 -0.3271  1.0677
 2246TIP3    H228154   0.992   3.742  15.086 -2.0133  0.2791 -0.7139
 2247TIP3   OH228155   3.210   2.725   4.740 -0.5353 -0.8161 -0.5249
 2247TIP3    H128156   3.283   2.693   4.687  1.7373  2.7912  0.0958
 2247TIP3    H228157   3.133   2.715   4.683  1.3954  0.6524 -3.6718
 2248TIP3   OH228158   0.997   5.162   1.306 -0.1534  1.0807  0.6262
 2248TIP3    H128159   0.979   5.091   1.244  0.8767  0.4104  1.0645
 2248TIP3    H228160   0.911   5.202   1.322 -0.8061 -0.2468  0.5926
 2249TIP3   OH228161   6.609   3.286   1.186  0.1468  0.3620 -0.0529
 2249TIP3    H128162   6.521   3.306   1.156 -0.2299  0.0454  0.8159
 2249TIP3    H228163   6.650   3.240   1.113  0.1088  1.8271 -1.0357
 2250TIP3   OH228164   5.663   0.700   3.187 -0.3758  0.0542  0.0839
 2250TIP3    H128165   5.678   0.633   3.254 -0.0682  0.9151  0.8987
 2250TIP3    H228166   5.711   0.777   3.219 -0.6755  0.6528 -0.8604
 2251TIP3   OH228167   2.284   3.152   3.439 -0.2481 -0.5130 -0.1363
 2251TIP3    H128168   2.356   3.160   3.501  0.6695 -2.5511 -0.8494
 2251TIP3    H228169   2.215   3.208   3.475  1.7137  1.7282  0.4541
 2252TIP3   OH228170   3.792   4.131   1.765  0.2693  0.1126  0.2186
 2252TIP3    H128171   3.808   4.043   1.731 -2.5271 -0.1179 -0.7399
 2252TIP3    H228172   3.750   4.116   1.850  0.8148  0.5654  0.5745
 2253TIP3   OH228173   3.257   5.671  15.941  0.3989 -0.1878  0.2695
 2253TIP3    H128174   3.329   5.728  15.915  0.0386  1.3101  2.2821
 2253TIP3    H228175   3.203   5.662  15.863  2.1495 -0.4448 -0.9688
 2254TIP3   OH228176   1.035   2.472  17.298  0.0170 -0.4183  0.5989
 2254TIP3    H128177   1.115   2.455  17.348  0.0226  0.4193  0.8993
 2254TIP3    H228178   1.026   2.568  17.301 -1.3611 -0.5467  1.1442
 2255TIP3   OH228179   2.681   2.714   4.680  0.1759  0.9572  0.2662
 2255TIP3    H128180   2.592   2.745   4.692 -0.1591  0.6482 -1.1895
 2255TIP3    H228181   2.684   2.685   4.588  1.5934  0.4064  0.4593
 2256TIP3   OH228182   0.528   3.604   0.706  0.1677  0.0694 -0.0977
 2256TIP3    H128183   0.474   3.618   0.628 -0.4127  0.6057  0.3887
 2256TIP3    H228184   0.546   3.692   0.739 -0.6756 -0.1826  1.0924
 2257TIP3   OH228185   5.998   6.313  14.958  0.3790 -0.3633 -0.1070
 2257TIP3    H128186   6.005   6.353  15.045 -1.1352  2.7582 -1.2528
 2257TIP3    H228187   6.004   6.387  14.898 -0.7723 -2.1485 -2.5675
 2258TIP3   OH228188   1.355   0.295  14.503  0.3050  0.5183  0.6832
 2258TIP3    H128189   1.294   0.228  14.533  0.9546  0.3873  1.7488
 2258TIP3    H228190   1.441   0.261  14.526  1.0288 -0.2951 -2.6604
 2259TIP3   OH228191   1.486   4.018   5.439  0.4165 -0.6253 -0.6619
 2259TIP3    H128192   1.556   4.005   5.503  0.9784 -1.1585 -1.3651
 2259TIP3    H228193   1.419   4.068   5.486  1.7681  0.9556 -0.3137
 2260TIP3   OH228194   4.901   0.048   3.650 -0.7304  0.1203 -0.0343
 2260TIP3    H128195   4.906   0.144   3.647  3.6337  0.0644 -0.7616
 2260TIP3    H228196   4.903   0.027   3.743 -0.6900  0.7028  0.1018
 2261TIP3   OH228197   4.847   5.292  13.104 -0.3110 -0.4041 -0.0882
 2261TIP3    H128198   4.840   5.201  13.134 -0.5498  0.1189  1.5163
 2261TIP3    H228199   4.756   5.323  13.102 -0.1277  0.2101  0.7423
 2262TIP3   OH228200   5.503   3.495  14.895  0.5139 -0.2034  0.1479
 2262TIP3    H128201   5.416   3.473  14.863  0.4668 -0.4878  0.4679
 2262TIP3    H228202   5.505   3.463  14.985  2.5639 -4.7242 -1.2006
 2263TIP3   OH228203   2.453   0.779   0.345  0.2592 -0.2861 -0.2055
 2263TIP3    H128204   2.520   0.716   0.317  1.0971  0.2101  0.5995
 2263TIP3    H228205   2.478   0.861   0.303  2.0221  0.6867  2.4152
 2264TIP3   OH228206   5.153   6.264   5.329 -0.1730 -0.1246  0.2264
 2264TIP3    H128207   5.234   6.288   5.284  0.6474 -3.8626 -0.5682
 2264TIP3    H228208   5.084   6.283   5.264  0.0617  2.0767  0.5239
 2265TIP3   OH228209   3.574   3.888   3.639  0.4987 -0.5420  0.0154
 2265TIP3    H128210   3.488   3.886   3.681  0.7452 -1.7478  0.5326
 2265TIP3    H228211   3.606   3.798   3.647  2.0999  0.0306  0.4499
 2266TIP3   OH228212   4.683   0.159  12.384  0.4533  0.0040 -0.3461
 2266TIP3    H128213   4.769   0.187  12.416 -0.7830  1.9251  1.5120
 2266TIP3    H228214   4.659   0.085  12.440  0.1377  0.6347  0.3673
 2267TIP3   OH228215   2.114   3.566   2.224  0.5846 -0.2167 -0.5222
 2267TIP3    H128216   2.111   3.654   2.188 -0.2204 -1.0964 -2.7743
 2267TIP3    H228217   2.194   3.528   2.189  0.0026 -0.9552 -1.1006
 2268TIP3   OH228218   0.194   4.667  13.445  0.4418  0.5719  0.1274
 2268TIP3    H128219   0.211   4.577  13.473 -0.9274  0.2633 -0.0006
 2268TIP3    H228220   0.164   4.711  13.524 -1.9084  0.0982 -0.4421
 2269TIP3   OH228221   4.321   3.881  15.185  0.6549 -0.6213  0.2222
 2269TIP3    H128222   4.320   3.976  15.194 -0.9313 -0.5685 -0.1997
 2269TIP3    H228223   4.275   3.864  15.102 -1.1540 -1.8306  1.4074
 2270TIP3   OH228224   3.896   0.955  17.001 -0.3962 -0.2567  0.1096
 2270TIP3    H128225   3.843   1.014  16.948 -0.3761 -0.4567 -0.1331
 2270TIP3    H228226   3.930   1.010  17.072  2.2356  0.8284 -1.8055
 2271TIP3   OH228227   6.730   2.644  12.075 -0.2108  0.1876 -0.0484
 2271TIP3    H128228   6.645   2.680  12.047 -0.0939  1.5067  1.1406
 2271TIP3    H228229   6.712   2.552  12.091 -2.1209  0.8887  2.5328
 2272TIP3   OH228230   3.301   5.691  15.429 -0.7284 -0.6441 -0.1340
 2272TIP3    H128231   3.207   5.699  15.442 -0.8086  0.0450 -1.1025
 2272TIP3    H228232   3.324   5.609  15.473 -1.3662  0.3380  2.1945
 2273TIP3   OH228233   1.129   1.005  16.448  0.1407  0.3070 -0.0009
 2273TIP3    H128234   1.125   0.911  16.426 -1.5500  0.2863  0.2957
 2273TIP3    H228235   1.076   1.048  16.381 -0.0105  0.9256  0.5050
 2274TIP3   OH228236   5.823   4.828  10.468 -0.1663  0.0475 -0.0011
 2274TIP3    H128237   5.892   4.789  10.522 -0.2348  0.2776  0.2524
 2274TIP3    H228238   5.750   4.766  10.475 -0.7600  0.8635  1.4951
 2275TIP3   OH228239   4.899   5.728  13.912  0.8738  0.3081 -0.2381
 2275TIP3    H128240   4.892   5.717  13.817  0.9898  0.9900 -0.3336
 2275TIP3    H228241   4.990   5.706  13.933  1.3369  1.7896 -0.5430
 2276TIP3   OH228242   5.640   2.527   0.604  0.2422  0.1585 -0.1774
 2276TIP3    H128243   5.640   2.434   0.625 -2.7182 -0.5030 -2.3391
 2276TIP3    H228244   5.684   2.533   0.520 -1.0683  0.3985 -0.8715
 2277TIP3   OH228245   3.597   2.785  16.462  0.1763  0.4874  0.2321
 2277TIP3    H128246   3.519   2.797  16.517  0.2767 -0.7218  0.6527
 2277TIP3    H228247   3.637   2.705  16.494  0.5463  0.0507 -1.2434
 2278TIP3   OH228248   6.194   3.689  16.141 -0.0266 -0.1006  0.2106
 2278TIP3    H128249   6.183   3.783  16.153 -0.4961 -0.2714  1.2542
 2278TIP3    H228250   6.132   3.666  16.071 -2.4830 -0.1367  2.2277
 2279TIP3   OH228251   1.739   4.829   4.495  0.3308  0.6633 -0.1623
 2279TIP3    H128252   1.761   4.878   4.574 -0.5035  0.9618 -0.1161
 2279TIP3    H228253   1.783   4.877   4.424  2.3868 -0.4721  0.2699
 2280TIP3   OH228254   5.809   2.395  12.789 -0.3704 -0.3991 -0.2165
 2280TIP3    H128255   5.761   2.312  12.790  0.3067 -0.8008  0.8978
 2280TIP3    H228256   5.877   2.384  12.855  1.2318  0.1658 -1.6985
 2281TIP3   OH228257   4.129   0.816  13.538 -0.0079  0.5787 -0.0613
 2281TIP3    H128258   4.043   0.785  13.510 -0.3277  0.6663  0.7945
 2281TIP3    H228259   4.183   0.814  13.458 -0.2511 -1.3175 -0.2156
 2282TIP3   OH228260   5.211   3.865  12.783  0.0638 -0.1641  0.0882
 2282TIP3    H128261   5.181   3.800  12.720  0.3328 -0.9307  0.7355
 2282TIP3    H228262   5.132   3.914  12.808  0.0451  0.5256 -1.2443
 2283TIP3   OH228263   3.103   4.706   6.114  0.1689  0.1153 -0.2224
 2283TIP3    H128264   3.027   4.648   6.121 -0.0633  0.1832 -1.8038
 2283TIP3    H228265   3.177   4.650   6.139 -0.4403  0.4073  2.6720
 2284TIP3   OH228266   0.452   2.476   1.771 -0.7032  0.3178  0.1926
 2284TIP3    H128267   0.433   2.562   1.809  0.2485  0.0896  1.2531
 2284TIP3    H228268   0.371   2.427   1.781 -1.1242  0.9551 -0.0423
 2285TIP3   OH228269   1.217   5.270   3.221 -0.2902 -0.1347  0.5912
 2285TIP3    H128270   1.194   5.239   3.134 -1.4519 -3.0715  1.7902
 2285TIP3    H228271   1.311   5.289   3.216 -0.0938 -1.3255 -1.0344
 2286TIP3   OH228272   3.389   4.622   2.955  0.5054  0.1792  0.0366
 2286TIP3    H128273   3.422   4.571   3.029  0.4170 -0.2917 -0.2429
 2286TIP3    H228274   3.339   4.559   2.903 -2.8613  1.2926  1.6253
 2287TIP3   OH228275   0.934   6.191   6.044 -0.3594  0.0713  0.1256
 2287TIP3    H128276   0.885   6.188   6.127 -2.2126 -0.7985 -0.9238
 2287TIP3    H228277   0.888   6.129   5.988 -0.3070  1.9870 -2.1675
 2288TIP3   OH228278   1.749   3.599   3.696  0.3246 -0.1178  0.1395
 2288TIP3    H128279   1.770   3.607   3.603 -1.5919 -1.2012 -0.4238
 2288TIP3    H228280   1.747   3.690   3.728  0.7950  0.2769 -0.8985
 2289TIP3   OH228281   6.613   3.711   4.438 -0.0980  0.1406  0.9442
 2289TIP3    H128282   6.692   3.701   4.490 -1.3734 -0.9661  2.7536
 2289TIP3    H228283   6.599   3.806   4.433  1.2014  0.3324  0.7882
 2290TIP3   OH228284   1.712   1.533  15.822  0.5906 -0.1577  0.0056
 2290TIP3    H128285   1.629   1.581  15.826  0.4283 -0.4766  0.5628
 2290TIP3    H228286   1.769   1.580  15.883 -0.1645 -1.7621  2.0930
 2291TIP3   OH228287   4.605   4.445  15.407  0.4178 -0.8945 -0.0709
 2291TIP3    H128288   4.643   4.383  15.344  1.2911  0.4352 -0.8854
 2291TIP3    H228289   4.616   4.531  15.367  2.8495  0.2869  2.6836
 2292TIP3   OH228290   0.515   2.602  12.829  0.0825  0.1575  0.3253
 2292TIP3    H128291   0.434   2.557  12.852 -0.5673  1.3085  0.3765
 2292TIP3    H228292   0.490   2.662  12.759  0.8822  0.5602  0.3696
 2293TIP3   OH228293   1.326   0.655  13.888  0.5033 -0.1144 -0.3275
 2293TIP3    H128294   1.355   0.624  13.802  1.8274 -0.7848  0.3194
 2293TIP3    H228295   1.277   0.581  13.924 -0.0939  0.1847 -0.5022
 2294TIP3   OH228296   4.702   4.352  13.404  0.1603 -0.2053  0.1938
 2294TIP3    H128297   4.781   4.318  13.363  0.0630 -0.6762  0.3894
 2294TIP3    H228298   4.730   4.379  13.492  0.1452 -0.1844  0.1924
 2295TIP3   OH228299   1.162   2.240   0.250 -0.3736 -0.5209 -0.3367
 2295TIP3    H128300   1.092   2.304   0.238  0.2711  0.1898 -0.3991
 2295TIP3    H228301   1.180   2.208   0.162  0.2618  0.2617 -0.5007
 2296TIP3   OH228302   4.659   6.011   5.627  0.3861 -0.0549  0.4624
 2296TIP3    H128303   4.599   6.028   5.554  1.1554  0.2937 -0.0998
 2296TIP3    H228304   4.745   6.032   5.592  0.7771 -0.0067  1.4415
 2297TIP3   OH228305   6.299   4.552   6.116 -0.7118 -0.3915 -0.2787
 2297TIP3    H128306   6.367   4.619   6.112 -0.3639 -0.2488  3.8489
 2297TIP3    H228307   6.345   4.471   6.134 -1.4612 -0.3974  1.9530
 2298TIP3   OH228308   2.935   0.944   3.764  0.1803 -0.5497 -0.4690
 2298TIP3    H128309   2.994   0.987   3.826 -0.9531 -1.6521  1.4736
 2298TIP3    H228310   2.977   0.861   3.744 -0.4332 -1.1262  0.5424
 2299TIP3   OH228311   6.486   0.133  11.621 -0.2734  0.1655 -0.3277
 2299TIP3    H128312   6.538   0.060  11.653 -1.4341  0.0350  1.3749
 2299TIP3    H228313   6.520   0.209  11.668 -1.1982  0.1671  0.3688
 2300TIP3   OH228314   5.412   4.912   4.233 -0.0625 -0.2113 -0.0331
 2300TIP3    H128315   5.353   4.980   4.201 -1.3481 -0.7095  1.1734
 2300TIP3    H228316   5.371   4.830   4.206  1.7657 -0.5704 -1.9834
 2301TIP3   OH228317   1.228   4.451   2.243  0.3700  0.2460  0.2525
 2301TIP3    H128318   1.302   4.476   2.188  1.4414 -1.3584  0.9181
 2301TIP3    H228319   1.161   4.422   2.181  0.7513  0.5288 -0.2998
 2302TIP3   OH228320   0.627   4.140  14.955  0.1473  0.4754  0.0788
 2302TIP3    H128321   0.694   4.097  15.008 -0.1960  0.7215  0.7301
 2302TIP3    H228322   0.548   4.136  15.009  0.1657  2.1658  0.2786
 2303TIP3   OH228323   2.985   6.663  13.443  0.1732  0.4046  0.0131
 2303TIP3    H128324   2.989   6.623  13.530 -2.0615 -0.9695 -0.4487
 2303TIP3    H228325   3.077   6.676  13.419  0.8945 -1.0172  1.7412
 2304TIP3   OH228326   6.740   4.937  10.970 -0.6541 -0.1694 -0.4412
 2304TIP3    H128327   6.713   5.029  10.976 -1.8292 -0.5774  1.5875
 2304TIP3    H228328   6.663   4.888  11.001  0.3378 -1.7722 -0.4304
 2305TIP3   OH228329   6.280   1.854  12.597  0.2227  0.2367 -1.1823
 2305TIP3    H128330   6.209   1.830  12.657 -0.1594  0.3603 -1.5838
 2305TIP3    H228331   6.288   1.949  12.606  1.1470  0.0895 -0.2479
 2306TIP3   OH228332   0.507   2.869   4.039 -0.2244  0.0949  0.2185
 2306TIP3    H128333   0.489   2.787   3.993 -0.1599 -0.2675  0.8256
 2306TIP3    H228334   0.510   2.844   4.132  0.4967  0.6563  0.3543
 2307TIP3   OH228335   3.469   1.102   2.695  0.2020  0.5562 -0.2449
 2307TIP3    H128336   3.558   1.130   2.716  0.3424  0.2471 -0.4194
 2307TIP3    H228337   3.431   1.175   2.646  0.9102  0.0231 -1.6074
 2308TIP3   OH228338   2.460   0.778   3.112 -0.0014 -0.3686 -0.1783
 2308TIP3    H128339   2.419   0.784   3.198  1.1981  0.8818  0.3360
 2308TIP3    H228340   2.521   0.704   3.120  0.3117 -0.0806  0.1444
 2309TIP3   OH228341   2.282   0.167   5.450  0.6124 -0.6588 -0.3830
 2309TIP3    H128342   2.364   0.199   5.488  1.6222 -0.7724 -2.3259
 2309TIP3    H228343   2.228   0.143   5.525  2.7480 -1.5415  0.9705
 2310TIP3   OH228344   3.614   5.520   1.025  0.1193 -0.7023 -0.1391
 2310TIP3    H128345   3.609   5.509   1.120 -2.4548 -0.6905 -0.1971
 2310TIP3    H228346   3.598   5.614   1.011 -2.0129 -1.0638 -0.6051
 2311TIP3   OH228347   0.982   3.169   2.283  0.2651  0.2755 -0.5360
 2311TIP3    H128348   1.068   3.188   2.321  0.9200 -0.4340 -1.6112
 2311TIP3    H228349   1.002   3.135   2.196 -1.1557  1.2096 -1.2585
 2312TIP3   OH228350   2.309   1.457   1.539  0.1047 -0.5114  0.0229
 2312TIP3    H128351   2.250   1.495   1.474  1.0056  1.5206  0.3167
 2312TIP3    H228352   2.372   1.406   1.488  0.3772  0.4758 -0.6624
 2313TIP3   OH228353   5.449   5.080  15.149 -0.6462 -0.1115 -0.0959
 2313TIP3    H128354   5.459   5.010  15.215 -0.3177  1.3285  1.4407
 2313TIP3    H228355   5.538   5.097  15.119 -0.5317  0.6320  0.6255
 2314TIP3   OH228356   3.686   0.796  14.246  0.2078 -0.4035 -0.0489
 2314TIP3    H128357   3.704   0.756  14.332  2.1493  0.2772 -0.0867
 2314TIP3    H228358   3.718   0.731  14.183 -0.9979 -0.7959 -0.2914
 2315TIP3   OH228359   3.704   6.543   3.300  0.4911 -0.2087 -0.2261
 2315TIP3    H128360   3.796   6.518   3.296  0.6263  0.2816 -0.2059
 2315TIP3    H228361   3.662   6.473   3.351  0.1868 -2.3778 -3.1306
 2316TIP3   OH228362   2.594   1.796   5.905  0.2172  0.1552  0.1844
 2316TIP3    H128363   2.524   1.835   5.956 -0.8914 -0.8923 -0.4988
 2316TIP3    H228364   2.640   1.871   5.867 -1.0764  0.8383 -0.0695
 2317TIP3   OH228365   3.176   6.752   4.390 -0.6138 -0.0472 -0.1026
 2317TIP3    H128366   3.212   6.807   4.460 -0.5370 -0.5758  0.2764
 2317TIP3    H228367   3.247   6.691   4.369  0.0709  1.2752 -1.9463
 2318TIP3   OH228368   2.887   3.895  15.084 -0.1951  0.3256 -0.3089
 2318TIP3    H128369   2.824   3.923  15.150  0.9983 -0.4931  1.2507
 2318TIP3    H228370   2.848   3.815  15.048 -0.0587 -0.2011  0.6711
 2319TIP3   OH228371   4.767   1.314   3.380  0.1914  0.0180 -0.1364
 2319TIP3    H128372   4.801   1.262   3.453 -1.3342 -4.3393 -2.1675
 2319TIP3    H228373   4.833   1.303   3.311 -1.4241 -1.7932 -1.5014
 2320TIP3   OH228374   2.901   1.331  17.180  0.7049  0.6226  0.8747
 2320TIP3    H128375   2.909   1.237  17.167 -0.5055  0.1871  2.9282
 2320TIP3    H228376   2.938   1.347  17.267  2.5080  2.3579 -0.1188
 2321TIP3   OH228377   3.891   0.389  14.828 -0.0890 -0.2870  0.5491
 2321TIP3    H128378   3.870   0.365  14.737  0.3550  1.2100  0.0170
 2321TIP3    H228379   3.846   0.472  14.842  2.7235  1.4067  0.4180
 2322TIP3   OH228380   4.062   5.026  17.375  0.1616 -0.4514  0.1333
 2322TIP3    H128381   4.117   5.023  17.297 -1.3422  3.1358 -1.2524
 2322TIP3    H228382   4.102   5.092  17.431 -1.1922  0.2033  0.3588
 2323TIP3   OH228383   0.414   1.353  15.416  0.2439  0.6638  0.0809
 2323TIP3    H128384   0.401   1.414  15.343  0.3705  0.8662  0.2309
 2323TIP3    H228385   0.358   1.386  15.486  0.3579  0.6409  0.1830
 2324TIP3   OH228386   0.792   0.457  15.091 -0.7826 -0.0912 -0.5982
 2324TIP3    H128387   0.757   0.456  15.180  0.1787  0.7382 -0.1931
 2324TIP3    H228388   0.837   0.541  15.083  0.3317 -0.7312 -1.3849
 2325TIP3   OH228389   5.174   1.903  16.627  0.5069  0.1004 -0.5237
 2325TIP3    H128390   5.103   1.864  16.678  1.5182  0.9619  1.6643
 2325TIP3    H228391   5.136   1.983  16.589 -0.7767 -1.4482 -2.7750
 2326TIP3   OH228392   6.059   1.213   2.862 -0.6414 -0.4386 -0.0419
 2326TIP3    H128393   5.990   1.257   2.813  0.1058  0.3545 -0.4184
 2326TIP3    H228394   6.137   1.224   2.808  0.0457 -0.1845  0.9695
 2327TIP3   OH228395   1.973   4.790   5.429  0.7199  0.2721  0.0070
 2327TIP3    H128396   1.999   4.876   5.395  0.0663  0.6412  0.4262
 2327TIP3    H228397   2.029   4.728   5.382  2.6972  1.0683  1.1872
 2328TIP3   OH228398   6.579   1.668   0.906  0.1110  0.0825 -0.3666
 2328TIP3    H128399   6.639   1.694   0.836  1.2463 -0.2944  0.4383
 2328TIP3    H228400   6.589   1.736   0.972 -0.6998  0.2558 -0.4113
 2329TIP3   OH228401   5.508   5.498   3.076 -0.1577 -0.2077  0.0431
 2329TIP3    H128402   5.437   5.560   3.095  0.0912 -0.2177  1.0547
 2329TIP3    H228403   5.534   5.465   3.162 -0.0393 -1.4515 -0.4552
 2330TIP3   OH228404   3.507   2.294   0.600 -0.2808  0.4855 -0.1394
 2330TIP3    H128405   3.574   2.359   0.581  0.5434  0.1363  1.3689
 2330TIP3    H228406   3.531   2.217   0.548  0.8802  0.1485  0.8609
 2331TIP3   OH228407   6.266   2.071   6.813  0.3060 -0.7150  0.1831
 2331TIP3    H128408   6.261   2.164   6.834 -0.2429 -1.2166  2.5530
 2331TIP3    H228409   6.355   2.058   6.780  0.5867  0.5543  0.4038
 2332TIP3   OH228410   2.213   6.686   3.705 -0.2186 -0.2783 -0.0227
 2332TIP3    H128411   2.147   6.746   3.741  1.6897  1.9936 -0.0754
 2332TIP3    H228412   2.259   6.653   3.782 -1.1708 -1.6728 -0.0045
 2333TIP3   OH228413   4.737   4.314   1.547 -0.2582 -0.1651 -0.0817
 2333TIP3    H128414   4.689   4.242   1.588  0.0107  0.3434  1.1843
 2333TIP3    H228415   4.674   4.356   1.490 -1.4509  0.6473  1.7449
 2334TIP3   OH228416   4.929   1.127   3.178  0.0798 -0.4860  0.2381
 2334TIP3    H128417   4.918   1.041   3.218  3.4424 -1.4855 -0.6412
 2334TIP3    H228418   4.895   1.117   3.089  0.1066 -0.7966  0.2618
 2335TIP3   OH228419   0.318   2.368  15.116  0.4648  0.6121  0.1607
 2335TIP3    H128420   0.374   2.350  15.191  1.4692  1.6503 -0.3034
 2335TIP3    H228421   0.322   2.463  15.106 -2.5311  0.9159  0.9571
 2336TIP3   OH228422   5.673   4.802   5.304  0.2810 -0.1402  0.2745
 2336TIP3    H128423   5.608   4.864   5.271 -1.5173 -1.1513  1.7275
 2336TIP3    H228424   5.665   4.726   5.247  0.5350 -0.1003  0.1806
 2337TIP3   OH228425   2.515   4.651   1.938 -0.6214 -0.3126  0.4172
 2337TIP3    H128426   2.581   4.707   1.897 -2.2525  0.4763 -1.3266
 2337TIP3    H228427   2.556   4.566   1.945 -0.2949 -0.6588 -3.4536
 2338TIP3   OH228428   0.167   1.358   5.236 -0.1005  0.1996 -0.1731
 2338TIP3    H128429   0.166   1.431   5.297  0.2566  0.0459  0.0193
 2338TIP3    H228430   0.106   1.295   5.274 -0.0147  0.1800 -0.0669
 2339TIP3   OH228431   3.955   2.120  16.653  0.0631  0.2793  0.0309
 2339TIP3    H128432   3.876   2.158  16.616 -1.2305 -2.6629 -0.4717
 2339TIP3    H228433   4.013   2.108  16.578 -1.0489 -2.1228 -0.5349
 2340TIP3   OH228434   3.414   4.918  14.992 -0.6457 -0.1985 -0.0285
 2340TIP3    H128435   3.506   4.941  14.979 -0.6338  0.1188  0.5668
 2340TIP3    H228436   3.406   4.829  14.957  0.1843 -0.7198  1.0532
 2341TIP3   OH228437   3.729   1.324   4.141  0.3729  0.3423  0.3984
 2341TIP3    H128438   3.674   1.355   4.070  1.9351  1.5324 -0.3408
 2341TIP3    H228439   3.668   1.306   4.213 -0.9831  1.4634 -0.4267
 2342TIP3   OH228440   3.161   5.841  11.874 -0.1415 -0.2986 -0.0503
 2342TIP3    H128441   3.090   5.836  11.939 -0.4825 -0.5627 -0.4387
 2342TIP3    H228442   3.119   5.816  11.792  0.7135 -1.8003 -0.0604
 2343TIP3   OH228443   4.841   0.733  15.251  0.1809 -0.3020  0.6751
 2343TIP3    H128444   4.828   0.638  15.247  1.3191 -0.4259 -1.2065
 2343TIP3    H228445   4.924   0.744  15.297  1.7874 -0.4668 -2.0094
 2344TIP3   OH228446   1.540   2.042   1.308 -0.2398  0.1780 -0.3986
 2344TIP3    H128447   1.485   1.965   1.323  0.6016 -0.6859 -1.5540
 2344TIP3    H228448   1.618   2.008   1.264  0.2751  1.6543 -0.6941
 2345TIP3   OH228449   1.290   5.523   0.370  0.5008  0.1069 -0.4638
 2345TIP3    H128450   1.298   5.430   0.352 -0.8089 -0.2082  0.4275
 2345TIP3    H228451   1.327   5.566   0.292 -0.8272 -1.1611 -1.8578
 2346TIP3   OH228452   6.569   0.281  17.355  0.0159  0.4388 -0.1971
 2346TIP3    H128453   6.662   0.279  17.333  0.0738  1.3518 -0.0687
 2346TIP3    H228454   6.538   0.193  17.335  1.3358 -0.5189  1.6621
 2347TIP3   OH228455   1.993   2.792   3.733 -0.0015 -0.1260 -0.3361
 2347TIP3    H128456   1.954   2.769   3.817  0.2109  0.1374 -0.1634
 2347TIP3    H228457   1.973   2.718   3.676 -1.1510  0.2054 -0.3791
 2348TIP3   OH228458   2.125   1.465  16.547  0.1642  0.1281 -0.3455
 2348TIP3    H128459   2.044   1.512  16.530  1.4395  2.3011 -0.7653
 2348TIP3    H228460   2.193   1.519  16.506  2.1210 -0.2476  2.1912
 2349TIP3   OH228461   6.525   5.383  16.916 -0.1996 -0.6261  0.3402
 2349TIP3    H128462   6.489   5.406  16.830  1.1330 -1.2357 -0.4165
 2349TIP3    H228463   6.448   5.369  16.971 -1.0798  1.3795 -0.2831
 2350TIP3   OH228464   6.411   5.936  11.589 -0.3197 -0.5283 -0.4923
 2350TIP3    H128465   6.459   5.961  11.509  0.5418 -1.9367 -0.4560
 2350TIP3    H228466   6.323   5.973  11.577  0.6815  1.9874 -0.6412
 2351TIP3   OH228467   2.826   3.988  16.948  0.5298  0.4186 -0.0846
 2351TIP3    H128468   2.733   3.969  16.958  0.5244  0.7362  0.5194
 2351TIP3    H228469   2.855   4.014  17.036  1.2165  0.1953 -0.2378
 2352TIP3   OH228470   2.226   0.610  10.868 -0.2201 -0.0772 -0.3806
 2352TIP3    H128471   2.205   0.695  10.829 -1.1209  0.4026  1.1012
 2352TIP3    H228472   2.314   0.622  10.904 -0.2773  0.1684 -0.3213
 2353TIP3   OH228473   5.463   2.584  14.768 -0.8518 -0.0909 -0.4719
 2353TIP3    H128474   5.514   2.663  14.751 -2.6493  1.3613  0.5075
 2353TIP3    H228475   5.413   2.570  14.688 -0.8861  0.0567 -0.4767
 2354TIP3   OH228476   4.691   0.474   1.011 -0.1305 -0.0802  0.1397
 2354TIP3    H128477   4.742   0.394   1.002 -0.2743 -0.2351  0.6992
 2354TIP3    H228478   4.600   0.444   1.017 -0.3267  0.1993 -1.0294
 2355TIP3   OH228479   0.944   4.602  11.724 -0.1196  0.0905 -0.2364
 2355TIP3    H128480   0.956   4.515  11.762  0.9325 -0.6693 -2.1871
 2355TIP3    H228481   0.859   4.597  11.680 -1.0040  0.7401  1.3311
 2356TIP3   OH228482   5.705   3.937   2.355  0.3486  0.0156 -0.5051
 2356TIP3    H128483   5.754   3.856   2.368 -0.0163 -0.0307  0.7277
 2356TIP3    H228484   5.686   3.968   2.444  0.2156  1.2893 -0.9544
 2357TIP3   OH228485   1.610   2.603  11.573 -0.4079 -0.4362 -0.0688
 2357TIP3    H128486   1.518   2.613  11.548 -0.2839  0.6954 -0.1265
 2357TIP3    H228487   1.616   2.645  11.659  0.2560  0.4624 -0.5325
 2358TIP3   OH228488   1.520   5.609   2.937  0.5712  0.0349 -0.2453
 2358TIP3    H128489   1.512   5.657   2.855 -0.7742  0.1174 -0.0794
 2358TIP3    H228490   1.553   5.673   2.999  0.4028  0.3022 -0.4276
 2359TIP3   OH228491   3.158   4.215  14.393 -0.6048  0.0110  0.0195
 2359TIP3    H128492   3.064   4.230  14.397 -0.6391  0.1643 -0.9984
 2359TIP3    H228493   3.198   4.301  14.407 -0.5526 -0.2706  1.8251
 2360TIP3   OH228494   2.758   5.660  13.591 -0.1390  0.6744 -0.8050
 2360TIP3    H128495   2.673   5.703  13.595 -0.7419 -0.4721 -0.8473
 2360TIP3    H228496   2.742   5.580  13.541  0.5563 -0.4256  0.6483
 2361TIP3   OH228497   4.609   6.297   4.895  0.3794 -0.2031 -0.3518
 2361TIP3    H128498   4.683   6.255   4.852 -1.0996 -2.6131 -0.7468
 2361TIP3    H228499   4.561   6.340   4.824  0.5963  0.0827 -0.3265
 2362TIP3   OH228500   2.159   0.023  11.459  0.4474  0.5243 -0.4497
 2362TIP3    H128501   2.209   0.104  11.460 -0.8258  1.3714  1.4412
 2362TIP3    H228502   2.127   0.013  11.549 -0.3224 -1.5202 -0.8813
 2363TIP3   OH228503   4.293   2.733   6.654  0.7078 -0.2160 -0.1684
 2363TIP3    H128504   4.327   2.819   6.629  0.8795 -0.9955 -2.9921
 2363TIP3    H228505   4.362   2.672   6.630  0.0476 -1.2684  0.5407
 2364TIP3   OH228506   6.176   2.289  11.711  0.1035  0.5746 -0.7608
 2364TIP3    H128507   6.211   2.203  11.690  1.0267  0.9932 -0.9851
 2364TIP3    H228508   6.237   2.351  11.670  0.7914  1.3789  1.3060
 2365TIP3   OH228509   0.463   0.553  12.948 -0.4657 -0.0855  0.1790
 2365TIP3    H128510   0.478   0.480  13.008 -1.6137  1.0440  1.9582
 2365TIP3    H228511   0.538   0.552  12.889  0.5917 -1.4276  1.4675
 2366TIP3   OH228512   2.244   0.918  10.691 -0.3539  0.0601  0.2095
 2366TIP3    H128513   2.247   0.832  10.649 -2.6615 -1.5228  2.9027
 2366TIP3    H228514   2.194   0.972  10.630 -0.0767 -0.8869 -0.9118
 2367TIP3   OH228515   5.918   3.091  13.049 -0.0646 -0.1846 -0.5522
 2367TIP3    H128516   5.834   3.088  13.005  0.4809  0.3245 -1.6712
 2367TIP3    H228517   5.974   3.033  12.998  0.0549 -1.1953  0.6806
 2368TIP3   OH228518   3.434   3.023   3.217  0.6482  0.0654 -0.1102
 2368TIP3    H128519   3.351   3.058   3.248 -0.6263 -2.1093 -0.8723
 2368TIP3    H228520   3.466   2.969   3.289  0.4142 -0.6696 -0.5580
 2369TIP3   OH228521   4.792   1.030  12.458 -0.2297 -0.2533  0.2664
 2369TIP3    H128522   4.867   1.001  12.406  1.5659  2.9063  0.8055
 2369TIP3    H228523   4.818   1.015  12.548 -0.7763 -0.2528  0.4258
 2370TIP3   OH228524   6.154   1.055   2.150  0.5688  0.1104  0.0509
 2370TIP3    H128525   6.225   1.034   2.210 -0.6105  0.0364  1.4825
 2370TIP3    H228526   6.197   1.085   2.070  2.1981 -0.8888  0.5199
 2371TIP3   OH228527   0.209   5.681   1.139  0.3953 -0.0478 -0.7446
 2371TIP3    H128528   0.283   5.717   1.188 -0.7245  1.5054 -0.1095
 2371TIP3    H228529   0.172   5.757   1.093 -0.7903 -0.7987 -1.0526
 2372TIP3   OH228530   4.353   4.444  14.424  0.7969  0.1808  0.4096
 2372TIP3    H128531   4.420   4.442  14.492  1.4808  2.1588 -0.1521
 2372TIP3    H228532   4.401   4.449  14.342 -0.0011  1.7401 -0.0029
 2373TIP3   OH228533   0.078   1.148  16.914  0.1974 -0.5613  0.7464
 2373TIP3    H128534   0.078   1.131  17.008 -0.4273 -0.6140  0.7347
 2373TIP3    H228535   0.159   1.107  16.883 -0.0606 -1.3609  1.1136
 2374TIP3   OH228536   3.533   1.703  14.382  0.3653 -0.1330 -0.6601
 2374TIP3    H128537   3.582   1.720  14.302  1.8651 -1.2140 -0.0271
 2374TIP3    H228538   3.538   1.784  14.432 -1.5683  0.9510 -2.0885
 2375TIP3   OH228539   2.563   5.003  15.429 -0.0513  0.0858 -0.0691
 2375TIP3    H128540   2.502   5.076  15.417  0.2078  0.4924  1.0224
 2375TIP3    H228541   2.594   5.011  15.519 -0.7199 -1.9175  0.3913
 2376TIP3   OH228542   1.222   0.684  16.154  0.3772  0.2069 -0.5972
 2376TIP3    H128543   1.163   0.727  16.216  0.5413  0.4285 -0.5920
 2376TIP3    H228544   1.301   0.666  16.206 -0.0247 -0.9246 -0.3521
 2377TIP3   OH228545   0.006   0.419  11.528 -0.3592 -0.4074  0.2029
 2377TIP3    H128546   0.014   0.335  11.485 -0.7873 -0.0396 -0.6071
 2377TIP3    H228547  -0.087   0.428  11.547 -0.2956 -0.1770  0.4163
 2378TIP3   OH228548   2.656   3.530  10.434 -0.0061 -0.4591  0.0115
 2378TIP3    H128549   2.665   3.601  10.498  0.2131 -0.5212  0.0510
 2378TIP3    H228550   2.686   3.453  10.481 -1.3482 -0.7986  0.3572
 2379TIP3   OH228551   6.506   1.948   5.736 -0.1047  0.5245 -0.5073
 2379TIP3    H128552   6.517   1.909   5.649 -0.5351 -0.0706 -0.3042
 2379TIP3    H228553   6.480   2.039   5.718  0.9287  0.7388 -0.9844
 2380TIP3   OH228554   2.606   5.945  13.769 -0.4115  0.3484  0.0072
 2380TIP3    H128555   2.533   5.986  13.816  0.3557  1.0657  0.6025
 2380TIP3    H228556   2.679   5.947  13.831  0.2902  0.2060 -0.7877
 2381TIP3   OH228557   2.860   2.778   2.531  0.4149 -0.0304  0.7239
 2381TIP3    H128558   2.889   2.706   2.586  0.1606 -0.9244 -0.2794
 2381TIP3    H228559   2.831   2.737   2.450 -0.9988  1.0801  0.6185
 2382TIP3   OH228560   2.397   2.250   0.086  0.1681  0.1888  0.5670
 2382TIP3    H128561   2.392   2.157   0.063 -1.4393 -0.2833  2.5458
 2382TIP3    H228562   2.489   2.272   0.079  0.5276 -1.4434 -0.3232
 2383TIP3   OH228563   4.326   3.158  14.396  0.7695 -0.3194 -0.1868
 2383TIP3    H128564   4.303   3.238  14.444  3.4921  0.2272  0.3581
 2383TIP3    H228565   4.255   3.097  14.416 -1.1838  1.7909 -0.2816
 2384TIP3   OH228566   2.159   5.866   5.414  0.2562 -0.4267 -0.0513
 2384TIP3    H128567   2.163   5.790   5.472  1.2094 -0.5848 -0.2935
 2384TIP3    H228568   2.072   5.902   5.426  0.6162 -0.1115  1.9058
 2385TIP3   OH228569   2.291   4.833   0.017 -0.9009 -0.1471 -0.5389
 2385TIP3    H128570   2.200   4.836   0.047 -0.9786 -1.3313 -0.6035
 2385TIP3    H228571   2.306   4.919  -0.024 -1.6623  0.4386  0.3654
 2386TIP3   OH228572   0.165   6.415  16.664  0.5275  0.2692  0.2969
 2386TIP3    H128573   0.253   6.389  16.691  0.3195  0.8868  1.6480
 2386TIP3    H228574   0.179   6.489  16.604  0.8906  2.0024  2.4244
 2387TIP3   OH228575   0.548   6.721   4.245 -0.8351 -0.4543 -0.6064
 2387TIP3    H128576   0.624   6.681   4.203  0.1610 -0.2655  0.9816
 2387TIP3    H228577   0.573   6.812   4.261 -0.2918 -1.0383  2.3805
 2388TIP3   OH228578   4.241   6.645  12.238  0.6129  0.0787 -0.6244
 2388TIP3    H128579   4.332   6.616  12.245 -0.1936 -2.5865 -0.1236
 2388TIP3    H228580   4.192   6.566  12.219 -1.5445  1.5873 -1.8019
 2389TIP3   OH228581   5.545   3.748  15.272  0.2021 -0.6853 -0.1288
 2389TIP3    H128582   5.544   3.733  15.177  0.9072 -0.0655 -0.2385
 2389TIP3    H228583   5.455   3.731  15.300 -0.0367 -0.7625 -0.9253
 2390TIP3   OH228584   1.509   3.855   2.358  0.3576  0.0006 -0.6901
 2390TIP3    H128585   1.590   3.878   2.312 -0.5682  0.3035 -2.2681
 2390TIP3    H228586   1.468   3.789   2.302 -0.9434  0.5718 -0.4586
 2391TIP3   OH228587   5.199   2.388   6.346  0.1277  0.4441 -0.1966
 2391TIP3    H128588   5.145   2.311   6.364  0.3915  0.2481 -0.2355
 2391TIP3    H228589   5.275   2.353   6.298  0.7010  0.5973  0.5866
 2392TIP3   OH228590   1.931   1.617   5.889 -0.0222 -0.4947  0.4732
 2392TIP3    H128591   1.871   1.559   5.842 -0.2547  1.6225 -2.0859
 2392TIP3    H228592   2.012   1.614   5.837 -0.6893  2.8770 -1.0031
 2393TIP3   OH228593   3.316   4.355  17.235  0.5385 -0.0426 -0.1770
 2393TIP3    H128594   3.228   4.336  17.203  0.0559 -0.0289  1.0663
 2393TIP3    H228595   3.332   4.446  17.210 -1.4693  1.3542  2.9948
 2394TIP3   OH228596   2.403   4.244   2.701 -1.1606  0.5313 -0.3600
 2394TIP3    H128597   2.366   4.312   2.645 -1.5311  0.5954 -0.0482
 2394TIP3    H228598   2.327   4.206   2.746 -0.9297  0.1036 -0.3186
 2395TIP3   OH228599   6.553   1.171   5.239 -0.4942 -0.5198 -0.3397
 2395TIP3    H128600   6.555   1.145   5.147 -2.3816 -1.6556 -0.0962
 2395TIP3    H228601   6.460   1.172   5.262 -0.0880  0.2610  1.4250
 2396TIP3   OH228602   5.409   6.718   4.908 -0.4418 -0.7546 -0.2030
 2396TIP3    H128603   5.392   6.773   4.984 -0.2812 -2.1286  0.8751
 2396TIP3    H228604   5.381   6.771   4.833  0.0831  0.9314  0.7301
 2397TIP3   OH228605   2.580   5.352   0.325 -0.2947  1.0037 -0.5677
 2397TIP3    H128606   2.632   5.404   0.386 -1.4253 -0.8004  2.1227
 2397TIP3    H228607   2.489   5.365   0.355 -0.6079 -2.6252  0.4659
 2398TIP3   OH228608   3.492   1.968   2.218  0.5074  0.0187 -0.1510
 2398TIP3    H128609   3.480   2.046   2.165  0.9376  0.0447 -0.2163
 2398TIP3    H228610   3.490   1.896   2.155  0.8790  0.0390 -0.1893
 2399TIP3   OH228611   0.191   5.260  14.254  0.1443  0.6571 -0.0351
 2399TIP3    H128612   0.259   5.203  14.292 -0.2732  0.1536 -0.0247
 2399TIP3    H228613   0.177   5.327  14.320 -1.4483 -0.8986  1.3168
 2400TIP3   OH228614   4.185   5.529   6.341 -0.1445 -0.1477 -0.1336
 2400TIP3    H128615   4.250   5.458   6.335 -0.8154 -0.7308 -0.8381
 2400TIP3    H228616   4.130   5.516   6.264 -1.7411 -0.3103  0.9965
 2401TIP3   OH228617   5.717   5.526  10.756 -0.1971  0.1896 -0.3270
 2401TIP3    H128618   5.755   5.455  10.807 -2.2803 -0.5049  0.3773
 2401TIP3    H228619   5.791   5.581  10.731  1.1865 -0.9297  1.1572
 2402TIP3   OH228620   0.657   3.721   4.114 -0.2271  0.3859  0.4003
 2402TIP3    H128621   0.642   3.663   4.188 -0.8004 -0.7987 -0.6146
 2402TIP3    H228622   0.610   3.801   4.137 -1.5110 -0.4407  0.7545
 2403TIP3   OH228623   2.734   1.329  16.881 -0.2833 -0.2217 -0.7625
 2403TIP3    H128624   2.703   1.302  16.968  0.3744 -3.5240 -1.4285
 2403TIP3    H228625   2.656   1.324  16.825 -0.1449 -0.8379 -0.9026
 2404TIP3   OH228626   4.113   1.156  11.299  0.0593  0.0597  0.6459
 2404TIP3    H128627   4.058   1.216  11.350  0.8795  0.7718  0.7222
 2404TIP3    H228628   4.073   1.155  11.212 -0.4532  0.0466  0.8788
 2405TIP3   OH228629   1.702   3.974   5.654 -0.2589  0.3230 -0.2629
 2405TIP3    H128630   1.751   4.034   5.710 -0.2837  1.8330 -1.7705
 2405TIP3    H228631   1.769   3.930   5.602 -0.0061 -2.8566  2.4031
 2406TIP3   OH228632   5.711   6.486  13.983 -0.3598  0.1745  0.5958
 2406TIP3    H128633   5.761   6.560  14.018 -0.7938  0.0567  1.5032
 2406TIP3    H228634   5.647   6.466  14.051 -1.1379 -0.1718 -0.2261
 2407TIP3   OH228635   4.547   0.946  11.954 -0.1476 -0.1085 -0.0564
 2407TIP3    H128636   4.517   0.969  11.866 -0.9924 -0.9453 -0.0016
 2407TIP3    H228637   4.634   0.985  11.960 -0.0993  0.0113 -1.2442
 2408TIP3   OH228638   5.700   1.976  17.238  0.2538  0.8263 -0.3327
 2408TIP3    H128639   5.786   1.935  17.244 -0.0740  0.1677 -0.0726
 2408TIP3    H228640   5.710   2.041  17.168  1.1920  1.3488  0.2620
 2409TIP3   OH228641   0.033   4.380  14.153 -0.6058 -0.3416 -0.3200
 2409TIP3    H128642   0.013   4.449  14.091 -1.6541  0.0113  0.3962
 2409TIP3    H228643  -0.047   4.329  14.160 -0.1165 -1.1202 -0.1734
 2410TIP3   OH228644   4.115   5.372   2.060 -0.2532 -0.7513  0.2584
 2410TIP3    H128645   4.124   5.276   2.055  1.4808 -0.5539 -1.4660
 2410TIP3    H228646   4.197   5.405   2.024 -1.7016  1.4133 -1.2143
 2411TIP3   OH228647   4.883   4.540  15.739 -0.3592 -0.3313 -0.1843
 2411TIP3    H128648   4.799   4.584  15.724  0.0725  0.8104  0.6090
 2411TIP3    H228649   4.869   4.491  15.820 -0.0463  0.4608  0.3601
 2412TIP3   OH228650   0.969   0.389   4.277  0.5599  0.3115 -0.0417
 2412TIP3    H128651   0.896   0.351   4.228  0.6959  1.0302 -0.8187
 2412TIP3    H228652   0.930   0.464   4.323  0.5007 -0.1732  0.7130
 2413TIP3   OH228653   6.390   6.190   0.273  0.0403 -0.3966 -0.0009
 2413TIP3    H128654   6.336   6.165   0.348  0.3646 -0.0042  0.3715
 2413TIP3    H228655   6.476   6.151   0.291  0.1526 -0.2010 -0.1035
 2414TIP3   OH228656   0.275   3.078  14.601 -0.7918 -0.0668  0.1105
 2414TIP3    H128657   0.323   3.001  14.570 -0.5204  0.6460 -1.3447
 2414TIP3    H228658   0.300   3.147  14.540 -2.0060  0.8662  0.6294
 2415TIP3   OH228659   5.745   6.221  14.958  0.5417 -0.1561 -0.0503
 2415TIP3    H128660   5.826   6.269  14.972  0.5451 -0.6234  1.8541
 2415TIP3    H228661   5.773   6.134  14.928  0.5656  0.6598 -2.6220
 2416TIP3   OH228662   0.872   3.302   0.359  0.2783 -0.0317  0.7972
 2416TIP3    H128663   0.937   3.239   0.386 -0.4778 -1.5133 -0.6361
 2416TIP3    H228664   0.916   3.354   0.291  0.3647 -0.2133  0.7124
 2417TIP3   OH228665   4.714   6.096   1.942  0.1501  0.2126  0.1708
 2417TIP3    H128666   4.692   6.005   1.961  1.8333 -0.3671 -0.5621
 2417TIP3    H228667   4.702   6.105   1.848  1.0361  0.4392  0.0719
 2418TIP3   OH228668   2.375   3.016  15.937  0.1107 -0.7942  0.0642
 2418TIP3    H128669   2.360   3.110  15.927  0.0597 -0.8807 -0.6835
 2418TIP3    H228670   2.466   3.010  15.967  0.0668 -0.5072  0.2668
 2419TIP3   OH228671   3.613   2.278   0.245  0.1130 -0.0255  0.0942
 2419TIP3    H128672   3.601   2.198   0.296 -1.1328 -0.7615 -1.2666
 2419TIP3    H228673   3.699   2.269   0.205  0.1029 -0.5513  0.1832
 2420TIP3   OH228674   6.410   4.471   5.350  0.3433 -0.0892  0.5855
 2420TIP3    H128675   6.342   4.474   5.417  0.7695  0.3121  1.0115
 2420TIP3    H228676   6.446   4.383   5.356  2.2029  0.7060  2.7775
 2421TIP3   OH228677   6.703   2.443  15.379  0.5374 -0.0753 -0.2116
 2421TIP3    H128678   6.797   2.444  15.392  0.4584 -0.2092  0.3974
 2421TIP3    H228679   6.668   2.400  15.457 -0.2224  2.5608  1.0075
 2422TIP3   OH228680   5.450   2.329   4.506  0.7165 -0.3123  0.2144
 2422TIP3    H128681   5.396   2.402   4.538 -0.6829 -1.1376 -0.1785
 2422TIP3    H228682   5.540   2.357   4.523  0.1871  1.1760  0.7714
 2423TIP3   OH228683   1.621   5.345  16.742  0.1624  0.1153 -0.0976
 2423TIP3    H128684   1.563   5.418  16.722 -0.0571  0.1520  0.6558
 2423TIP3    H228685   1.708   5.384  16.746 -0.1050  0.5879  1.5788
 2424TIP3   OH228686   4.577   5.791  13.548 -0.2738  0.1194 -0.1397
 2424TIP3    H128687   4.638   5.862  13.527 -0.5038  0.9061  1.6815
 2424TIP3    H228688   4.523   5.826  13.619 -3.4357 -0.2404 -2.1989
 2425TIP3   OH228689   5.489   0.019  15.915  0.2923  0.0842  0.6447
 2425TIP3    H128690   5.532   0.052  15.993 -0.6907  1.8222  0.4996
 2425TIP3    H228691   5.481  -0.075  15.930  1.1776  0.2201  2.0953
 2426TIP3   OH228692   0.686   0.656   2.801 -0.7247  0.0373 -0.4317
 2426TIP3    H128693   0.608   0.631   2.751 -0.2813 -0.6874 -0.7789
 2426TIP3    H228694   0.759   0.617   2.753 -0.3941 -2.3460  1.7473
 2427TIP3   OH228695   0.708   4.961  12.994  0.3929  0.2919  0.1514
 2427TIP3    H128696   0.803   4.952  12.980 -0.1347 -0.8929 -3.8024
 2427TIP3    H228697   0.687   5.047  12.957 -0.3038 -0.2811 -0.8208
 2428TIP3   OH228698   4.124   0.615   0.520 -0.2773 -0.2377 -0.3369
 2428TIP3    H128699   4.116   0.558   0.596  0.2812 -0.8809 -0.7421
 2428TIP3    H228700   4.038   0.611   0.478 -0.1364 -1.1106 -0.5745
 2429TIP3   OH228701   2.134   0.017   4.209  0.2049 -0.2153 -0.1390
 2429TIP3    H128702   2.119   0.095   4.262 -1.6889 -0.0413 -0.8380
 2429TIP3    H228703   2.055   0.011   4.154  0.4477 -2.4423 -0.3147
 2430TIP3   OH228704   6.507   0.027  17.285 -0.1921 -0.2591 -0.1881
 2430TIP3    H128705   6.467   0.032  17.198 -1.8092 -1.4171  0.4338
 2430TIP3    H228706   6.601   0.018  17.269 -0.5317 -1.1855 -1.8396
 2431TIP3   OH228707   5.184   5.135   6.366 -0.5932  0.3147 -0.4699
 2431TIP3    H128708   5.275   5.142   6.336 -0.4344 -2.6853 -0.9816
 2431TIP3    H228709   5.136   5.104   6.289 -1.7559  0.3082  0.2352
 2432TIP3   OH228710   2.333   5.685  17.031  0.3405  0.1826  0.0982
 2432TIP3    H128711   2.323   5.639  17.115  0.2916  0.1216  0.0587
 2432TIP3    H228712   2.294   5.626  16.967  1.6793 -0.4285 -0.1853
 2433TIP3   OH228713   0.064   1.284  15.461 -0.3888  0.3433 -0.0516
 2433TIP3    H128714  -0.010   1.324  15.417 -1.0552  0.2764  0.9631
 2433TIP3    H228715   0.066   1.326  15.547  0.0425 -0.4699  0.3470
 2434TIP3   OH228716   0.142   6.399  13.663 -0.4637 -0.6529 -0.4328
 2434TIP3    H128717   0.197   6.328  13.630  0.9007 -0.4546  1.2769
 2434TIP3    H228718   0.141   6.463  13.591  2.3443 -0.2526 -0.2268
 2435TIP3   OH228719   4.626   4.226   3.638  0.4297 -0.2225  0.5099
 2435TIP3    H128720   4.552   4.255   3.584  0.9924  0.0832 -0.1101
 2435TIP3    H228721   4.674   4.165   3.582  2.2745  1.7567 -0.2224
 2436TIP3   OH228722   0.036   3.929   5.486 -0.0120  0.5534 -0.0668
 2436TIP3    H128723  -0.052   3.937   5.449  0.5770  1.5499 -1.3321
 2436TIP3    H228724   0.029   3.967   5.573 -1.3354 -1.4622  0.7817
 2437TIP3   OH228725   6.564   1.932   0.056 -0.6728  0.4257 -0.4465
 2437TIP3    H128726   6.602   1.976  -0.020 -0.1549  2.1108  0.7282
 2437TIP3    H228727   6.491   1.989   0.082 -0.2121  0.4289  0.9084
 2438TIP3   OH228728   3.132   1.656  13.715  0.7660  0.0098  0.1105
 2438TIP3    H128729   3.050   1.641  13.670  0.5991  2.2178 -0.4195
 2438TIP3    H228730   3.191   1.588  13.682  0.0791  0.3764 -1.9755
 2439TIP3   OH228731   4.386   2.210  16.920 -0.5216 -0.5320 -0.1382
 2439TIP3    H128732   4.322   2.228  16.851  0.0937  0.2289 -0.5205
 2439TIP3    H228733   4.461   2.173  16.874  0.0598  0.3841  0.0685
 2440TIP3   OH228734   6.392   0.436  15.524 -0.2352  0.2921 -0.7788
 2440TIP3    H128735   6.424   0.520  15.490 -1.5327  0.5229 -1.4915
 2440TIP3    H228736   6.355   0.392  15.448 -2.2415  0.3540  0.1021
 2441TIP3   OH228737   0.926   1.038  16.100 -0.0499  0.4587  0.8390
 2441TIP3    H128738   1.000   1.052  16.041 -1.1965  0.2859 -0.7124
 2441TIP3    H228739   0.860   1.102  16.071 -1.5910 -1.2987  0.2421
 2442TIP3   OH228740   4.371   1.453  12.779 -0.3798  0.1546 -0.0727
 2442TIP3    H128741   4.369   1.384  12.845 -1.2598  1.7045  1.6020
 2442TIP3    H228742   4.369   1.406  12.695 -0.6074 -1.8350  0.9870
 2443TIP3   OH228743   5.619   3.651  14.684  0.4762  0.8502 -0.5064
 2443TIP3    H128744   5.608   3.576  14.625  2.0108  0.2732 -0.1255
 2443TIP3    H228745   5.605   3.615  14.772  3.4872  0.3434 -0.0944
 2444TIP3   OH228746   4.837   4.556  12.379 -0.2118 -0.6207  0.5524
 2444TIP3    H128747   4.816   4.465  12.360 -0.2616 -0.5098  0.0722
 2444TIP3    H228748   4.930   4.554  12.404 -0.3498 -0.8735  1.0603
 2445TIP3   OH228749   0.982   3.595  14.138 -0.2334 -0.4144 -0.1697
 2445TIP3    H128750   0.901   3.641  14.160  0.1232 -0.1643  0.6836
 2445TIP3    H228751   1.025   3.581  14.223 -0.9123 -3.4862 -0.2393
 2446TIP3   OH228752   1.472   2.922  15.300 -0.4428 -0.3176 -0.0396
 2446TIP3    H128753   1.534   2.876  15.243 -1.1437 -1.1569 -0.1555
 2446TIP3    H228754   1.495   2.895  15.388  0.1057  0.3155  0.0178
 2447TIP3   OH228755   5.281   1.010  12.142 -0.1162  0.0993  0.3010
 2447TIP3    H128756   5.299   1.102  12.127 -1.6264  0.3290 -0.2674
 2447TIP3    H228757   5.356   0.979  12.193  0.5304  1.5680  0.2929
 2448TIP3   OH228758   3.394   4.535   3.613 -0.8462  0.2964  0.0100
 2448TIP3    H128759   3.480   4.513   3.650 -0.1729  1.0972 -1.0137
 2448TIP3    H228760   3.372   4.461   3.557  0.2299  1.0024 -1.4341
 2449TIP3   OH228761   3.048   6.634  15.520  0.6917 -0.3474 -0.5894
 2449TIP3    H128762   3.016   6.700  15.581  0.1780 -0.7593 -0.4065
 2449TIP3    H228763   2.983   6.634  15.449  0.5015 -0.8948 -0.4193
 2450TIP3   OH228764   2.285   0.668  13.134 -0.4975 -0.6750 -0.6201
 2450TIP3    H128765   2.317   0.581  13.112  0.0351 -0.8643  0.8011
 2450TIP3    H228766   2.232   0.694  13.058  0.6470 -1.5471 -1.7701
 2451TIP3   OH228767   5.111   2.171  10.573 -0.2081  0.3930  0.1196
 2451TIP3    H128768   5.067   2.241  10.525 -2.1162 -1.1776 -0.5542
 2451TIP3    H228769   5.185   2.146  10.518 -1.7495 -0.6595 -1.5629
 2452TIP3   OH228770   0.776   4.535   6.613 -0.4311 -0.1318  0.0266
 2452TIP3    H128771   0.712   4.513   6.546 -0.0108  0.8177 -0.7196
 2452TIP3    H228772   0.741   4.614   6.655 -0.5304 -0.5313  0.7226
 2453TIP3   OH228773   0.885   0.737   6.071 -0.5136  0.4336 -0.2009
 2453TIP3    H128774   0.818   0.746   6.138 -1.5768 -0.6382 -1.0599
 2453TIP3    H228775   0.952   0.801   6.094 -0.1245 -0.8697  2.6803
 2454TIP3   OH228776   4.977   6.138  14.389  0.1034  0.3610  0.5799
 2454TIP3    H128777   4.976   6.042  14.396  0.4502  0.3122 -0.0056
 2454TIP3    H228778   4.972   6.168  14.480  0.5863 -0.2201  0.8072
 2455TIP3   OH228779   5.234   6.123  11.868 -0.4826  0.0793  0.6326
 2455TIP3    H128780   5.145   6.107  11.836  0.2533 -0.1699 -1.4003
 2455TIP3    H228781   5.250   6.215  11.847  0.8219 -0.6577 -1.9492
 2456TIP3   OH228782   6.063   0.278  16.454 -0.1652 -0.0955  0.1096
 2456TIP3    H128783   5.992   0.225  16.491  1.1477 -0.9896  1.4733
 2456TIP3    H228784   6.064   0.255  16.361 -0.8754 -1.0177  0.3088
 2457TIP3   OH228785   4.364   4.681   2.798  0.8319 -0.1183 -0.3658
 2457TIP3    H128786   4.398   4.716   2.715  2.6530 -3.9354 -1.4232
 2457TIP3    H228787   4.410   4.598   2.810 -1.7853 -1.3126  2.8225
 2458TIP3   OH228788   5.032   6.300  16.438 -0.2236  0.1166 -0.5824
 2458TIP3    H128789   5.031   6.393  16.458 -0.5113  0.5790 -2.5647
 2458TIP3    H228790   5.041   6.295  16.343  2.0983 -1.9265 -0.3717
 2459TIP3   OH228791   2.298   6.581   2.743  0.0578 -0.1793  0.1214
 2459TIP3    H128792   2.392   6.597   2.737  0.0173  0.5736  1.2012
 2459TIP3    H228793   2.263   6.612   2.660  0.5013  1.7133  0.5972
 2460TIP3   OH228794   1.682   2.169  13.728  0.4890  0.1172  0.1780
 2460TIP3    H128795   1.641   2.157  13.814  1.6350  0.7558  0.8359
 2460TIP3    H228796   1.772   2.138  13.740  0.4334 -0.5733 -1.0335
 2461TIP3   OH228797   2.919   0.093  14.981  0.0200  0.3231 -0.0924
 2461TIP3    H128798   3.000   0.112  15.027  0.7525 -1.1138 -0.7289
 2461TIP3    H228799   2.901   0.000  15.000 -0.7682  0.2700 -0.9955
 2462TIP3   OH228800   0.760   4.422   5.851 -0.0090  0.4068  0.8309
 2462TIP3    H128801   0.676   4.409   5.896  0.2852  1.7954  1.8427
 2462TIP3    H228802   0.735   4.435   5.759 -0.7135 -1.2466  0.7476
 2463TIP3   OH228803   5.611   3.386  11.762  0.1761  0.0696  0.0307
 2463TIP3    H128804   5.550   3.365  11.833 -0.3152  0.5455 -0.2386
 2463TIP3    H228805   5.554   3.407  11.688  0.6834 -1.9183 -0.9719
 2464TIP3   OH228806   1.025   2.439   5.264 -0.1660  0.5163 -0.2200
 2464TIP3    H128807   1.053   2.401   5.347  1.1083 -2.2366 -1.7530
 2464TIP3    H228808   1.104   2.480   5.228  0.0043 -0.5811 -1.1693
 2465TIP3   OH228809   4.727   4.609   1.706  0.3205  0.0957  0.1581
 2465TIP3    H128810   4.745   4.637   1.796 -1.1158  1.0909  0.1795
 2465TIP3    H228811   4.669   4.534   1.717  0.3489  0.0623  0.0725
 2466TIP3   OH228812   6.445   4.618   0.115 -0.1809  0.5562 -0.1505
 2466TIP3    H128813   6.526   4.567   0.117 -1.4256 -1.5050  0.3641
 2466TIP3    H228814   6.453   4.672   0.036  2.0678  1.1140  0.3948
 2467TIP3   OH228815   0.268   0.929   2.652 -0.5834  0.2888  0.4380
 2467TIP3    H128816   0.248   0.908   2.743 -3.3257  1.9063  0.3287
 2467TIP3    H228817   0.223   1.012   2.636  3.7082  2.5954 -1.1177
 2468TIP3   OH228818   6.569   4.860  15.865  0.3791  0.2331 -0.0960
 2468TIP3    H128819   6.647   4.852  15.920 -0.4647  0.5245  1.1915
 2468TIP3    H228820   6.538   4.949  15.880 -0.2587  0.0837 -0.4972
 2469TIP3   OH228821   0.618   2.756   3.413  0.4256  0.0793 -0.2401
 2469TIP3    H128822   0.712   2.754   3.395  0.3234  1.6228 -1.1315
 2469TIP3    H228823   0.586   2.831   3.364 -1.1988 -0.1023  0.4784
 2470TIP3   OH228824   1.580   1.167  12.564 -0.3738  0.1472  0.0461
 2470TIP3    H128825   1.557   1.107  12.493 -0.5102  0.0328  0.1879
 2470TIP3    H228826   1.504   1.224  12.573 -0.4218  0.0577  0.2105
 2471TIP3   OH228827   4.177   1.801  13.632 -0.0959  0.4340 -0.7538
 2471TIP3    H128828   4.219   1.837  13.710  1.1725  0.3286 -1.3731
 2471TIP3    H228829   4.084   1.822  13.643  0.2794  1.7769  0.0317
 2472TIP3   OH228830   4.090   2.636  15.217  0.0533 -0.2189 -0.0396
 2472TIP3    H128831   4.009   2.646  15.266 -0.1528  0.7568 -0.5643
 2472TIP3    H228832   4.123   2.549  15.243 -1.2173 -0.6881  0.0649
 2473TIP3   OH228833   3.719   2.398   4.241  0.0886  0.5958 -0.6164
 2473TIP3    H128834   3.805   2.401   4.282  0.2771 -2.3286 -0.5907
 2473TIP3    H228835   3.658   2.417   4.312  0.6206  0.1964 -0.0401
 2474TIP3   OH228836   3.655   6.327   2.878  0.7664 -0.2068  0.4305
 2474TIP3    H128837   3.712   6.350   2.951  1.6971 -1.8526  0.2670
 2474TIP3    H228838   3.673   6.395   2.812  1.9282 -0.2275  0.7025
 2475TIP3   OH228839   2.310   0.158   0.940  0.3602  0.0387  0.5563
 2475TIP3    H128840   2.385   0.156   0.999  0.4337 -0.1176  0.4589
 2475TIP3    H228841   2.236   0.183   0.996  0.5123  0.3467  0.6200
 2476TIP3   OH228842   3.377   1.922  11.645  0.5187  0.1177  0.3186
 2476TIP3    H128843   3.427   1.997  11.677  1.7055 -0.5898  0.1767
 2476TIP3    H228844   3.359   1.942  11.553  0.1006  0.5907  0.4950
 2477TIP3   OH228845   2.970   3.726  12.825  0.2720  0.5573 -0.5380
 2477TIP3    H128846   3.062   3.752  12.822  0.1566  1.0669  0.2171
 2477TIP3    H228847   2.930   3.786  12.887 -0.8765  1.2758 -1.9047
 2478TIP3   OH228848   3.841   4.537   0.342  0.0296  0.0884 -0.4897
 2478TIP3    H128849   3.789   4.490   0.407 -0.8217 -0.4565 -1.5505
 2478TIP3    H228850   3.865   4.619   0.386  1.0656 -1.0361  1.1842
 2479TIP3   OH228851   0.439   0.796  13.539  0.0243 -0.0436  0.3382
 2479TIP3    H128852   0.413   0.745  13.616  1.0115  1.5965  1.8422
 2479TIP3    H228853   0.535   0.791  13.538  0.2209  2.2385  0.9548
 2480TIP3   OH228854   1.529   0.546  11.249 -0.2954 -0.7661  0.0734
 2480TIP3    H128855   1.623   0.539  11.233 -0.5270 -1.9109 -0.9484
 2480TIP3    H228856   1.496   0.599  11.177 -0.3814  0.1174  0.7376
 2481TIP3   OH228857   1.310   0.223   5.995  0.0146  0.6868 -0.1217
 2481TIP3    H128858   1.401   0.204   6.017  0.2008  0.5647 -0.9617
 2481TIP3    H228859   1.282   0.286   6.061  0.3426 -0.1476  0.8497
 2482TIP3   OH228860   5.847   2.063   3.002  0.2230  0.7124  0.0244
 2482TIP3    H128861   5.882   2.083   3.089  1.6172 -1.2140 -0.0213
 2482TIP3    H228862   5.805   1.977   3.013  1.6708 -0.2470 -1.4779
 2483TIP3   OH228863   3.072   1.116   2.858  0.2044  0.2936 -0.2669
 2483TIP3    H128864   2.989   1.068   2.871 -0.5034  0.5638 -3.0530
 2483TIP3    H228865   3.074   1.133   2.764  3.1487  0.9041 -0.1679
 2484TIP3   OH228866   1.412   5.946   5.997 -0.5609  0.0657 -0.5031
 2484TIP3    H128867   1.467   5.873   6.025 -1.1285 -0.8318 -1.6593
 2484TIP3    H228868   1.344   5.953   6.064  0.1016  0.2275  0.1589
 2485TIP3   OH228869   3.880   0.724  12.056 -0.3725 -0.3457  0.1995
 2485TIP3    H128870   3.951   0.787  12.043 -0.0033 -0.3994  1.7816
 2485TIP3    H228871   3.888   0.663  11.983  0.5126  0.2859 -0.2450
 2486TIP3   OH228872   1.779   1.144  12.228 -0.1958 -0.2987  0.6785
 2486TIP3    H128873   1.845   1.077  12.246  0.0709  0.0765  1.1234
 2486TIP3    H228874   1.699   1.112  12.270 -0.1108 -0.4109  0.7536
 2487TIP3   OH228875   2.435   0.433   6.502 -0.2727  0.7988  0.5098
 2487TIP3    H128876   2.529   0.454   6.503 -0.8022  3.6939 -0.5420
 2487TIP3    H228877   2.415   0.408   6.592  1.0763  2.5626  1.3611
 2488TIP3   OH228878   4.110   4.081  17.132  0.0247 -0.0019  0.3887
 2488TIP3    H128879   4.169   4.020  17.175 -2.4590 -2.5212  0.5776
 2488TIP3    H228880   4.124   4.067  17.039  0.1424 -0.1720  0.4319
 2489TIP3   OH228881   3.719   0.468   5.164 -0.3705 -0.1271  0.1683
 2489TIP3    H128882   3.727   0.450   5.258 -0.5334 -1.9581 -0.1434
 2489TIP3    H228883   3.795   0.523   5.144  1.3322 -2.1052  0.8467
 2490TIP3   OH228884   1.833   3.315  12.393  0.4969 -0.1633  0.1648
 2490TIP3    H128885   1.911   3.310  12.338  1.4190 -0.6841  1.4543
 2490TIP3    H228886   1.850   3.251  12.463 -1.4195 -0.8266  0.0770
 2491TIP3   OH228887   0.759   0.098   2.725 -0.2803 -0.1713 -0.7378
 2491TIP3    H128888   0.683   0.040   2.734  0.7141 -1.4496 -0.2629
 2491TIP3    H228889   0.832   0.048   2.763  1.0007  0.6212 -2.0524
 2492TIP3   OH228890   6.387   4.722   3.027 -0.2705  0.1566 -0.0376
 2492TIP3    H128891   6.316   4.769   2.984  0.1155  1.7533  0.9993
 2492TIP3    H228892   6.343   4.667   3.093 -0.5809  0.7229  0.2323
 2493TIP3   OH228893   4.768   4.094   3.889 -0.6049  0.3325  0.6594
 2493TIP3    H128894   4.744   4.120   3.800 -0.8910  0.3991  0.7551
 2493TIP3    H228895   4.802   4.005   3.880  1.6172  1.1642  0.1241
 2494TIP3   OH228896   2.076   5.382  10.488  0.4916 -0.0169  0.6477
 2494TIP3    H128897   2.039   5.444  10.551  0.2258  0.7641 -0.2465
 2494TIP3    H228898   2.048   5.416  10.403  0.4120 -1.3364  0.1340
 2495TIP3   OH228899   1.701   5.881   4.114 -0.1355  0.3110 -0.6204
 2495TIP3    H128900   1.759   5.853   4.044 -0.2896  1.4662 -1.2332
 2495TIP3    H228901   1.669   5.967   4.086  1.7180  1.9927  1.9869
 2496TIP3   OH228902   2.794   5.905   6.588  0.2867 -0.7588  0.1572
 2496TIP3    H128903   2.811   5.947   6.672 -0.0430 -0.0475 -0.1279
 2496TIP3    H228904   2.865   5.934   6.531  0.3777 -1.0489  0.1223
 2497TIP3   OH228905   4.141   6.699  13.907 -0.4487 -0.5111  0.7315
 2497TIP3    H128906   4.164   6.782  13.866 -1.6663 -0.8353 -0.7022
 2497TIP3    H228907   4.124   6.722  13.999 -1.4787  0.9959  0.2200
 2498TIP3   OH228908   6.270   4.984  11.538 -0.0014 -0.1859  0.2141
 2498TIP3    H128909   6.260   5.001  11.445 -1.5006  0.8825  0.5283
 2498TIP3    H228910   6.236   5.063  11.580  0.3919 -0.7616  1.6728
 2499TIP3   OH228911   5.157   2.394   5.260 -0.3809 -0.5692 -0.0565
 2499TIP3    H128912   5.142   2.458   5.330 -2.4294  0.7927 -1.6213
 2499TIP3    H228913   5.223   2.435   5.204 -1.2733 -0.0317 -0.7468
 2500TIP3   OH228914   5.318   6.239   0.651  0.4338 -0.0611 -0.1756
 2500TIP3    H128915   5.369   6.320   0.651 -0.7023  0.6965 -1.6912
 2500TIP3    H228916   5.263   6.246   0.729  0.1777  0.7448 -0.4163
 2501TIP3   OH228917   5.228   0.505   2.832 -0.5675 -0.1651 -0.0273
 2501TIP3    H128918   5.199   0.589   2.795 -1.8492 -1.1753 -1.4525
 2501TIP3    H228919   5.165   0.441   2.798  0.4153 -1.7227  0.9676
 2502TIP3   OH228920   1.465   0.731  11.901 -0.5239  0.2446 -0.2409
 2502TIP3    H128921   1.507   0.814  11.878 -2.6897  0.8268 -2.5027
 2502TIP3    H228922   1.501   0.710  11.987  2.3452  1.9666 -0.8795
 2503TIP3   OH228923   1.915   1.808   5.317  0.7429 -0.5580 -0.0546
 2503TIP3    H128924   1.999   1.812   5.270  0.1893  1.6773 -1.0167
 2503TIP3    H228925   1.927   1.867   5.392  0.7976 -2.1593  1.2360
 2504TIP3   OH228926   1.874   4.203   0.710 -0.4147 -0.0065  0.0391
 2504TIP3    H128927   1.785   4.189   0.744 -0.0122 -2.5185  0.3180
 2504TIP3    H228928   1.899   4.290   0.742 -2.2864  0.2029  1.0858
 2505TIP3   OH228929   1.982   4.326   4.717  0.0164 -0.2866  0.2124
 2505TIP3    H128930   2.019   4.338   4.629  0.8661 -0.1816  0.5793
 2505TIP3    H228931   1.909   4.388   4.721  0.8349  0.7161  0.0688
 2506TIP3   OH228932   1.124   2.313   0.540 -0.2586 -0.0369 -0.2504
 2506TIP3    H128933   1.130   2.294   0.446  2.5607 -2.6212  0.3013
 2506TIP3    H228934   1.049   2.262   0.570 -0.0813 -0.6520 -0.8264
 2507TIP3   OH228935   2.411   6.359  13.651  0.6643  0.0929  0.0797
 2507TIP3    H128936   2.356   6.392  13.581  1.3197  0.3075 -0.3457
 2507TIP3    H228937   2.447   6.277  13.617 -1.9306 -1.8085  1.5918
 2508TIP3   OH228938   1.019   4.065   6.168 -0.2494  0.3108 -0.1046
 2508TIP3    H128939   1.028   3.976   6.201 -2.7834  0.5598  1.5226
 2508TIP3    H228940   0.976   4.114   6.239 -0.0649  2.5182 -1.3995
 2509TIP3   OH228941   1.036   0.775  16.338  0.1139  0.3823  0.4636
 2509TIP3    H128942   0.951   0.816  16.324  0.3740  0.2573 -1.8202
 2509TIP3    H228943   1.015   0.688  16.374 -0.8431 -0.2311 -1.4682
 2510TIP3   OH228944   0.898   0.873   3.254 -0.4559  0.3128  0.1422
 2510TIP3    H128945   0.964   0.831   3.200  0.0566  0.1911  0.8397
 2510TIP3    H228946   0.892   0.818   3.332 -1.8948 -0.0650 -0.2111
 2511TIP3   OH228947   6.545   4.939   3.146  0.3273 -0.2887 -0.0657
 2511TIP3    H128948   6.453   4.914   3.156  0.7950 -1.1236  2.8516
 2511TIP3    H228949   6.589   4.858   3.120  0.6244 -0.6222  1.3898
 2512TIP3   OH228950   6.383   6.015  13.347 -0.2343  0.1237  0.2750
 2512TIP3    H128951   6.455   6.018  13.409  1.0553 -1.8035 -0.9966
 2512TIP3    H228952   6.305   6.033  13.399  0.7822 -1.3737  2.4438
 2513TIP3   OH228953   4.656   1.423  16.343 -0.0082 -0.3829 -0.1370
 2513TIP3    H128954   4.678   1.361  16.414 -2.3081 -1.2722 -0.0977
 2513TIP3    H228955   4.608   1.493  16.387 -0.8712 -0.6027 -0.7093
 2514TIP3   OH228956   3.314   2.225   4.356  0.6216  0.3694  0.4016
 2514TIP3    H128957   3.241   2.187   4.406 -0.0555  1.3958  0.2223
 2514TIP3    H228958   3.274   2.252   4.273  1.7073 -1.2224 -0.7045
 2515TIP3   OH228959   4.474   0.119   3.096 -0.9499 -0.3000 -0.3371
 2515TIP3    H128960   4.400   0.113   3.036 -0.0115  0.7181 -1.6769
 2515TIP3    H228961   4.540   0.060   3.059 -0.3298  0.4071 -0.3941
 2516TIP3   OH228962   2.870   2.832  11.746 -0.2384  0.1588 -0.3978
 2516TIP3    H128963   2.828   2.836  11.833  0.5468  0.2234 -0.0139
 2516TIP3    H228964   2.807   2.875  11.688 -1.0242 -0.3749  0.0315
 2517TIP3   OH228965   3.236   6.156  12.001  0.1454 -0.0345  0.2018
 2517TIP3    H128966   3.197   6.115  12.079  1.9533 -1.2766  0.5088
 2517TIP3    H228967   3.164   6.160  11.938 -0.7057 -1.4979  1.0182
 2518TIP3   OH228968   1.338   0.730   4.630 -0.1833 -0.8042  0.2538
 2518TIP3    H128969   1.389   0.751   4.709  1.0701 -2.5856 -0.0237
 2518TIP3    H228970   1.297   0.813   4.605  3.3053  1.0201 -0.0090
 2519TIP3   OH228971   4.224   0.859   2.363  0.3027  0.6397 -0.0569
 2519TIP3    H128972   4.226   0.886   2.455  0.3081 -0.2883  0.2299
 2519TIP3    H228973   4.155   0.912   2.324 -1.0964 -0.3594  0.9633
 2520TIP3   OH228974   5.560   1.791   4.268 -0.0450  0.3834  0.4273
 2520TIP3    H128975   5.585   1.704   4.300  0.0183  0.8097  1.5584
 2520TIP3    H228976   5.532   1.776   4.178  1.1972 -0.6146  0.1837
 2521TIP3   OH228977   5.067   0.892  12.014  0.1587  0.0666 -0.0655
 2521TIP3    H128978   5.041   0.963  11.956 -0.2376 -0.6360 -0.7799
 2521TIP3    H228979   5.141   0.927  12.063 -0.2786  1.0995 -0.1147
 2522TIP3   OH228980   4.740   5.195   4.686  0.3350  0.2489 -0.2642
 2522TIP3    H128981   4.823   5.202   4.734 -0.1307 -1.6643  0.9253
 2522TIP3    H228982   4.725   5.101   4.677 -1.8919  0.5374 -0.1311
 2523TIP3   OH228983   0.358   5.854   0.774  0.0100 -0.7459 -0.5570
 2523TIP3    H128984   0.335   5.854   0.867 -0.5508  1.2571 -0.6575
 2523TIP3    H228985   0.405   5.772   0.761 -0.4361 -1.3536  1.3541
 2524TIP3   OH228986   4.366   2.069  16.210 -0.2304  0.3602 -0.5093
 2524TIP3    H128987   4.294   2.011  16.184 -0.8228  1.4937 -1.5222
 2524TIP3    H228988   4.394   2.037  16.295 -0.2321 -1.6888 -1.2242
 2525TIP3   OH228989   0.312   4.508  13.999  0.1052  0.2985 -0.7743
 2525TIP3    H128990   0.273   4.535  14.082 -0.0332  1.2044 -1.1186
 2525TIP3    H228991   0.407   4.508  14.016  0.0161 -1.1545 -0.1551
 2526TIP3   OH228992   4.160   2.065   6.459  0.6803 -0.2797 -0.4951
 2526TIP3    H128993   4.147   2.090   6.551 -1.3588  2.6380 -1.4172
 2526TIP3    H228994   4.227   2.126   6.428 -1.2839  1.3440 -1.7653
 2527TIP3   OH228995   6.053   1.009   0.163  0.2022  0.4103  0.2920
 2527TIP3    H128996   6.054   1.007   0.068  0.2151 -0.1853  0.3049
 2527TIP3    H228997   6.145   1.018   0.188  0.2650 -0.1460  0.2640
 2528TIP3   OH228998   0.097   3.624   1.957  0.3159 -0.4300 -0.0565
 2528TIP3    H128999   0.163   3.563   1.925  0.2133 -0.0650 -0.9972
 2528TIP3    H229000   0.120   3.707   1.916  0.3274  0.1190  1.0426
 2529TIP3   OH229001   6.655   3.729  14.287 -0.1130  0.4171 -0.0347
 2529TIP3    H129002   6.573   3.709  14.333  0.2723  1.2603  1.0895
 2529TIP3    H229003   6.634   3.717  14.194 -1.3442  0.0461  0.2670
 2530TIP3   OH229004   1.456   4.393   1.036 -0.1688 -0.3946 -0.0486
 2530TIP3    H129005   1.378   4.403   0.981  0.8662  0.1205 -1.4885
 2530TIP3    H229006   1.465   4.477   1.081  0.6092  0.2752 -1.3800
 2531TIP3   OH229007   3.935   4.548   0.980  0.2124  0.5275 -0.0087
 2531TIP3    H129008   4.027   4.575   0.972  0.1202  0.3261 -2.3343
 2531TIP3    H229009   3.891   4.625   1.016  1.2779  0.5966  1.2297
 2532TIP3   OH229010   3.878   4.085  15.701 -0.4889 -0.0719  0.1855
 2532TIP3    H129011   3.886   4.045  15.788  0.8169  0.4882  0.3421
 2532TIP3    H229012   3.958   4.136  15.691  0.8806 -2.5239 -2.6182
 2533TIP3   OH229013   3.360   0.769  15.666  0.1863 -0.3151  0.4553
 2533TIP3    H129014   3.450   0.791  15.643  0.1141  0.3298  0.7695
 2533TIP3    H229015   3.367   0.721  15.749  0.1681  0.7431  1.0883
 2534TIP3   OH229016   1.277   3.331   0.489  0.2213  0.1472 -0.4741
 2534TIP3    H129017   1.201   3.284   0.457  0.3415 -0.8824  0.6843
 2534TIP3    H229018   1.312   3.276   0.559  1.3574  1.1561 -0.2079
 2535TIP3   OH229019   3.189   2.260  13.186  0.0482 -0.5626 -0.1465
 2535TIP3    H129020   3.271   2.222  13.217  0.5079  1.1130  0.7707
 2535TIP3    H229021   3.133   2.263  13.264  0.1667  0.9778 -0.0972
 2536TIP3   OH229022   0.998   6.266  11.143  0.1494 -0.8332 -0.1356
 2536TIP3    H129023   0.961   6.202  11.082 -3.1935  1.5611 -0.9437
 2536TIP3    H229024   1.069   6.308  11.094  0.6247 -2.0743 -0.5580
 2537TIP3   OH229025   5.784   2.138   3.515 -0.1981 -0.0718 -0.3698
 2537TIP3    H129026   5.785   2.233   3.520  0.9259  0.1354 -2.9101
 2537TIP3    H229027   5.702   2.117   3.470 -0.8493 -0.4049  0.9238
 2538TIP3   OH229028   6.211   4.349  12.561  0.3027 -0.2573 -0.1127
 2538TIP3    H129029   6.239   4.317  12.647  1.2536  0.9447  0.0596
 2538TIP3    H229030   6.144   4.287  12.532 -0.8469 -0.0565  1.9850
 2539TIP3   OH229031   2.247   6.017  11.559  0.2026  0.2474 -0.1197
 2539TIP3    H129032   2.314   6.068  11.513 -0.9272  2.8546  0.9317
 2539TIP3    H229033   2.178   6.002  11.493 -0.8630  2.9114  0.2806
 2540TIP3   OH229034   1.067   4.115  10.874 -0.0764  0.1347  0.0478
 2540TIP3    H129035   1.157   4.089  10.893  0.3346  0.1129 -1.7916
 2540TIP3    H229036   1.068   4.210  10.877 -0.2919  0.1174  1.2067
 2541TIP3   OH229037   6.294   5.019   0.846 -0.5790  0.4092 -0.5305
 2541TIP3    H129038   6.366   5.025   0.782  1.7446 -2.5979  1.5480
 2541TIP3    H229039   6.303   5.098   0.899  1.7547 -0.2083  0.1138
 2542TIP3   OH229040   6.549   2.700   5.352  0.3149 -0.3016  0.3378
 2542TIP3    H129041   6.632   2.721   5.394  0.2139 -0.6619  0.7269
 2542TIP3    H229042   6.514   2.627   5.403  0.4873 -1.1782 -0.7554
 2543TIP3   OH229043   1.738   2.345   1.559  0.3253 -0.5058  0.0804
 2543TIP3    H129044   1.719   2.339   1.466 -1.1163 -1.6632  0.3958
 2543TIP3    H229045   1.691   2.270   1.597  0.4785  0.2197  1.7811
 2544TIP3   OH229046   0.675   6.025   1.763  0.1093  0.6562 -0.1864
 2544TIP3    H129047   0.726   5.965   1.708  0.2331 -0.8002  1.4311
 2544TIP3    H229048   0.598   5.974   1.788  0.0801  1.2530  0.9985
 2545TIP3   OH229049   0.136   0.916  10.971 -0.5800 -0.6997 -0.1944
 2545TIP3    H129050   0.104   0.922  11.061 -0.6416 -0.5869 -0.2234
 2545TIP3    H229051   0.153   1.007  10.945 -0.8604 -0.7058 -0.4031
 2546TIP3   OH229052   3.537   2.251   6.505 -0.7987 -0.3062  0.7721
 2546TIP3    H129053   3.488   2.169   6.512 -0.0669 -0.7050  1.3418
 2546TIP3    H229054   3.493   2.310   6.566 -2.2378  0.2117 -0.7110
 2547TIP3   OH229055   6.322   0.498   4.826  0.1500  0.1756  0.3749
 2547TIP3    H129056   6.245   0.473   4.775  0.2576  1.4668 -0.4474
 2547TIP3    H229057   6.390   0.514   4.761  1.1624 -0.9855  1.0906
 2548TIP3   OH229058   2.954   5.132   4.974 -0.6412 -0.4428 -0.6977
 2548TIP3    H129059   3.036   5.094   4.943  0.1601  0.8842 -0.2877
 2548TIP3    H229060   2.944   5.213   4.923 -0.4400  0.6352  0.8762
 2549TIP3   OH229061   2.865   5.562  16.621  0.1689 -0.2532 -0.5524
 2549TIP3    H129062   2.923   5.535  16.549  1.8860 -3.2544  1.7217
 2549TIP3    H229063   2.913   5.631  16.665  0.3198 -0.2240 -0.7605
 2550TIP3   OH229064   2.577   4.156   1.722  0.1064 -0.4731  0.1633
 2550TIP3    H129065   2.644   4.090   1.705 -0.9339 -1.3752 -0.6225
 2550TIP3    H229066   2.510   4.140   1.655 -0.9926  0.2430  1.0468
 2551TIP3   OH229067   4.362   4.501   4.655 -0.0910  0.5862  0.1157
 2551TIP3    H129068   4.429   4.434   4.643  0.0744  0.7994 -0.1725
 2551TIP3    H229069   4.329   4.486   4.743 -0.1895  0.0054 -0.0143
 2552TIP3   OH229070   0.722   0.927   2.418  0.4584  0.1702 -0.3160
 2552TIP3    H129071   0.684   0.976   2.345  0.0444  1.8248  0.9492
 2552TIP3    H229072   0.647   0.896   2.468  0.7439  0.1323  0.0917
 2553TIP3   OH229073   1.233   5.650   1.996  0.2281  0.2058 -0.5056
 2553TIP3    H129074   1.161   5.712   1.985  0.1640  0.0509 -0.9724
 2553TIP3    H229075   1.306   5.703   2.029  0.6310  0.8265 -2.2897
 2554TIP3   OH229076   5.919   4.393   2.927  0.0817 -0.2566  0.5629
 2554TIP3    H129077   5.938   4.402   3.020 -0.5645  0.5463  0.6345
 2554TIP3    H229078   5.972   4.320   2.898  2.5549  1.2724  0.9492
 2555TIP3   OH229079   4.585   5.831  15.564 -0.2538  0.3291  0.4525
 2555TIP3    H129080   4.538   5.749  15.578  0.1971  0.2447  1.6443
 2555TIP3    H229081   4.538   5.895  15.619 -1.2168  1.1280 -1.2406
 2556TIP3   OH229082   5.270   3.097   0.976 -0.7730  0.2130 -0.2366
 2556TIP3    H129083   5.193   3.052   0.942  0.3181 -1.7127 -0.2715
 2556TIP3    H229084   5.244   3.123   1.065 -1.5978 -0.0413 -0.3897
 2557TIP3   OH229085   3.578   1.246  14.245  0.3546 -0.1190  0.4356
 2557TIP3    H129086   3.648   1.191  14.280  0.3561 -0.1465  0.3901
 2557TIP3    H229087   3.524   1.268  14.321 -0.0487 -0.7656  0.3434
 2558TIP3   OH229088   5.186   3.327  11.397 -0.0185 -0.2963 -0.4368
 2558TIP3    H129089   5.197   3.316  11.491  1.2688  1.8350 -0.2562
 2558TIP3    H229090   5.162   3.240  11.365  1.0615 -1.4386  1.6280
 2559TIP3   OH229091   4.909   5.860   4.565  0.3991  0.2937 -0.4881
 2559TIP3    H129092   4.887   5.767   4.560 -0.2963  0.4638 -0.7600
 2559TIP3    H229093   4.869   5.898   4.487 -0.4507  1.0281  0.2732
 2560TIP3   OH229094   0.349   0.070  14.219  0.7307 -0.8398 -0.4558
 2560TIP3    H129095   0.429   0.073  14.273  0.2101  3.6786  0.5004
 2560TIP3    H229096   0.278   0.063  14.283  0.2508  1.1434 -0.6971
 2561TIP3   OH229097   0.369   2.795  16.486  0.2976 -0.4819  0.0001
 2561TIP3    H129098   0.283   2.799  16.444 -0.2904  0.3438  1.2463
 2561TIP3    H229099   0.389   2.702  16.490 -0.9170 -0.7428  0.4235
 2562TIP3   OH229100   2.242   4.987   6.004 -0.1684 -0.3930 -0.6140
 2562TIP3    H129101   2.153   4.962   5.978 -0.0672 -0.8778 -0.5136
 2562TIP3    H229102   2.295   4.911   5.980 -0.1517 -1.0841  1.4372
 2563TIP3   OH229103   3.896   2.340   5.151 -0.1974 -0.2662  0.0043
 2563TIP3    H129104   3.827   2.406   5.161 -1.9204 -2.0540  0.6788
 2563TIP3    H229105   3.872   2.271   5.214  1.1524 -1.8114 -1.0854
 2564TIP3   OH229106   1.390   5.921  11.053 -0.0584 -0.1568  0.1798
 2564TIP3    H129107   1.468   5.972  11.071  0.1869 -0.6062  0.4068
 2564TIP3    H229108   1.370   5.939  10.961 -0.3840  0.8877  0.4427
 2565TIP3   OH229109   6.412   2.383  17.088 -0.1039 -0.0899  0.0923
 2565TIP3    H129110   6.392   2.344  17.173 -2.6011 -0.5415 -0.6268
 2565TIP3    H229111   6.457   2.465  17.109 -0.9411 -0.0417  1.8826
 2566TIP3   OH229112   6.197   4.587  13.084 -0.4066  0.7124  0.1441
 2566TIP3    H129113   6.199   4.671  13.129  0.0347  0.4105  0.6974
 2566TIP3    H229114   6.163   4.526  13.149 -1.1488  0.5305 -0.3910
 2567TIP3   OH229115   1.693   0.699  10.987  0.0995 -0.3457 -0.2831
 2567TIP3    H129116   1.603   0.670  11.003  0.1354 -0.9664 -1.0973
 2567TIP3    H229117   1.742   0.618  10.971  0.2530  0.0934 -2.3953
 2568TIP3   OH229118   5.539   0.089   1.761 -0.0126  0.4391  0.1395
 2568TIP3    H129119   5.591   0.136   1.696 -0.0850 -0.8271 -0.8804
 2568TIP3    H229120   5.584   0.104   1.844  0.7676  1.0942 -0.3950
 2569TIP3   OH229121   0.317   4.037  16.168 -0.2002 -0.7008  0.4862
 2569TIP3    H129122   0.376   3.962  16.171 -0.6973 -1.1314 -0.3422
 2569TIP3    H229123   0.233   4.003  16.201 -0.4205 -0.5127  0.1304
 2570TIP3   OH229124   0.592   2.963   3.230  0.0467  0.2963 -0.0921
 2570TIP3    H129125   0.643   2.942   3.152 -0.8667 -1.8972 -0.1675
 2570TIP3    H229126   0.516   3.011   3.197  0.1435  0.2126 -0.4360
 2571TIP3   OH229127   4.908   2.550  16.947 -0.4713 -1.1391 -0.2973
 2571TIP3    H129128   4.877   2.461  16.930 -0.0905 -1.1236 -1.1261
 2571TIP3    H229129   4.833   2.606  16.926 -0.0779 -1.1367 -1.7953
 2572TIP3   OH229130   5.043   3.185  11.021  0.0882  0.2137 -0.1305
 2572TIP3    H129131   4.990   3.111  10.992  2.8748 -1.8398 -0.4093
 2572TIP3    H229132   5.018   3.258  10.964 -2.5178 -0.5455 -0.0502
 2573TIP3   OH229133   4.658   6.373  11.958  0.3156  0.2873 -0.8664
 2573TIP3    H129134   4.699   6.306  11.903 -2.5761 -1.8547 -0.6140
 2573TIP3    H229135   4.614   6.431  11.896  0.1868  0.0887 -0.9617
 2574TIP3   OH229136   5.239   1.430   5.900  0.4342 -0.0984  0.0878
 2574TIP3    H129137   5.288   1.351   5.922 -0.1010 -0.2706  0.6799
 2574TIP3    H229138   5.241   1.482   5.981  2.7641  1.5629 -0.9375
 2575TIP3   OH229139   5.144   4.709   2.544  0.2137  0.0060  0.4973
 2575TIP3    H129140   5.130   4.742   2.633 -0.4627  1.4105 -0.0901
 2575TIP3    H229141   5.231   4.668   2.547 -0.2199 -0.8751  2.0288
 2576TIP3   OH229142   1.350   6.071  13.577 -0.1368  0.6944  0.5019
 2576TIP3    H129143   1.344   6.007  13.506  0.0271  1.7861 -0.5296
 2576TIP3    H229144   1.258   6.094  13.596 -0.1408  1.1717 -0.0845
 2577TIP3   OH229145   0.527   1.074   2.192  0.5562 -0.0134  0.1691
 2577TIP3    H129146   0.551   1.037   2.107 -1.4193  0.3269 -0.5688
 2577TIP3    H229147   0.455   1.019   2.223 -1.6248  2.3885 -0.3920
 2578TIP3   OH229148   4.593   6.769   6.870  0.2098 -0.3150 -0.2376
 2578TIP3    H129149   4.592   6.697   6.807  0.2787  0.9413 -1.7420
 2578TIP3    H229150   4.682   6.767   6.906 -0.0710 -1.5352  0.4541
 2579TIP3   OH229151   1.217   4.254  15.622  0.0544  0.9471 -0.0719
 2579TIP3    H129152   1.222   4.272  15.528 -4.1770  1.4289 -0.3932
 2579TIP3    H229153   1.197   4.160  15.627  1.1599  0.7220  0.4677
 2580TIP3   OH229154   5.799   6.260   4.225  0.3186 -0.7382  0.5711
 2580TIP3    H129155   5.858   6.327   4.194  0.6152 -1.6133 -0.8328
 2580TIP3    H229156   5.785   6.280   4.318  2.6300 -0.3920  0.8808
 2581TIP3   OH229157   1.480   3.985  12.324 -0.0301 -0.3856  0.7758
 2581TIP3    H129158   1.430   3.986  12.405 -0.9558  1.3821  0.2386
 2581TIP3    H229159   1.529   4.067  12.324 -0.2709 -0.2144 -0.5592
 2582TIP3   OH229160   3.404   6.175   4.921 -0.6978 -0.1691 -0.4217
 2582TIP3    H129161   3.384   6.232   4.847 -1.2891 -1.3343 -1.2113
 2582TIP3    H229162   3.447   6.231   4.985 -0.0734  0.8547 -1.6951
 2583TIP3   OH229163   2.745   1.764   3.242  0.3028 -0.2042 -0.1952
 2583TIP3    H129164   2.666   1.773   3.295  1.1854  1.2664  0.9563
 2583TIP3    H229165   2.788   1.685   3.276  1.3572  1.2312  2.1157
 2584TIP3   OH229166   4.145   0.499   3.684  0.0047  0.3868 -0.4147
 2584TIP3    H129167   4.092   0.577   3.702 -0.7797 -0.2070 -0.1158
 2584TIP3    H229168   4.129   0.441   3.759  0.8451  0.0714 -0.4702
 2585TIP3   OH229169   5.903   2.230  14.063  0.0601 -0.5352 -0.1144
 2585TIP3    H129170   5.841   2.156  14.065 -0.4818 -0.1171 -0.7896
 2585TIP3    H229171   5.982   2.194  14.024  0.6085 -1.3211  1.6147
 2586TIP3   OH229172   4.136   5.160  11.106 -0.8588 -0.2698 -0.8180
 2586TIP3    H129173   4.198   5.229  11.081 -0.4055 -0.6411 -0.7162
 2586TIP3    H229174   4.186   5.079  11.102 -0.6050 -0.3173  1.8280
 2587TIP3   OH229175   4.334   3.025   2.507  0.2205  0.7201 -0.2411
 2587TIP3    H129176   4.318   3.045   2.415 -0.2686 -2.5019 -0.9832
 2587TIP3    H229177   4.248   3.010   2.545  0.5526 -1.5248 -0.2545
 2588TIP3   OH229178   2.442   2.153  16.085  0.7537  0.2282 -0.3552
 2588TIP3    H129179   2.399   2.205  16.017  1.4142 -1.3538 -2.0646
 2588TIP3    H229180   2.370   2.113  16.135  0.2645  1.2432 -0.2252
 2589TIP3   OH229181   5.071   5.673   0.162 -0.4189 -0.5688  0.5267
 2589TIP3    H129182   5.107   5.588   0.136  0.3864 -0.0033 -0.2696
 2589TIP3    H229183   4.993   5.652   0.214 -0.1503 -1.7892  0.4509
 2590TIP3   OH229184   1.538   2.957   4.234 -0.4104  0.1334 -0.3193
 2590TIP3    H129185   1.509   2.886   4.290  1.6725  0.2920  1.0725
 2590TIP3    H229186   1.570   2.914   4.155 -1.1191 -0.2824 -0.3885
 2591TIP3   OH229187   1.182   1.447  12.592 -1.4102  0.1272  0.3063
 2591TIP3    H129188   1.203   1.375  12.532 -1.6854 -1.0073  1.5413
 2591TIP3    H229189   1.221   1.524  12.551 -2.7525 -0.3471 -2.0472
 2592TIP3   OH229190   0.010   6.618  11.444  0.4128  0.1719  0.2756
 2592TIP3    H129191  -0.029   6.531  11.429 -2.4896  1.3513  0.3311
 2592TIP3    H229192   0.024   6.653  11.356  1.1673 -0.1261  0.2626
 2593TIP3   OH229193   0.151   1.021   5.964 -0.0672 -0.1242 -0.1906
 2593TIP3    H129194   0.099   0.952   5.923  0.3743 -1.2176  1.0228
 2593TIP3    H229195   0.092   1.097   5.968 -0.6482 -0.4922 -1.2934
 2594TIP3   OH229196   5.441   6.388  14.399  0.2356 -0.1997  0.3531
 2594TIP3    H129197   5.463   6.295  14.398 -0.9574 -0.5969 -3.1505
 2594TIP3    H229198   5.508   6.429  14.344 -0.9921  0.4483 -0.7183
 2595TIP3   OH229199   3.421   1.589  16.670 -0.5697  0.3210 -0.5972
 2595TIP3    H129200   3.328   1.610  16.680 -0.6137  1.2990 -2.5597
 2595TIP3    H229201   3.434   1.586  16.575  1.6714  1.5110 -0.3720
 2596TIP3   OH229202   1.141   2.152   6.700  0.3474  0.3595 -0.3794
 2596TIP3    H129203   1.227   2.181   6.730  0.3693  0.0234 -0.1091
 2596TIP3    H229204   1.122   2.075   6.753 -0.0330  0.3142 -0.5780
 2597TIP3   OH229205   2.215   2.946  13.100  0.0165 -0.4195 -0.0656
 2597TIP3    H129206   2.134   2.907  13.067  0.3238 -1.9006  0.8416
 2597TIP3    H229207   2.208   3.039  13.076 -2.2782 -0.3455  0.6501
 2598TIP3   OH229208   4.742   4.905   4.602 -0.2607  0.0478  0.5827
 2598TIP3    H129209   4.721   4.847   4.675  2.2878 -2.6650 -0.6601
 2598TIP3    H229210   4.669   4.894   4.540 -0.4554 -0.8026  0.9542
 2599TIP3   OH229211   4.555   2.382   0.391 -0.0028  0.1383  0.1734
 2599TIP3    H129212   4.623   2.363   0.455 -0.8525  2.4542  1.9234
 2599TIP3    H229213   4.473   2.360   0.436 -0.5567  0.5750 -0.5985
 2600TIP3   OH229214   2.583   6.572  16.193  0.0934 -0.1332  0.1512
 2600TIP3    H129215   2.651   6.506  16.186  0.2031 -0.2632  2.1096
 2600TIP3    H229216   2.544   6.558  16.279 -1.7686  0.5612 -0.5265
 2601TIP3   OH229217   0.672   0.442   2.019  0.0857  0.1204  0.3454
 2601TIP3    H129218   0.755   0.455   2.066 -1.0008  0.1515  2.3707
 2601TIP3    H229219   0.652   0.527   1.982  1.3064 -0.0667 -0.8489
 2602TIP3   OH229220   1.964   4.528  16.882 -0.4798 -0.3102  0.1084
 2602TIP3    H129221   2.020   4.473  16.827  0.7447 -0.7649  1.7275
 2602TIP3    H229222   1.935   4.471  16.952  1.3877  1.1493  2.2353
 2603TIP3   OH229223   1.662   5.583   4.776  0.2221 -0.3749  0.5152
 2603TIP3    H129224   1.588   5.631   4.813  1.5144  1.5001  0.8396
 2603TIP3    H229225   1.674   5.621   4.689  1.2113 -0.1641  0.7314
 2604TIP3   OH229226   4.963   3.230  14.336  0.1257 -0.2439 -0.0716
 2604TIP3    H129227   4.934   3.140  14.317  1.2335 -0.4210 -1.0466
 2604TIP3    H229228   5.028   3.248  14.269 -0.0569  1.2949  0.1457
 2605TIP3   OH229229   6.712   6.067   3.284  0.1477  0.0234 -0.6240
 2605TIP3    H129230   6.772   6.022   3.343  0.2728 -0.9307 -1.4455
 2605TIP3    H229231   6.704   6.155   3.320 -1.5013 -1.1133  2.1022
 2606TIP3   OH229232   1.934   0.579   1.898  0.1374 -0.5285 -0.5039
 2606TIP3    H129233   1.952   0.624   1.980  1.9992 -0.8925 -0.6785
 2606TIP3    H229234   1.839   0.564   1.900 -0.1850  1.2619  0.6223
 2607TIP3   OH229235   1.819   3.464   5.378  0.4304 -0.0981  0.4845
 2607TIP3    H129236   1.892   3.525   5.391  0.3599 -0.1695  1.2998
 2607TIP3    H229237   1.749   3.498   5.435  0.0542 -0.3995  0.2106
 2608TIP3   OH229238   0.448   5.608   3.676 -0.3618  0.4290 -0.4979
 2608TIP3    H129239   0.504   5.560   3.615  0.2330  2.2546 -1.4751
 2608TIP3    H229240   0.499   5.614   3.756  0.7085  1.6842 -1.2338
 2609TIP3   OH229241   4.707   2.759  13.471 -0.0156 -0.0314 -0.4711
 2609TIP3    H129242   4.639   2.740  13.536  0.8195 -1.4080  0.0524
 2609TIP3    H229243   4.706   2.854  13.462  0.3393  0.2834  2.1142
 2610TIP3   OH229244   3.380   2.864   6.860 -0.3125  0.1175 -0.2391
 2610TIP3    H129245   3.369   2.907   6.775 -0.8221  0.4343 -0.0174
 2610TIP3    H229246   3.305   2.805   6.867 -1.0341  1.1065  0.5877
 2611TIP3   OH229247   5.544   4.135   6.538  0.2246  0.1612 -0.1105
 2611TIP3    H129248   5.505   4.049   6.521  0.4407  0.3977 -1.9815
 2611TIP3    H229249   5.629   4.115   6.576  0.3642 -0.4715 -0.7235
 2612TIP3   OH229250   2.122   0.718   1.705 -0.5404  0.0585  0.0653
 2612TIP3    H129251   2.068   0.761   1.639 -1.3211 -1.5597 -0.3915
 2612TIP3    H229252   2.059   0.677   1.764  0.1727 -0.6166  0.3727
 2613TIP3   OH229253   5.857   1.730   3.306 -0.1025 -0.0192 -0.4996
 2613TIP3    H129254   5.816   1.717   3.392 -0.0474  1.1108 -0.2777
 2613TIP3    H229255   5.813   1.668   3.249 -1.4147  0.4317 -0.0352
 2614TIP3   OH229256   4.954   6.230   1.921 -0.1560  0.4756 -0.3407
 2614TIP3    H129257   4.873   6.205   1.965 -1.6479  2.1564 -1.9424
 2614TIP3    H229258   5.000   6.147   1.907 -2.4343 -0.7864 -0.9134
 2615TIP3   OH229259   5.198   5.557  11.503 -0.2894 -0.2335  0.4530
 2615TIP3    H129260   5.176   5.638  11.548  0.1116  2.0267 -2.9757
 2615TIP3    H229261   5.117   5.530  11.461 -0.0012 -0.5222  0.0751
 2616TIP3   OH229262   1.958   2.924   1.799  0.0393 -0.5026 -0.4734
 2616TIP3    H129263   1.987   2.845   1.755 -2.3192 -0.0983 -3.0168
 2616TIP3    H229264   1.863   2.926   1.787 -0.2501  1.6775  1.3189
 2617TIP3   OH229265   3.188   5.581   2.951  0.0800 -0.0386  0.3889
 2617TIP3    H129266   3.177   5.642   3.024  0.9035 -0.2291  0.6872
 2617TIP3    H229267   3.238   5.508   2.988 -1.5253 -1.2671  0.2293
 2618TIP3   OH229268   1.273   5.542  15.201  0.2144 -0.1479 -0.1920
 2618TIP3    H129269   1.360   5.578  15.218 -0.0294  0.4000 -0.0793
 2618TIP3    H229270   1.279   5.504  15.114  0.3450  0.5923 -0.5062
 2619TIP3   OH229271   3.948   2.850  14.042  0.1664  0.0566  0.4674
 2619TIP3    H129272   3.883   2.789  14.075  0.9038 -0.6067  0.7279
 2619TIP3    H229273   3.899   2.929  14.021 -0.8859 -0.7740 -0.3049
 2620TIP3   OH229274   2.406   4.410  15.206 -0.3938 -0.1137  0.6896
 2620TIP3    H129275   2.405   4.356  15.127 -1.5994 -0.5507  0.9925
 2620TIP3    H229276   2.498   4.411  15.233  0.0917  0.2966 -0.8781
 2621TIP3   OH229277   0.835   6.773  17.069  0.1023  0.2795 -0.3496
 2621TIP3    H129278   0.870   6.684  17.075 -2.0942 -0.5786  1.2834
 2621TIP3    H229279   0.774   6.769  16.995  0.7618  0.7514 -0.9299
 2622TIP3   OH229280   2.782   5.274  16.670  0.0311  0.3534  0.1597
 2622TIP3    H129281   2.835   5.217  16.614 -1.5987  1.6777 -2.9645
 2622TIP3    H229282   2.836   5.351  16.685  0.3080  0.2007 -0.0405
 2623TIP3   OH229283   6.250   4.795  12.908  0.8632  0.2573 -0.4479
 2623TIP3    H129284   6.339   4.828  12.901  1.0811 -0.1221  0.3180
 2623TIP3    H229285   6.260   4.708  12.948  0.1863  0.0048 -0.8024
 2624TIP3   OH229286   6.342   1.650   1.413 -0.1861  0.1481  0.2607
 2624TIP3    H129287   6.389   1.681   1.336  0.8315 -0.8054  0.4784
 2624TIP3    H229288   6.361   1.715   1.481  3.0353 -1.4830  1.1023
 2625TIP3   OH229289   0.137   5.671  12.080  0.1341  0.2586  0.5044
 2625TIP3    H129290   0.153   5.579  12.062  0.3249  0.7128 -1.9688
 2625TIP3    H229291   0.208   5.696  12.140  1.9269 -0.5328 -1.1488
 2626TIP3   OH229292   4.707   2.475  12.941 -0.2141  0.3783  0.6071
 2626TIP3    H129293   4.773   2.544  12.949 -0.0147  0.2248  0.3194
 2626TIP3    H229294   4.742   2.401  12.990  0.1666  0.0547 -0.1342
 2627TIP3   OH229295   2.154   5.581   5.490  0.1696  0.1707  0.4580
 2627TIP3    H129296   2.242   5.542   5.499  0.5149  0.5676 -0.9664
 2627TIP3    H229297   2.096   5.506   5.478  0.6764 -0.0092 -1.0991
 2628TIP3   OH229298   6.161   0.950  12.942 -0.0417  0.0591  0.2880
 2628TIP3    H129299   6.141   0.927  12.851 -2.9493  0.6468  0.6780
 2628TIP3    H229300   6.248   0.988  12.938 -0.8045  1.8376 -2.5904
 2629TIP3   OH229301   3.233   3.417  11.295  0.1560  0.3200  0.0394
 2629TIP3    H129302   3.198   3.335  11.331 -1.5113  1.1267  0.3374
 2629TIP3    H229303   3.283   3.390  11.218 -0.7601 -0.9450 -0.1436
 2630TIP3   OH229304   2.428   4.004   0.834  0.2835 -0.0955  0.1570
 2630TIP3    H129305   2.489   4.039   0.769 -0.1519  1.7089  0.6595
 2630TIP3    H229306   2.483   3.977   0.907  0.8371 -2.6694 -1.0812
 2631TIP3   OH229307   1.522   5.722   0.959  0.8229 -0.4879  0.0355
 2631TIP3    H129308   1.430   5.716   0.932  0.9081 -0.8742 -0.1760
 2631TIP3    H229309   1.522   5.788   1.028  0.4117 -0.3604 -0.0790
 2632TIP3   OH229310   4.380   4.513   5.619 -0.3232  0.4215 -0.1169
 2632TIP3    H129311   4.338   4.462   5.688 -0.9797  1.2300  0.0918
 2632TIP3    H229312   4.464   4.469   5.604 -0.3894 -0.0505  0.8470
 2633TIP3   OH229313   6.436   1.033  17.343 -0.3056  0.1238  0.3157
 2633TIP3    H129314   6.522   1.021  17.385 -0.1299 -0.0085 -0.0708
 2633TIP3    H229315   6.423   0.951  17.294 -0.4725  0.3007  0.0635
 2634TIP3   OH229316   0.888   5.614   2.254 -0.1683 -0.2802 -0.2331
 2634TIP3    H129317   0.845   5.616   2.168 -0.5156 -0.3241 -0.0626
 2634TIP3    H229318   0.947   5.689   2.254 -1.6797  0.9541  0.2683
 2635TIP3   OH229319   6.745   4.226  12.194  0.2103 -0.5987 -1.0691
 2635TIP3    H129320   6.783   4.227  12.106  2.2200 -0.6564 -0.2549
 2635TIP3    H229321   6.798   4.287  12.244 -1.3403 -0.0462 -0.0374
 2636TIP3   OH229322   2.199   3.528   5.557  0.0208 -0.1073 -0.2295
 2636TIP3    H129323   2.205   3.616   5.595  0.8066  0.7223 -2.1695
 2636TIP3    H229324   2.285   3.489   5.573 -0.7836 -1.1834  1.9725
 2637TIP3   OH229325   0.776   3.469   3.462  0.9795  0.0827 -0.2840
 2637TIP3    H129326   0.720   3.394   3.484  0.9121  0.3268  0.3701
 2637TIP3    H229327   0.857   3.452   3.509  0.7931  0.6616  0.2515
 2638TIP3   OH229328   1.357   2.871   0.200 -0.4673  0.5199  0.0686
 2638TIP3    H129329   1.412   2.797   0.226  1.3863  2.2235  1.2707
 2638TIP3    H229330   1.378   2.885   0.108 -1.4130 -0.8697 -0.3932
 2639TIP3   OH229331   5.991   4.308  13.427 -0.1236 -0.2969  0.5848
 2639TIP3    H129332   5.972   4.400  13.445 -1.3359 -0.2173 -0.8912
 2639TIP3    H229333   5.994   4.267  13.513  0.8102  1.1616  1.2998
 2640TIP3   OH229334   5.012   4.240  16.183 -0.4098 -0.1362 -0.6269
 2640TIP3    H129335   4.981   4.309  16.241 -2.4466 -0.9736 -0.6461
 2640TIP3    H229336   5.052   4.176  16.242  1.9341  1.1931 -0.6508
 2641TIP3   OH229337   3.868   4.987   1.625 -0.1151  0.5769 -0.2182
 2641TIP3    H129338   3.792   5.021   1.578 -0.7540  1.2933  1.2755
 2641TIP3    H229339   3.834   4.913   1.674  0.5829 -0.2653 -0.9752
 2642TIP3   OH229340   4.686   3.721  15.639 -0.5030 -0.6274 -0.2884
 2642TIP3    H129341   4.653   3.789  15.581 -0.2085 -0.5727 -0.3934
 2642TIP3    H229342   4.781   3.733  15.638 -0.5763  0.3023  1.3603
 2643TIP3   OH229343   3.105   4.247   4.346 -0.3878 -0.2665  0.7235
 2643TIP3    H129344   3.095   4.341   4.356 -0.4621 -0.1252 -0.5365
 2643TIP3    H229345   3.075   4.228   4.257  0.8156 -1.2950  0.4923
 2644TIP3   OH229346   5.110   0.188   1.940 -0.2687  0.8063 -0.0070
 2644TIP3    H129347   5.166   0.261   1.915 -0.0113  0.5411 -0.2173
 2644TIP3    H229348   5.072   0.158   1.858 -2.4683  2.3730  0.3699
 2645TIP3   OH229349   0.587   5.228   0.866  0.5447  0.2713  0.2367
 2645TIP3    H129350   0.552   5.308   0.827  0.3678 -0.2580 -0.7388
 2645TIP3    H229351   0.670   5.214   0.821 -0.1648 -0.9369 -0.7732
 2646TIP3   OH229352   5.241   1.152   1.334 -0.2500  0.9009 -0.5407
 2646TIP3    H129353   5.215   1.072   1.381 -0.2104  0.4583 -1.2582
 2646TIP3    H229354   5.331   1.167   1.361 -0.5132  1.1618  0.2175
 2647TIP3   OH229355   5.165   1.518   3.059 -0.0176  0.4881  0.1403
 2647TIP3    H129356   5.192   1.508   2.967 -2.9268 -1.5133 -0.6522
 2647TIP3    H229357   5.196   1.438   3.102 -2.3682 -0.7266 -0.2509
 2648TIP3   OH229358   5.317   4.264   0.675  0.1988 -0.3066  0.1800
 2648TIP3    H129359   5.243   4.204   0.667  0.0108 -0.4142  2.2999
 2648TIP3    H229360   5.392   4.214   0.642 -0.4745 -0.5630 -1.0134
 2649TIP3   OH229361   0.884   2.270  16.796 -0.3250 -0.2177  0.6058
 2649TIP3    H129362   0.957   2.292  16.855 -0.6727 -1.0161  1.3427
 2649TIP3    H229363   0.812   2.326  16.826 -0.5063 -0.6349  0.9474
 2650TIP3   OH229364   2.537   6.622   1.831 -0.0274 -0.3115  0.1797
 2650TIP3    H129365   2.457   6.589   1.872  0.4650 -0.3647  1.1116
 2650TIP3    H229366   2.606   6.605   1.895  0.9126 -1.1891 -1.0273
 2651TIP3   OH229367   4.317   1.374  13.068  0.4315 -0.0157 -0.0158
 2651TIP3    H129368   4.319   1.281  13.043  0.3598 -0.1355  0.4115
 2651TIP3    H229369   4.322   1.373  13.163 -1.6569  0.3376  0.1424
 2652TIP3   OH229370   3.142   3.447  12.657 -0.0585  0.4556 -0.3335
 2652TIP3    H129371   3.194   3.465  12.735 -2.4382  0.3569  1.4020
 2652TIP3    H229372   3.202   3.405  12.596  1.7556 -0.0216  1.6830
 2653TIP3   OH229373   4.867   5.360  11.961 -0.1070 -0.2577 -0.3227
 2653TIP3    H129374   4.814   5.311  12.024  0.2458  0.6647  0.7313
 2653TIP3    H229375   4.817   5.358  11.880 -1.3631 -0.0927  0.4266
 2654TIP3   OH229376   1.841   6.327  12.303 -1.3120 -0.4342 -0.2904
 2654TIP3    H129377   1.899   6.286  12.366  0.9679  0.0697 -1.9527
 2654TIP3    H229378   1.770   6.365  12.356  0.3295 -0.2941  1.9109
 2655TIP3   OH229379   4.832   6.650   4.561 -0.8850  0.3703  0.1562
 2655TIP3    H129380   4.796   6.729   4.601  1.0947  1.0317  0.7499
 2655TIP3    H229381   4.794   6.648   4.474 -0.2972  2.5227 -0.2155
 2656TIP3   OH229382   3.108   5.831  12.408  0.2620  0.3196 -0.1751
 2656TIP3    H129383   3.149   5.851  12.493  3.1887  0.1870 -1.4435
 2656TIP3    H229384   3.152   5.888  12.346  1.0277 -2.2947 -2.1931
 2657TIP3   OH229385   3.463   5.852   5.096 -0.4131  0.5252 -0.3068
 2657TIP3    H129386   3.539   5.831   5.043 -1.5761 -0.3200 -1.7239
 2657TIP3    H229387   3.425   5.767   5.118 -1.1364  0.9410  0.0867
 2658TIP3   OH229388   4.685   0.047  16.761 -0.3920 -0.1313 -0.2447
 2658TIP3    H129389   4.724   0.119  16.809  0.9049 -1.2330  0.4221
 2658TIP3    H229390   4.745   0.029  16.690 -0.8501 -0.3738 -0.5786
 2659TIP3   OH229391   2.105   2.764  17.122  0.1483 -0.0495  0.1377
 2659TIP3    H129392   2.173   2.818  17.081  1.1304  0.0635  1.8497
 2659TIP3    H229393   2.152   2.686  17.152 -0.3387  0.3171  1.9251
 2660TIP3   OH229394   4.192   0.609  10.999 -0.3507  0.2331 -0.4736
 2660TIP3    H129395   4.145   0.528  11.022  0.3013 -0.9415 -2.9019
 2660TIP3    H229396   4.160   0.630  10.911  2.8699 -0.0556 -1.8339
 2661TIP3   OH229397   3.231   0.678   2.820 -0.1531 -0.3447 -0.4515
 2661TIP3    H129398   3.286   0.652   2.746 -1.0434 -1.5678 -0.7304
 2661TIP3    H229399   3.252   0.770   2.835  0.6007 -0.2820 -1.7294
 2662TIP3   OH229400   0.159   3.444  15.188  1.2705  0.7347 -1.0953
 2662TIP3    H129401   0.199   3.361  15.215  1.1957  0.4289 -1.9014
 2662TIP3    H229402   0.171   3.447  15.093  1.1843  1.6038 -1.0918
 2663TIP3   OH229403   0.379   2.320  12.551 -0.0616  0.2226 -0.3801
 2663TIP3    H129404   0.320   2.269  12.495 -0.6163 -0.3998  0.7340
 2663TIP3    H229405   0.352   2.411  12.538  1.0456  0.3254 -2.5242
 2664TIP3   OH229406   1.598   4.608   4.555 -0.4365  0.0463 -0.4585
 2664TIP3    H129407   1.537   4.643   4.619  0.0483 -0.2116  0.1535
 2664TIP3    H229408   1.651   4.684   4.529 -1.4066  0.4064 -1.4647
 2665TIP3   OH229409   3.259   0.158  13.584  0.3856  0.3285  0.0195
 2665TIP3    H129410   3.355   0.160  13.580  0.3611  0.1047 -2.9741
 2665TIP3    H229411   3.234   0.247  13.609  1.3215 -0.0203  2.4907
 2666TIP3   OH229412   1.108   6.244  15.066  0.0169  0.2860 -0.4089
 2666TIP3    H129413   1.071   6.318  15.114 -1.4042 -0.2311 -0.6536
 2666TIP3    H229414   1.050   6.234  14.990  1.5989  0.4222 -1.6717
 2667TIP3   OH229415   4.530   4.056  16.646  0.6622  0.0404  0.2539
 2667TIP3    H129416   4.501   4.124  16.586  0.5815 -0.0909  0.1431
 2667TIP3    H229417   4.525   4.097  16.733 -0.8008 -0.2592  0.3499
 2668TIP3   OH229418   1.683   2.729   1.988  0.4181 -0.1093  0.5118
 2668TIP3    H129419   1.613   2.794   1.984 -0.9809 -1.4301  2.1490
 2668TIP3    H229420   1.645   2.651   1.948 -0.0103 -1.5890  3.5258
 2669TIP3   OH229421   3.617   5.138   2.754 -0.5304  0.1299 -0.3337
 2669TIP3    H129422   3.554   5.135   2.825 -0.3875  3.2928  0.0779
 2669TIP3    H229423   3.673   5.213   2.775  1.9030 -1.1114 -1.8856
 2670TIP3   OH229424   4.519   2.846   2.647 -1.2132  0.0616  0.1521
 2670TIP3    H129425   4.521   2.917   2.711 -3.8943 -1.4929  2.2120
 2670TIP3    H229426   4.440   2.863   2.595 -2.6269 -1.8689  1.4892
 2671TIP3   OH229427   5.996   5.688  15.345 -0.0747 -0.4686 -0.5027
 2671TIP3    H129428   6.089   5.706  15.334 -0.2303  0.0665 -1.0125
 2671TIP3    H229429   5.964   5.761  15.397 -0.0042 -1.2325  0.6515
 2672TIP3   OH229430   2.457   4.738  13.132  0.4783  0.2268  0.3446
 2672TIP3    H129431   2.409   4.773  13.207 -0.2353  0.3649 -0.1678
 2672TIP3    H229432   2.389   4.711  13.070  1.0020 -1.5479  0.4766
 2673TIP3   OH229433   2.089   2.674  15.923 -0.2431 -0.0368 -0.9566
 2673TIP3    H129434   2.068   2.762  15.892  0.0935  0.4294  0.0851
 2673TIP3    H229435   2.118   2.627  15.844 -0.6091  0.7205 -1.5535
 2674TIP3   OH229436   5.503   5.466  12.312 -0.2861  0.0748  0.0688
 2674TIP3    H129437   5.427   5.411  12.328  0.4271 -0.8303  0.4449
 2674TIP3    H229438   5.548   5.471  12.397  0.1181  0.5256 -0.1655
 2675TIP3   OH229439   3.487   0.855   4.353  0.1722 -0.1232 -0.1945
 2675TIP3    H129440   3.449   0.931   4.396  0.0008  0.4995 -1.3975
 2675TIP3    H229441   3.423   0.785   4.366 -0.4437  0.3825 -0.4663
 2676TIP3   OH229442   3.941   1.496  15.666  0.1987  0.1095 -0.1478
 2676TIP3    H129443   3.981   1.414  15.639 -1.6746 -0.3878 -1.6714
 2676TIP3    H229444   3.854   1.494  15.626 -0.0724  2.6201  0.1641
 2677TIP3   OH229445   6.696   3.418   2.010 -0.7748 -0.1506  0.6967
 2677TIP3    H129446   6.628   3.459   2.063 -0.2437  0.8290  0.6443
 2677TIP3    H229447   6.752   3.490   1.981  0.3015 -0.9291  0.7401
 2678TIP3   OH229448   6.227   4.429   5.105  0.2440  0.6881 -0.7133
 2678TIP3    H129449   6.261   4.447   5.193  0.2342 -1.2513 -0.2567
 2678TIP3    H229450   6.293   4.464   5.046  0.4686  1.6294  0.0736
 2679TIP3   OH229451   0.061   4.143  13.223 -0.1177 -0.4517  0.0694
 2679TIP3    H129452  -0.006   4.198  13.184  2.3668  3.4711  0.7795
 2679TIP3    H229453   0.073   4.178  13.311  1.9486 -1.8567  0.4336
 2680TIP3   OH229454   0.590   2.581   3.976 -0.8527  0.6700 -0.3168
 2680TIP3    H129455   0.530   2.564   4.048  0.1191  0.3330  0.4390
 2680TIP3    H229456   0.630   2.496   3.957  1.1016  1.2750  0.7993
 2681TIP3   OH229457   1.558   1.430   1.972  1.0727 -0.2135  0.1477
 2681TIP3    H129458   1.609   1.444   1.892  2.3094 -1.7955  0.6265
 2681TIP3    H229459   1.550   1.335   1.980  0.5857 -0.0694  1.6819
 2682TIP3   OH229460   2.769   4.395   3.776 -0.4588 -0.2451 -0.0853
 2682TIP3    H129461   2.705   4.326   3.792  0.0206 -0.5012  0.7977
 2682TIP3    H229462   2.737   4.440   3.698 -2.1942  0.2244  0.8404
 2683TIP3   OH229463   2.119   2.259   4.554  0.5729 -0.4093 -0.2212
 2683TIP3    H129464   2.124   2.254   4.649 -0.1575 -0.4179 -0.1743
 2683TIP3    H229465   2.173   2.334   4.530  1.3189 -0.8187  0.1354
 2684TIP3   OH229466   3.164   1.394   5.267 -0.5115  0.0687 -0.0115
 2684TIP3    H129467   3.179   1.307   5.230  1.3077  1.2212 -2.1375
 2684TIP3    H229468   3.215   1.394   5.348 -1.9857 -1.3952  0.9972
 2685TIP3   OH229469   4.780   4.427   2.046  0.2345 -0.1373 -0.5674
 2685TIP3    H129470   4.859   4.395   2.089  0.3655 -0.3086 -0.9300
 2685TIP3    H229471   4.805   4.512   2.010  0.9549 -1.1367 -2.6151
 2686TIP3   OH229472   3.809   5.891  15.503  0.1372 -0.3492 -0.3231
 2686TIP3    H129473   3.731   5.861  15.456  0.0381  0.9642 -1.0121
 2686TIP3    H229474   3.852   5.951  15.444  0.5990  0.5004  0.8414
 2687TIP3   OH229475   3.297   0.997   5.536 -0.2196  0.1650  0.3163
 2687TIP3    H129476   3.392   1.006   5.549  0.2578 -1.3702 -1.5589
 2687TIP3    H229477   3.264   1.087   5.542  1.8371  1.2357 -2.0008
 2688TIP3   OH229478   5.536   3.808  14.485 -0.2929  0.6303  0.6769
 2688TIP3    H129479   5.564   3.783  14.573  1.2349  4.4659  1.4653
 2688TIP3    H229480   5.491   3.891  14.497  1.1823  2.0006 -2.2248
 2689TIP3   OH229481   4.816   5.829   3.070 -0.0201 -0.3681 -0.8824
 2689TIP3    H129482   4.836   5.910   3.024  1.5552 -0.3061 -0.1170
 2689TIP3    H229483   4.732   5.846   3.113 -0.2085  0.4874 -1.5698
 2690TIP3   OH229484   4.550   2.603   5.283  0.2983  0.0391  0.2080
 2690TIP3    H129485   4.625   2.546   5.267  0.2624  0.4775 -1.9721
 2690TIP3    H229486   4.549   2.661   5.206 -1.8107  0.5412  0.5717
 2691TIP3   OH229487   1.619   5.256  13.819 -0.6840 -0.1182 -0.3076
 2691TIP3    H129488   1.589   5.343  13.794 -1.2281 -0.3527 -0.4636
 2691TIP3    H229489   1.540   5.207  13.840 -0.3043 -0.1804  1.0808
 2692TIP3   OH229490   2.358   2.482  12.622  0.0318 -0.0375 -0.2616
 2692TIP3    H129491   2.426   2.544  12.595 -0.3846  0.4382 -0.2184
 2692TIP3    H229492   2.275   2.526  12.602 -0.4213  1.2196  3.4600
 2693TIP3   OH229493   2.728   1.599  11.115 -0.1436 -0.0043 -0.0761
 2693TIP3    H129494   2.697   1.508  11.118  1.5407 -0.6499 -1.1720
 2693TIP3    H229495   2.821   1.593  11.134  0.6453  1.1020 -3.1381
 2694TIP3   OH229496   3.508   2.715   3.984  0.0369  0.4355 -0.0047
 2694TIP3    H129497   3.558   2.640   3.950 -3.3071 -2.2576  0.3861
 2694TIP3    H229498   3.489   2.768   3.907  1.5782  0.3084 -0.4964
 2695TIP3   OH229499   6.725   4.144  11.558 -0.2838  0.5667  0.8460
 2695TIP3    H129500   6.772   4.175  11.481 -2.0331 -1.2449 -1.0677
 2695TIP3    H229501   6.781   4.077  11.596  0.3118  1.0316  0.7970
 2696TIP3   OH229502   0.505   1.968  17.016 -0.5704 -0.7390 -0.5509
 2696TIP3    H129503   0.412   1.987  17.027 -0.2611  0.2391  0.5398
 2696TIP3    H229504   0.533   1.930  17.099 -0.0634 -1.4197 -1.0089
 2697TIP3   OH229505   1.894   6.572  14.798 -0.7750  0.1236  0.3494
 2697TIP3    H129506   1.960   6.639  14.815 -1.9176  1.3724 -0.0116
 2697TIP3    H229507   1.938   6.490  14.818  0.8330  0.9326  0.2692
 2698TIP3   OH229508   3.579   1.504   2.691  0.1629 -0.4341  0.4215
 2698TIP3    H129509   3.650   1.525   2.751  2.0576 -0.0178 -1.8203
 2698TIP3    H229510   3.614   1.523   2.604 -2.4764 -0.8763 -0.8537
 2699TIP3   OH229511   5.089   2.717   3.381 -0.1984 -0.5048 -0.5287
 2699TIP3    H129512   5.070   2.658   3.308 -1.6122 -2.8184  1.5813
 2699TIP3    H229513   5.021   2.698   3.446  1.2427  1.1513  1.5948
 2700TIP3   OH229514   3.160   1.489  12.755 -0.7248  1.0539  0.0767
 2700TIP3    H129515   3.241   1.438  12.764 -1.1074  0.0845 -1.5891
 2700TIP3    H229516   3.149   1.500  12.661 -1.8180  2.3876  0.3289
 2701TIP3   OH229517   1.149   0.706  14.212  0.2900  0.2481  0.7782
 2701TIP3    H129518   1.133   0.629  14.266 -1.7677  0.7073  0.8877
 2701TIP3    H229519   1.062   0.736  14.186  0.9938  2.6799  0.9672
 2702TIP3   OH229520   5.501   0.121   2.975  0.3913 -0.0681  0.1124
 2702TIP3    H129521   5.564   0.130   2.904 -0.9911 -2.2724 -1.5297
 2702TIP3    H229522   5.520   0.035   3.013 -0.7910 -0.2083  0.4294
 2703TIP3   OH229523   1.313   5.166  14.090 -0.0541 -0.0683 -0.3032
 2703TIP3    H129524   1.400   5.144  14.055 -0.9769 -0.5713 -2.4752
 2703TIP3    H229525   1.301   5.107  14.164  0.9495 -0.8874 -0.7681
 2704TIP3   OH229526   2.975   1.185  15.830  0.2077 -0.0323 -0.3550
 2704TIP3    H129527   2.922   1.119  15.874 -1.1844  1.9372  1.0744
 2704TIP3    H229528   2.965   1.165  15.737 -0.9345 -1.2598 -0.0086
 2705TIP3   OH229529   2.196   3.604  16.899 -0.2415  0.6821 -0.6879
 2705TIP3    H129530   2.262   3.650  16.848  0.6353 -0.7102 -0.8649
 2705TIP3    H229531   2.180   3.662  16.974  2.1589  0.5089  0.0494
 2706TIP3   OH229532   0.931   0.719   5.690 -0.0198 -0.4252 -0.1951
 2706TIP3    H129533   0.920   0.752   5.601  1.2450  1.5898  0.3395
 2706TIP3    H229534   1.012   0.668   5.687 -1.3491 -2.6252 -0.7433
 2707TIP3   OH229535   1.194   3.622   0.974  0.2290 -0.2108  0.1559
 2707TIP3    H129536   1.166   3.591   0.888  2.4538 -0.8792 -0.3840
 2707TIP3    H229537   1.227   3.543   1.018 -1.2671  0.0378  1.8310
 2708TIP3   OH229538   6.539   5.856  16.305  0.3933 -0.3032  0.1642
 2708TIP3    H129539   6.519   5.806  16.226  0.2322  1.4223 -0.9507
 2708TIP3    H229540   6.527   5.794  16.376 -1.6715 -1.3665 -0.9970
 2709TIP3   OH229541   1.130   1.546   3.017 -0.1764 -0.4821  0.0752
 2709TIP3    H129542   1.211   1.549   3.066  0.2493 -0.6453 -0.6042
 2709TIP3    H229543   1.073   1.489   3.069 -0.2982  0.5987  1.1747
 2710TIP3   OH229544   6.195   3.318   0.281  0.2517 -0.5415 -0.6136
 2710TIP3    H129545   6.141   3.300   0.204  0.1064 -2.5875 -0.0873
 2710TIP3    H229546   6.132   3.348   0.347  0.4924  2.1706 -1.4897
 2711TIP3   OH229547   3.336   5.933   3.988 -0.0084 -0.6782 -0.0061
 2711TIP3    H129548   3.335   5.972   4.075 -0.4014  0.0973 -0.3480
 2711TIP3    H229549   3.426   5.905   3.975  0.1099 -0.5654  0.5411
 2712TIP3   OH229550   4.680   1.514   5.173 -0.1581 -0.2452 -0.0435
 2712TIP3    H129551   4.683   1.499   5.267  0.3255 -0.9173 -0.1581
 2712TIP3    H229552   4.640   1.601   5.164 -1.1139 -0.5861  0.7350
 2713TIP3   OH229553   0.357   4.140  14.250 -0.2524  0.2064 -0.4771
 2713TIP3    H129554   0.321   4.198  14.317  1.1845 -0.1020  0.5997
 2713TIP3    H229555   0.302   4.156  14.173  0.1261  3.0691 -0.2681
 2714TIP3   OH229556   3.643   1.463  14.866 -0.3073  0.0464 -0.1129
 2714TIP3    H129557   3.563   1.452  14.815 -0.2049  1.3450 -0.5834
 2714TIP3    H229558   3.704   1.400  14.827  0.1336  1.7899 -2.4379
 2715TIP3   OH229559   3.600   3.072  15.002 -0.3283  0.6527 -0.2353
 2715TIP3    H129560   3.552   3.153  14.982  0.4423  1.3695  0.6925
 2715TIP3    H229561   3.687   3.102  15.027 -0.1954 -0.4302  0.6842
 2716TIP3   OH229562   2.399   2.820  14.516  0.5141  0.6161 -0.0595
 2716TIP3    H129563   2.485   2.790  14.547  0.3343 -0.5771 -0.6645
 2716TIP3    H229564   2.407   2.915  14.514  1.1673  0.6320  1.7393
 2717TIP3   OH229565   1.805   4.650  17.236 -0.6444  0.1619  0.5770
 2717TIP3    H129566   1.727   4.648  17.181 -0.2029  0.6771 -0.0764
 2717TIP3    H229567   1.877   4.666  17.175  0.0264 -0.7074  1.1183
 2718TIP3   OH229568   2.859   3.639   4.279 -0.3098 -0.4159  0.6022
 2718TIP3    H129569   2.923   3.618   4.347 -1.2869  0.2622  1.7819
 2718TIP3    H229570   2.775   3.640   4.324 -0.8185  1.6585 -0.2377
 2719TIP3   OH229571   4.766   5.081  11.206 -0.1349  0.5106  0.2187
 2719TIP3    H129572   4.772   5.109  11.115  0.6155  0.3961  0.2284
 2719TIP3    H229573   4.704   5.007  11.204  3.1828 -2.5428 -0.9887
 2720TIP3   OH229574   3.820   6.243  10.592 -0.5854 -0.1571 -0.0352
 2720TIP3    H129575   3.885   6.196  10.644 -0.5447 -0.0884 -0.0227
 2720TIP3    H229576   3.746   6.183  10.584 -1.0883  0.2709  1.1254
 2721TIP3   OH229577   0.765   3.704   6.125 -0.0331  0.1126 -0.0819
 2721TIP3    H129578   0.730   3.750   6.201  1.8303  2.6911 -0.6368
 2721TIP3    H229579   0.840   3.655   6.159  0.9748  1.4918 -0.2303
 2722TIP3   OH229580   4.478   0.010  13.410  0.2747 -0.0888  0.1948
 2722TIP3    H129581   4.385   0.029  13.415  0.2252 -0.1721 -0.3219
 2722TIP3    H229582   4.507   0.004  13.501 -0.2808 -0.3425  0.3562
 2723TIP3   OH229583   3.392   2.379   1.663 -0.3977  0.2395 -0.3605
 2723TIP3    H129584   3.402   2.379   1.568  1.6951 -0.6039 -0.2061
 2723TIP3    H229585   3.482   2.382   1.696 -0.9541 -1.6728  1.5441
 2724TIP3   OH229586   2.940   5.792   3.937 -0.0465  0.6054 -0.2870
 2724TIP3    H129587   2.868   5.730   3.952  3.2186 -3.2872  1.1610
 2724TIP3    H229588   2.932   5.855   4.008 -0.3994 -1.5505  1.6968
 2725TIP3   OH229589   2.759   3.799  13.795  0.4422  0.1547  0.0596
 2725TIP3    H129590   2.853   3.807  13.811  0.4613 -1.5012  0.9891
 2725TIP3    H229591   2.751   3.727  13.733 -0.2396  0.2115  0.0675
 2726TIP3   OH229592   1.311   4.765  14.146  0.5538 -0.1947 -0.6768
 2726TIP3    H129593   1.306   4.792  14.054  0.6918 -1.2563 -1.0192
 2726TIP3    H229594   1.270   4.836  14.195  2.4843  1.4690 -1.3255
 2727TIP3   OH229595   6.016   3.132  15.159 -0.3029 -0.3308  0.3418
 2727TIP3    H129596   5.980   3.209  15.116 -1.2621  0.9234  3.1846
 2727TIP3    H229597   5.980   3.134  15.247  2.9836 -1.6566  1.9066
 2728TIP3   OH229598   6.136   0.319   1.808 -0.4319  0.0824  0.2509
 2728TIP3    H129599   6.055   0.366   1.830 -0.8550 -1.1933  1.5514
 2728TIP3    H229600   6.201   0.388   1.795 -1.6663  1.1297 -0.6602
 2729TIP3   OH229601   6.009   4.650  17.016  0.0911 -0.2710  0.2542
 2729TIP3    H129602   6.090   4.695  17.039  0.6630 -2.5611  3.2679
 2729TIP3    H229603   6.037   4.567  16.977 -0.7655 -0.9061  0.9508
 2730TIP3   OH229604   5.347   2.482   1.266 -0.0851  0.3977  0.2452
 2730TIP3    H129605   5.305   2.532   1.196  1.0570  1.6018  0.3526
 2730TIP3    H229606   5.374   2.400   1.225 -2.4781 -0.4319  0.1921
 2731TIP3   OH229607   6.399   1.380  15.418  0.1685 -0.0729  0.6060
 2731TIP3    H129608   6.398   1.319  15.345 -0.3533  3.2719 -2.4289
 2731TIP3    H229609   6.307   1.404  15.431  0.5344  1.6688  0.1942
 2732TIP3   OH229610   4.965   0.874   0.121 -0.1085 -0.3018 -0.8804
 2732TIP3    H129611   5.047   0.920   0.139  0.0816 -1.3805  1.2756
 2732TIP3    H229612   4.989   0.805   0.059  0.2610  0.3830 -1.5152
 2733TIP3   OH229613   4.916   4.667  11.902  0.4200  0.0988 -0.5231
 2733TIP3    H129614   4.989   4.664  11.840  1.7732  0.8027  0.9791
 2733TIP3    H229615   4.949   4.715  11.977 -1.6951  0.6845  0.1238
 2734TIP3   OH229616   6.638   6.229   6.081 -0.9159  0.2773 -0.0289
 2734TIP3    H129617   6.691   6.305   6.103  0.9351 -1.0327  0.2247
 2734TIP3    H229618   6.643   6.172   6.158  0.1692 -1.3915 -1.2489
 2735TIP3   OH229619   6.406   4.365  13.904  0.1264 -0.0783  0.4206
 2735TIP3    H129620   6.386   4.359  13.998  0.5064  1.2277  0.6071
 2735TIP3    H229621   6.320   4.366  13.861 -0.0449 -1.6153  0.6561
 2736TIP3   OH229622   2.849   5.359  11.944  0.2014 -0.1796  0.3953
 2736TIP3    H129623   2.864   5.306  12.022 -1.2252 -4.7983 -2.0481
 2736TIP3    H229624   2.932   5.403  11.929  0.7804  0.2269  3.9406
 2737TIP3   OH229625   5.164   0.843  14.958  0.4198  0.3046 -0.0974
 2737TIP3    H129626   5.106   0.767  14.966  0.0318  0.7913  3.3263
 2737TIP3    H229627   5.225   0.835  15.032  1.9427  2.0635 -1.0755
 2738TIP3   OH229628   6.606   1.923   3.122 -0.5395 -0.1225 -0.1692
 2738TIP3    H129629   6.666   1.863   3.167 -0.7132 -0.4077 -0.3178
 2738TIP3    H229630   6.639   2.010   3.144 -2.5787 -0.0563  3.4302
 2739TIP3   OH229631   5.460   6.297   4.591  0.2124 -0.1717  0.4526
 2739TIP3    H129632   5.399   6.364   4.621 -0.8069 -0.7110 -0.3225
 2739TIP3    H229633   5.449   6.225   4.653  0.2672 -0.1599  0.4760
 2740TIP3   OH229634   0.734   4.303   3.472 -0.0370  0.2424  0.0159
 2740TIP3    H129635   0.767   4.244   3.540 -0.5896 -1.3534 -1.0615
 2740TIP3    H229636   0.658   4.345   3.512 -0.5151 -0.8778  0.3278
 2741TIP3   OH229637   4.668   3.465  15.492 -0.1831  0.3576  0.5163
 2741TIP3    H129638   4.664   3.445  15.398  0.8777  2.1774  0.0276
 2741TIP3    H229639   4.602   3.534  15.505 -1.8353 -1.3495  1.5809
 2742TIP3   OH229640   3.252   3.567  14.013  0.5073  0.5185  0.3418
 2742TIP3    H129641   3.233   3.528  13.928  1.3755 -1.4161  0.9779
 2742TIP3    H229642   3.200   3.647  14.015 -0.9967 -0.3567 -1.2317
 2743TIP3   OH229643   5.937   0.305   5.054 -0.6090 -0.5473  0.1029
 2743TIP3    H129644   5.987   0.234   5.015 -0.7987 -0.3226 -0.5532
 2743TIP3    H229645   6.002   0.358   5.100 -0.2297 -0.2433 -0.7629
 2744TIP3   OH229646   3.128   0.763   3.386  0.2694 -0.2400 -0.3068
 2744TIP3    H129647   3.036   0.787   3.381  0.2943  0.2880  1.1543
 2744TIP3    H229648   3.138   0.724   3.473  1.1803 -1.4543 -0.9175
 2745TIP3   OH229649   4.144   5.859  13.290 -0.2567 -0.5523 -0.0281
 2745TIP3    H129650   4.050   5.839  13.286 -0.3001 -0.1389 -1.2431
 2745TIP3    H229651   4.151   5.930  13.354 -1.0074  0.6738 -1.2577
 2746TIP3   OH229652   6.214   0.987   3.902  0.4285  0.0893  0.8823
 2746TIP3    H129653   6.167   0.936   3.968 -0.5170 -2.2281 -1.4216
 2746TIP3    H229654   6.286   0.930   3.875  0.4899  0.7549 -0.4221
 2747TIP3   OH229655   0.034   3.702   3.162 -0.0474  0.1488  0.3312
 2747TIP3    H129656   0.039   3.796   3.181  0.4269  0.4770 -1.2111
 2747TIP3    H229657  -0.055   3.690   3.127 -0.9317 -0.4530  2.6408
 2748TIP3   OH229658   0.056   0.893   1.537 -0.3797  0.0375  0.3920
 2748TIP3    H129659  -0.007   0.823   1.554 -1.3833  0.6488 -0.6482
 2748TIP3    H229660   0.137   0.848   1.516 -0.6944 -0.7873  0.8792
 2749TIP3   OH229661   6.279   4.490   0.287 -0.4822  0.5028 -0.7504
 2749TIP3    H129662   6.351   4.529   0.238 -0.3398  1.6229  0.3069
 2749TIP3    H229663   6.284   4.396   0.267  2.2486  0.3062  0.5071
 2750TIP3   OH229664   1.676   1.508  14.812  0.1900  0.0813  0.0713
 2750TIP3    H129665   1.698   1.451  14.885 -1.7052 -0.6626  0.1056
 2750TIP3    H229666   1.630   1.582  14.852 -1.1791 -0.5069 -0.3800
 2751TIP3   OH229667   0.480   2.445  16.086 -0.1273  0.0245 -0.1660
 2751TIP3    H129668   0.551   2.469  16.145 -0.1659 -1.1010  0.3688
 2751TIP3    H229669   0.411   2.509  16.104  0.3322  0.4504  0.1041
 2752TIP3   OH229670   1.000   2.211   3.500 -0.2017  0.0290 -0.4391
 2752TIP3    H129671   0.931   2.207   3.566 -0.1567 -0.0013 -0.3947
 2752TIP3    H229672   1.005   2.122   3.465  1.1743 -0.4653  0.9278
 2753TIP3   OH229673   4.578   5.042   2.616  0.1964  0.6496  0.4754
 2753TIP3    H129674   4.629   5.036   2.696 -0.2215 -0.5707  0.6654
 2753TIP3    H229675   4.643   5.060   2.547  1.1698 -2.4344  0.4578
 2754TIP3   OH229676   3.950   1.326   1.703 -0.4208  0.9956  0.0510
 2754TIP3    H129677   3.998   1.350   1.623  2.5139  0.1129  1.4015
 2754TIP3    H229678   3.983   1.387   1.769 -2.7861  1.6947  0.6885
 2755TIP3   OH229679   1.351   5.009  14.587  0.5406 -0.4613 -0.4675
 2755TIP3    H129680   1.421   4.951  14.616 -0.4645 -0.8995  1.2193
 2755TIP3    H229681   1.276   4.951  14.572 -0.1518  0.2628  0.1150
 2756TIP3   OH229682   1.758   6.737   3.128  0.3462  0.5263 -0.1092
 2756TIP3    H129683   1.724   6.681   3.199 -1.1486 -1.4949 -2.2589
 2756TIP3    H229684   1.851   6.747   3.148  0.2324 -1.0419  1.4896
 2757TIP3   OH229685   5.524   1.773   5.701 -0.0581 -0.3283  0.2775
 2757TIP3    H129686   5.611   1.740   5.721 -0.1289 -0.6884  0.0153
 2757TIP3    H229687   5.476   1.696   5.669 -0.9339 -0.4876  1.8797
 2758TIP3   OH229688   6.611   2.293   1.404  0.2214  0.6769 -0.3221
 2758TIP3    H129689   6.631   2.383   1.429 -1.3015  0.9508  0.0245
 2758TIP3    H229690   6.517   2.294   1.385  0.1088 -0.9077  0.0232
 2759TIP3   OH229691   3.169   5.465   1.637 -0.0367 -0.9241  0.3975
 2759TIP3    H129692   3.169   5.558   1.657 -2.1012 -0.6051 -0.8111
 2759TIP3    H229693   3.184   5.422   1.721 -0.3558  0.4692  1.1942
 2760TIP3   OH229694   4.399   2.990  14.139 -0.1732 -0.7026  0.0562
 2760TIP3    H129695   4.344   2.914  14.117  0.3872 -0.7281 -1.4247
 2760TIP3    H229696   4.459   2.958  14.206 -0.5785 -1.2973  0.1410
 2761TIP3   OH229697   6.373   6.331  13.337 -0.1663  0.1507  0.0094
 2761TIP3    H129698   6.462   6.356  13.363  0.5985 -0.5201 -1.7853
 2761TIP3    H229699   6.380   6.237  13.320 -1.3042  0.0429  0.0952
 2762TIP3   OH229700   3.438   5.625   4.736  0.1291 -0.2594 -0.4764
 2762TIP3    H129701   3.396   5.662   4.658  0.7871  2.0543  0.1834
 2762TIP3    H229702   3.369   5.577   4.780 -1.4093  1.8678 -0.4048
 2763TIP3   OH229703   0.013   3.449   2.423  0.1034 -0.0049  0.1814
 2763TIP3    H129704  -0.016   3.511   2.491 -0.1154 -0.0244  0.1047
 2763TIP3    H229705   0.086   3.494   2.380  1.5794 -0.7933  1.7359
 2764TIP3   OH229706   6.174   2.002  15.138  0.3291  0.3296  0.2822
 2764TIP3    H129707   6.135   1.929  15.188  0.7393 -0.3864 -0.4173
 2764TIP3    H229708   6.144   1.987  15.049 -1.7796  2.5344  0.5138
 2765TIP3   OH229709   3.465   3.954   2.384  0.4963  0.5565  0.0979
 2765TIP3    H129710   3.465   3.864   2.351 -1.9350 -0.0751  1.5354
 2765TIP3    H229711   3.432   4.006   2.311  0.3060  0.0213 -0.2098
 2766TIP3   OH229712   1.592   4.222   3.640 -0.0495  0.3341 -0.6961
 2766TIP3    H129713   1.503   4.246   3.665  0.0647  0.0106  0.0284
 2766TIP3    H229714   1.609   4.273   3.560 -2.3603 -2.5486 -3.2938
 2767TIP3   OH229715   6.524   2.605   0.824  0.5040 -0.5061 -0.1174
 2767TIP3    H129716   6.461   2.562   0.881 -0.1325 -0.9028 -1.0826
 2767TIP3    H229717   6.482   2.688   0.800  0.9079 -0.1935  0.2500
 2768TIP3   OH229718   0.688   3.023  13.029  0.4853  0.4724  0.4858
 2768TIP3    H129719   0.669   2.941  13.073  0.8907  0.1034 -0.0152
 2768TIP3    H229720   0.615   3.035  12.968 -0.0234  0.9326  1.1658
 2769TIP3   OH229721   4.092   3.307   2.155  0.1728 -0.0077  0.1351
 2769TIP3    H129722   4.138   3.323   2.237  2.9468  1.5679 -1.5546
 2769TIP3    H229723   4.056   3.219   2.163  2.3373 -0.7911  2.1605
 2770TIP3   OH229724   6.463   0.115  15.046  0.2277 -0.2280  0.0911
 2770TIP3    H129725   6.505   0.197  15.019 -0.1838 -0.5321 -1.6099
 2770TIP3    H229726   6.528   0.073  15.103 -0.1295  1.8897  2.2100
 2771TIP3   OH229727   6.175   0.153  11.534  0.0700  0.3782 -1.0625
 2771TIP3    H129728   6.133   0.235  11.562  1.3023  0.2415  1.4521
 2771TIP3    H229729   6.268   0.176  11.527  0.3519 -0.6708 -0.8725
 2772TIP3   OH229730   4.030   3.581   4.751 -0.2686 -0.0457  0.0180
 2772TIP3    H129731   4.023   3.656   4.691 -0.2995  0.2198  0.3503
 2772TIP3    H229732   4.012   3.618   4.837 -2.2683 -0.7705 -0.0153
 2773TIP3   OH229733   1.932   0.352   2.647  0.0295 -0.2107 -0.0922
 2773TIP3    H129734   1.884   0.273   2.622 -0.9937 -0.4153  2.2255
 2773TIP3    H229735   1.913   0.415   2.578 -1.6486 -1.0397 -0.4469
 2774TIP3   OH229736   0.090   0.975   4.269 -0.1020  0.6568  0.0189
 2774TIP3    H129737   0.062   0.914   4.337  1.4652  1.3292  1.3195
 2774TIP3    H229738   0.183   0.954   4.255  0.8104  3.4403  1.3505
 2775TIP3   OH229739   5.784   2.218  12.486  1.3342 -0.0877  0.7973
 2775TIP3    H129740   5.744   2.153  12.429 -1.2521  2.0180  0.0143
 2775TIP3    H229741   5.759   2.191  12.574 -1.1065  0.6132  0.3839
 2776TIP3   OH229742   5.274   0.071  12.561  0.1044  0.0473  0.8053
 2776TIP3    H129743   5.279   0.154  12.513  2.0996  0.0149  0.9076
 2776TIP3    H229744   5.215   0.090  12.635 -2.4994  0.2750 -1.1806
 2777TIP3   OH229745   4.503   2.825  11.811 -0.5465  0.2445  0.1645
 2777TIP3    H129746   4.474   2.766  11.742  0.4819 -1.2425  0.9704
 2777TIP3    H229747   4.435   2.893  11.814 -1.7890 -0.9082 -0.7528
 2778TIP3   OH229748   1.783   6.136   2.829  0.3607  0.4177  0.0094
 2778TIP3    H129749   1.761   6.183   2.910  0.5374  0.8065 -0.1673
 2778TIP3    H229750   1.878   6.139   2.825  0.3775 -0.0069  0.0233
 2779TIP3   OH229751   6.213   0.295  13.355 -0.1877 -0.3055  0.5837
 2779TIP3    H129752   6.141   0.356  13.370 -0.3835 -0.6428  1.0225
 2779TIP3    H229753   6.292   0.347  13.372 -0.1694  0.7851 -2.2403
 2780TIP3   OH229754   4.195   4.563   4.424 -0.3922  0.5413 -0.3153
 2780TIP3    H129755   4.248   4.537   4.499 -1.1535  0.7014  0.2926
 2780TIP3    H229756   4.177   4.656   4.439 -2.1731  0.1249  0.3372
 2781TIP3   OH229757   3.616   3.377   4.140 -0.0123  0.4193  0.1566
 2781TIP3    H129758   3.533   3.421   4.161 -0.2415  0.3724 -0.6204
 2781TIP3    H229759   3.592   3.311   4.074  0.6133  0.2766  0.0640
 2782TIP3   OH229760   6.478   1.577   3.433 -0.0153 -0.1546  0.3070
 2782TIP3    H129761   6.490   1.491   3.473 -0.2668  0.2891  1.3622
 2782TIP3    H229762   6.535   1.576   3.356  2.7196 -0.0177  2.1993
 2783TIP3   OH229763   3.799   6.205  12.941  0.1572  0.4912  0.4529
 2783TIP3    H129764   3.776   6.261  13.015  1.0561  0.4487  0.7856
 2783TIP3    H229765   3.833   6.125  12.982  2.1499  1.0773  0.0511
 2784TIP3   OH229766   5.341   5.704   5.808 -0.2723 -0.4703 -0.1007
 2784TIP3    H129767   5.254   5.741   5.826  0.3712  0.2763  1.7235
 2784TIP3    H229768   5.323   5.623   5.760 -2.1191 -1.4667  2.0640
 2785TIP3   OH229769   5.156   4.047   4.883 -0.0198  0.0447 -0.3922
 2785TIP3    H129770   5.153   4.008   4.971 -0.9707 -0.9665 -0.8526
 2785TIP3    H229771   5.067   4.080   4.869  0.2328  0.5486 -0.8342
 2786TIP3   OH229772   3.726   5.945  11.331 -0.3837 -0.4380 -0.9921
 2786TIP3    H129773   3.735   5.866  11.278  4.5855 -0.8277 -0.0825
 2786TIP3    H229774   3.756   6.016  11.274 -1.8127  0.3463 -0.8192
 2787TIP3   OH229775   1.483   2.463   4.292 -0.2094  0.3016 -0.3119
 2787TIP3    H129776   1.436   2.461   4.208 -0.6957 -1.2030 -0.0288
 2787TIP3    H229777   1.561   2.410   4.276 -1.8480 -2.7498  1.0115
 2788TIP3   OH229778   5.267   0.512   1.616 -0.2667 -0.3767  0.6338
 2788TIP3    H129779   5.362   0.513   1.622 -0.1916 -1.1358 -0.2378
 2788TIP3    H229780   5.237   0.537   1.703  0.7348 -2.4859  1.6661
 2789TIP3   OH229781   0.876   1.921  15.598  0.3954 -0.8198 -0.2536
 2789TIP3    H129782   0.832   1.884  15.674  1.9968 -2.8080 -0.1932
 2789TIP3    H229783   0.927   1.994  15.632  1.1649 -1.7474  0.6400
 2790TIP3   OH229784   6.154   4.101   3.792  0.0543 -0.1018 -0.5221
 2790TIP3    H129785   6.102   4.119   3.714  1.0458 -0.9341 -1.4073
 2790TIP3    H229786   6.244   4.100   3.761  0.4683 -0.4203  0.6383
 2791TIP3   OH229787   3.275   0.789  12.239  0.5850 -0.2663  0.0356
 2791TIP3    H129788   3.200   0.749  12.282 -0.1092 -0.1733 -1.0488
 2791TIP3    H229789   3.294   0.731  12.165  1.2115  0.0277 -0.0403
 2792TIP3   OH229790   2.436   5.957   4.894  0.0823 -0.1065  0.2558
 2792TIP3    H129791   2.370   5.895   4.926 -0.1091 -0.9480 -1.6251
 2792TIP3    H229792   2.397   6.043   4.908  0.4553 -0.3385  3.1620
 2793TIP3   OH229793   5.104   5.344  11.864  0.5791  0.1313  0.0169
 2793TIP3    H129794   5.018   5.342  11.907  0.4684  0.7014 -0.1722
 2793TIP3    H229795   5.094   5.288  11.787  1.0038 -1.5256  1.1354
 2794TIP3   OH229796   3.895   2.747   4.872  0.4972  0.0957 -0.0981
 2794TIP3    H129797   3.859   2.717   4.789  1.0190  1.4138 -0.8405
 2794TIP3    H229798   3.987   2.765   4.853  0.6159  0.4558  0.7563
 2795TIP3   OH229799   2.333   6.623  15.966  0.2077 -0.3381  0.0512
 2795TIP3    H129800   2.242   6.625  15.938  0.6542 -0.9481 -1.5191
 2795TIP3    H229801   2.337   6.685  16.039 -1.6233 -0.9269  0.6966
 2796TIP3   OH229802   1.508   3.067  14.455  0.3821 -0.3873 -0.0884
 2796TIP3    H129803   1.451   3.038  14.526  0.3116  0.2259  0.1140
 2796TIP3    H229804   1.583   3.008  14.458  0.8185  0.1975  1.0930
 2797TIP3   OH229805   2.631   1.740   3.925 -0.0850 -0.0084 -0.4305
 2797TIP3    H129806   2.703   1.789   3.965 -1.2117  0.7455  0.7275
 2797TIP3    H229807   2.552   1.788   3.950 -1.1484 -1.8400 -0.1284
 2798TIP3   OH229808   0.045   2.887  12.933  0.2432  0.3537 -0.3281
 2798TIP3    H129809  -0.024   2.845  12.984  1.5633 -1.3077  0.1739
 2798TIP3    H229810   0.119   2.827  12.938  0.8971  0.7965 -3.0719
 2799TIP3   OH229811   4.037   1.743   4.626  0.6081  0.1611  0.1049
 2799TIP3    H129812   3.951   1.780   4.608 -0.2468 -1.1477  1.3144
 2799TIP3    H229813   4.099   1.807   4.590 -0.8160  1.8875  0.6021
 2800TIP3   OH229814   6.058   5.985  17.127  0.7798 -0.3744 -0.1952
 2800TIP3    H129815   6.024   5.948  17.046  0.5301 -2.3820  0.7634
 2800TIP3    H229816   6.135   6.036  17.101 -0.6963  1.0938 -1.9469
 2801TIP3   OH229817   5.910   5.448   1.224  0.7731 -0.0268  0.5595
 2801TIP3    H129818   5.867   5.511   1.281 -1.2544 -0.2942 -0.5954
 2801TIP3    H229819   5.958   5.501   1.161 -0.5098  0.3742 -0.0982
 2802TIP3   OH229820   2.371   6.735   1.169 -0.0338 -0.0370  0.0642
 2802TIP3    H129821   2.315   6.787   1.227 -1.2249 -1.6567  0.4655
 2802TIP3    H229822   2.417   6.675   1.228  0.3206 -0.3076 -0.4767
 2803TIP3   OH229823   3.960   2.274  15.824 -0.6263  0.1450  0.1464
 2803TIP3    H129824   3.960   2.187  15.782 -0.8631 -0.0622  0.5689
 2803TIP3    H229825   4.049   2.284  15.858 -0.6464 -0.0037  0.2434
 2804TIP3   OH229826   0.063   6.687   1.907  0.1950  0.2939 -0.2454
 2804TIP3    H129827   0.085   6.610   1.855 -2.5284 -1.3089  0.7664
 2804TIP3    H229828   0.032   6.651   1.990  1.0416  2.6295  1.1686
 2805TIP3   OH229829   6.442   1.559  11.780  0.2157  0.0249  0.1315
 2805TIP3    H129830   6.400   1.584  11.698 -0.1462 -0.4992  0.1552
 2805TIP3    H229831   6.427   1.465  11.788  0.0469  0.1066  0.9071
 2806TIP3   OH229832   5.360   5.996  12.891 -0.0029  0.0779 -0.8008
 2806TIP3    H129833   5.269   5.967  12.881  0.7926 -2.2463 -1.9410
 2806TIP3    H229834   5.355   6.070  12.952 -2.5320 -0.6161 -0.0587
 2807TIP3   OH229835   0.202   0.634   1.411 -0.1781 -0.1687  0.2154
 2807TIP3    H129836   0.184   0.620   1.504 -2.2660 -1.9857 -0.3661
 2807TIP3    H229837   0.290   0.598   1.398  1.2654  2.4486  1.8938
 2808TIP3   OH229838   1.587   3.716  17.350 -0.2639  0.0013  0.4509
 2808TIP3    H129839   1.564   3.642  17.405  1.7145  0.3582  1.8554
 2808TIP3    H229840   1.659   3.684  17.296 -1.6327 -0.0866 -1.4404
 2809TIP3   OH229841   1.853   6.211   3.884  0.0935 -0.8162 -0.4428
 2809TIP3    H129842   1.834   6.275   3.815  0.7081  1.1995  1.1318
 2809TIP3    H229843   1.879   6.132   3.838  0.9697  0.6056 -2.5452
 2810TIP3   OH229844   1.828   0.945  17.007  0.0678  0.1865  0.4012
 2810TIP3    H129845   1.735   0.931  17.021 -0.1241  0.8138 -0.1624
 2810TIP3    H229846   1.849   1.024  17.057  0.2748  0.0956  0.4595
 2811TIP3   OH229847   2.147   4.338   4.936 -0.1819 -0.1173 -0.3749
 2811TIP3    H129848   2.218   4.281   4.907  0.1955  1.1374 -2.0480
 2811TIP3    H229849   2.078   4.326   4.871 -1.8419 -1.7754  1.5416
 2812TIP3   OH229850   6.503   5.951  16.685  0.0750  0.2865 -0.2533
 2812TIP3    H129851   6.472   5.883  16.745  1.2700  1.2366  1.5468
 2812TIP3    H229852   6.425   6.005  16.668 -0.2763  0.0378  0.5052
 2813TIP3   OH229853   6.245   6.041  15.965  0.0322 -0.1498  0.5455
 2813TIP3    H129854   6.246   5.947  15.947 -1.1273 -0.4827  2.0462
 2813TIP3    H229855   6.161   6.072  15.932  0.4762  0.4229 -0.0981
 2814TIP3   OH229856   1.671   5.398   5.692  1.0755  0.1145  0.5955
 2814TIP3    H129857   1.610   5.410   5.766  0.1947  0.1413 -0.1161
 2814TIP3    H229858   1.619   5.353   5.626  1.7846  0.3186 -0.1096
 2815TIP3   OH229859   5.857   2.996  14.401  0.2241  0.5544  0.0743
 2815TIP3    H129860   5.902   2.989  14.485  0.1161 -1.5471  0.0123
 2815TIP3    H229861   5.902   3.066  14.355  1.8132  0.1747  0.9883
 2816TIP3   OH229862   0.983   2.763   7.529  0.2190  0.8005 -0.3526
 2816TIP3    H129863   1.025   2.681   7.504  1.8580  0.7339  2.2849
 2816TIP3    H229864   0.893   2.755   7.497  0.1982 -2.2039  0.2074
 2817TIP3   OH229865   2.288   4.832   4.851 -0.6427  0.3842 -0.4392
 2817TIP3    H129866   2.218   4.767   4.843  0.0209 -0.6155  1.2481
 2817TIP3    H229867   2.307   4.858   4.761 -1.5192 -1.1329 -1.1130
 2818TIP3   OH229868   4.212   1.704  15.303  0.2059  0.1230 -0.4848
 2818TIP3    H129869   4.124   1.667  15.302  0.5691 -0.7786 -0.2238
 2818TIP3    H229870   4.242   1.691  15.393 -0.0555  2.0674 -0.0698
 2819TIP3   OH229871   4.796   6.160   4.753 -0.4434  0.0132 -0.1714
 2819TIP3    H129872   4.834   6.076   4.779 -0.8282 -0.2789 -0.5506
 2819TIP3    H229873   4.796   6.159   4.657 -2.3161 -0.4171 -0.1956
 2820TIP3   OH229874   5.093   0.749  15.366 -0.7268  0.6544 -0.2489
 2820TIP3    H129875   5.152   0.680  15.334 -0.3578  1.0733 -0.4949
 2820TIP3    H229876   5.083   0.730  15.459 -1.2351 -0.1645 -0.4644
 2821TIP3   OH229877   0.157   5.406   5.927 -0.2141  0.0988 -0.3032
 2821TIP3    H129878   0.248   5.393   5.902 -0.1367  0.3349 -0.1491
 2821TIP3    H229879   0.159   5.482   5.986 -0.4530 -0.1597  0.0438
 2822TIP3   OH229880   5.537   5.996  15.222 -0.0879  0.5664 -0.1020
 2822TIP3    H129881   5.528   6.025  15.312  1.1287 -0.5927  0.4248
 2822TIP3    H229882   5.510   6.072  15.170  1.7465  2.2442  1.2079
 2823TIP3   OH229883   0.018   0.195  11.400  0.4451 -0.0515  0.0507
 2823TIP3    H129884   0.052   0.106  11.414  0.9657 -0.1949 -1.8550
 2823TIP3    H229885  -0.063   0.182  11.350  0.0819  0.5169  0.4840
 2824TIP3   OH229886   0.040   3.558  15.916  0.0668  0.0492 -0.5233
 2824TIP3    H129887   0.104   3.617  15.955 -0.2892  0.7997 -1.0596
 2824TIP3    H229888  -0.025   3.615  15.875 -1.2576 -0.6808  0.4722
 2825TIP3   OH229889   5.816   1.269  13.650  0.4354 -0.4009  0.3916
 2825TIP3    H129890   5.802   1.198  13.588 -2.1008 -0.9504  1.4849
 2825TIP3    H229891   5.746   1.332  13.631  2.1587  1.5357 -0.0474
 2826TIP3   OH229892   5.625   1.020   3.821 -0.0836 -0.1889  0.7364
 2826TIP3    H129893   5.708   1.010   3.868 -0.2000 -1.5005  0.7164
 2826TIP3    H229894   5.560   1.027   3.891 -0.2279 -1.8771  0.8141
 2827TIP3   OH229895   4.713   3.996  10.658 -0.3283  0.5706  0.5775
 2827TIP3    H129896   4.689   3.972  10.569  0.0736  1.5010  0.2012
 2827TIP3    H229897   4.652   3.947  10.714 -2.2421  1.8306 -0.2908
 2828TIP3   OH229898   5.210   5.213  15.950  0.0368 -0.3589  0.3031
 2828TIP3    H129899   5.303   5.232  15.933  0.2271 -0.2513  1.3775
 2828TIP3    H229900   5.207   5.194  16.044 -1.2511  0.9585  0.5490
 2829TIP3   OH229901   2.463   2.340   3.937 -0.0435 -0.1955 -0.0101
 2829TIP3    H129902   2.368   2.343   3.949 -0.3382  1.1583 -2.1648
 2829TIP3    H229903   2.484   2.419   3.887  2.1146 -0.8829 -0.3118
 2830TIP3   OH229904   3.552   1.520  12.826  0.3909  0.1271  0.6597
 2830TIP3    H129905   3.518   1.492  12.741 -2.4083 -0.6806  1.9416
 2830TIP3    H229906   3.636   1.474  12.834  0.3486 -0.3899 -1.3151
 2831TIP3   OH229907   0.423   3.930  14.069  0.3230  0.4951  0.2371
 2831TIP3    H129908   0.330   3.910  14.070  0.6077 -0.8752  0.6419
 2831TIP3    H229909   0.431   4.012  14.118 -0.7768  1.2149 -0.7310
 2832TIP3   OH229910   5.584   0.949  13.295  0.1000  0.3929  0.1055
 2832TIP3    H129911   5.575   0.885  13.225  0.0646 -0.7569  1.1346
 2832TIP3    H229912   5.496   0.985  13.307 -0.2605 -0.6285  0.6654
 2833TIP3   OH229913   5.277   2.605   1.628  0.4674  0.1655  0.0911
 2833TIP3    H129914   5.313   2.632   1.713 -0.5890  2.4076 -0.0989
 2833TIP3    H229915   5.290   2.510   1.625 -0.7280 -0.2255  3.3920
 2834TIP3   OH229916   3.603   1.852  10.819 -0.6668 -0.2347 -0.7875
 2834TIP3    H129917   3.600   1.947  10.829  0.5807 -0.2241 -0.3923
 2834TIP3    H229918   3.535   1.833  10.754 -1.8764  0.7633  0.1438
 2835TIP3   OH229919   0.867   5.257   6.249  0.4414 -0.3791  0.7539
 2835TIP3    H129920   0.772   5.268   6.259  0.3102 -0.9302  0.1921
 2835TIP3    H229921   0.893   5.326   6.188  0.1764 -1.0293 -0.1193
 2836TIP3   OH229922   1.029   3.576   3.328 -0.0113 -0.3984 -0.5616
 2836TIP3    H129923   0.957   3.638   3.317  0.7794  0.3885 -1.4906
 2836TIP3    H229924   1.015   3.537   3.414 -0.3934  1.2657  0.1614
 2837TIP3   OH229925   0.358   6.295   2.542 -0.0185  0.0136 -0.3448
 2837TIP3    H129926   0.428   6.283   2.478 -0.4325  0.9827 -1.0084
 2837TIP3    H229927   0.301   6.361   2.503 -0.2672  0.6673  1.0455
 2838TIP3   OH229928   5.625   0.364  11.643  0.0867 -0.0347 -0.0374
 2838TIP3    H129929   5.674   0.286  11.619  0.3863  0.7012 -1.9339
 2838TIP3    H229930   5.686   0.414  11.698  1.2754  0.5399 -1.7906
 2839TIP3   OH229931   5.704   1.385  15.428  0.0001  0.2309  0.1732
 2839TIP3    H129932   5.639   1.452  15.450 -0.3745  0.4782 -1.5366
 2839TIP3    H229933   5.687   1.314  15.489 -2.1933  0.0995 -0.4952
 2840TIP3   OH229934   0.031   3.987  16.114 -0.0745  0.3599 -0.3976
 2840TIP3    H129935  -0.064   3.991  16.128  0.1437  1.8331  0.9477
 2840TIP3    H229936   0.041   3.981  16.019 -1.5072  1.4929 -0.6617
 2841TIP3   OH229937   3.911   3.020   0.989  0.9428 -0.4750  0.1325
 2841TIP3    H129938   3.816   3.026   0.983  1.0485  2.3858  0.2231
 2841TIP3    H229939   3.928   3.003   1.082  0.5377  0.6613  0.4297
 2842TIP3   OH229940   2.244   3.107   1.617  0.0308 -0.2439 -0.8623
 2842TIP3    H129941   2.160   3.150   1.632  1.0187  1.7306 -0.6453
 2842TIP3    H229942   2.308   3.178   1.619  1.5102 -1.4058 -3.1215
 2843TIP3   OH229943   1.860   2.398   0.110  0.1922 -0.1839 -0.5430
 2843TIP3    H129944   1.955   2.389   0.115  0.1737  0.1571  0.6471
 2843TIP3    H229945   1.845   2.493   0.106 -0.1196 -0.2109 -0.0669
 2844TIP3   OH229946   1.840   3.708  16.878 -0.2395 -0.2396  0.6270
 2844TIP3    H129947   1.850   3.685  16.970  0.2969  1.4349  1.0110
 2844TIP3    H229948   1.875   3.633  16.831  3.8855  0.6917  1.8261
 2845TIP3   OH229949   1.353   6.353  13.638 -0.3563  0.3851 -0.5161
 2845TIP3    H129950   1.310   6.333  13.721 -1.5702  0.6842 -1.0528
 2845TIP3    H229951   1.385   6.268  13.606 -0.9642  0.0785 -0.3241
 2846TIP3   OH229952   5.423   6.322  15.519  0.2349 -0.2708  0.0765
 2846TIP3    H129953   5.485   6.375  15.570  2.6064 -1.8620 -0.9796
 2846TIP3    H229954   5.421   6.364  15.433  0.7452 -0.8539 -0.2277
 2847TIP3   OH229955   3.784   2.223   1.399  0.1619  0.0422 -0.0888
 2847TIP3    H129956   3.839   2.169   1.456  2.4664 -0.7371 -2.8595
 2847TIP3    H229957   3.707   2.168   1.383  1.5021 -1.6233 -1.1588
 2848TIP3   OH229958   2.504   5.562   1.722  0.7499 -0.3035 -0.1529
 2848TIP3    H129959   2.413   5.591   1.722  1.5828  2.5785 -0.7618
 2848TIP3    H229960   2.501   5.471   1.690 -2.0752 -1.1263  2.1133
 2849TIP3   OH229961   0.285   0.608  13.730 -0.2625  0.2473 -0.1297
 2849TIP3    H129962   0.325   0.521  13.742  1.6201  1.0461 -0.1775
 2849TIP3    H229963   0.272   0.640  13.819 -0.4274  0.1517 -0.1178
 2850TIP3   OH229964   1.067   0.039  12.917  0.0064  0.2025  0.4124
 2850TIP3    H129965   1.064  -0.043  12.966  0.8931  0.4127  0.8487
 2850TIP3    H229966   1.040   0.016  12.828  2.0187 -0.9588  0.0417
 2851TIP3   OH229967   2.259   1.493  11.982  0.0252 -0.6169 -0.0308
 2851TIP3    H129968   2.174   1.451  11.991 -1.0123  1.1375 -1.1716
 2851TIP3    H229969   2.255   1.568  12.041  0.7662 -0.4463 -0.1874
 2852TIP3   OH229970   4.645   5.533  11.419  0.7235 -0.0916 -0.0472
 2852TIP3    H129971   4.660   5.445  11.384 -1.3331  0.0860 -1.5700
 2852TIP3    H229972   4.576   5.522  11.484  0.0938  0.4323 -0.6087
 2853TIP3   OH229973   1.388   4.818  16.235  0.0844  0.5433 -0.2893
 2853TIP3    H129974   1.420   4.905  16.262  0.2453  0.5744 -0.5727
 2853TIP3    H229975   1.447   4.757  16.279  0.5515  0.6009 -0.8147
 2854TIP3   OH229976   4.410   0.422  17.015  0.0386  0.3955 -0.6910
 2854TIP3    H129977   4.482   0.435  17.077 -0.5506  0.2909  0.0313
 2854TIP3    H229978   4.433   0.343  16.968 -0.5344 -0.7743  0.9034
 2855TIP3   OH229979   2.431   4.153  13.398 -0.3446  0.2762 -0.1512
 2855TIP3    H129980   2.424   4.188  13.487 -1.6199 -1.7266  0.6026
 2855TIP3    H229981   2.457   4.062  13.410  0.4662  0.2372 -1.9028
 2856TIP3   OH229982   6.653   4.295  13.054  0.1814  0.1592  0.0335
 2856TIP3    H129983   6.602   4.305  12.974  1.2852  1.4137 -0.5539
 2856TIP3    H229984   6.607   4.349  13.119  0.9633  1.6474 -0.6121
 2857TIP3   OH229985   1.296   5.327  12.444  0.0761  0.6155 -0.0060
 2857TIP3    H129986   1.237   5.400  12.424  0.0194  0.5244 -0.1761
 2857TIP3    H229987   1.252   5.250  12.409  0.0470  0.4706  0.3445
 2858TIP3   OH229988   0.937   1.215   4.395 -0.3023  0.1711 -0.0962
 2858TIP3    H129989   1.009   1.169   4.352 -1.0348 -1.1988  0.0807
 2858TIP3    H229990   0.858   1.175   4.359 -0.9750 -1.8555  3.2189
 2859TIP3   OH229991   5.298   6.714  15.359 -0.7779  0.4729  0.2289
 2859TIP3    H129992   5.349   6.656  15.415 -2.3090 -1.0196  0.1372
 2859TIP3    H229993   5.361   6.782  15.333  0.8150 -0.5765  1.1202
 2860TIP3   OH229994   4.161   4.738  12.794  0.1098 -0.1878  0.1941
 2860TIP3    H129995   4.201   4.700  12.872  0.6485 -0.5633 -0.2501
 2860TIP3    H229996   4.228   4.729  12.726 -0.6147 -0.5518 -0.4923
 2861TIP3   OH229997   3.293   2.878   1.108 -0.4572 -0.0937  0.5722
 2861TIP3    H129998   3.264   2.958   1.064  0.8843  0.5611  0.8394
 2861TIP3    H229999   3.327   2.823   1.038  2.1734  1.1624  0.7365
 2862TIP3   OH230000   4.979   6.106   0.372 -0.3711  0.9735  0.2723
 2862TIP3    H130001   4.954   6.130   0.461 -0.7322 -0.8876  0.7143
 2862TIP3    H230002   4.907   6.050   0.342  1.5261 -1.6036  0.2674
 2863TIP3   OH230003   5.403   0.985  16.383 -0.3594 -0.3087 -0.3999
 2863TIP3    H130004   5.364   1.055  16.434 -1.3732 -1.4743  0.4840
 2863TIP3    H230005   5.443   1.029  16.308 -1.4842  1.1482 -0.1844
 2864TIP3   OH230006   0.848   5.238  14.091 -0.6826 -0.2071 -0.1060
 2864TIP3    H130007   0.803   5.165  14.049  0.4990 -0.6219 -0.6858
 2864TIP3    H230008   0.861   5.209  14.182 -0.6795 -0.5108 -0.2032
 2865TIP3   OH230009   5.519   4.581   4.218 -0.0991 -0.0973  0.2817
 2865TIP3    H130010   5.545   4.521   4.288  0.3678  0.2670  0.4238
 2865TIP3    H230011   5.565   4.663   4.238 -0.3703  0.1692 -0.1645
 2866TIP3   OH230012   1.983   5.030   0.712 -0.5321 -0.3240  0.2784
 2866TIP3    H130013   1.906   5.008   0.764  0.8148 -1.4465  1.8915
 2866TIP3    H230014   1.980   5.125   0.704 -0.9166 -0.1309  2.2520
 2867TIP3   OH230015   0.111   5.136  14.579  0.2652  0.0969  0.1501
 2867TIP3    H130016   0.076   5.052  14.548  0.3927  0.6642 -1.6420
 2867TIP3    H230017   0.199   5.141  14.540 -0.3751  1.7848 -1.1889
 2868TIP3   OH230018   4.376   2.584   5.491 -0.2807 -0.2307 -0.2365
 2868TIP3    H130019   4.446   2.559   5.430 -0.8032 -0.5659 -0.7140
 2868TIP3    H230020   4.311   2.514   5.481 -0.3702 -0.2899  0.7190
 2869TIP3   OH230021   2.682   2.082  13.155  0.0960 -0.1096 -0.4682
 2869TIP3    H130022   2.747   2.141  13.194 -0.1989  0.9162 -1.4759
 2869TIP3    H230023   2.615   2.141  13.119 -0.3541 -1.0776 -1.2561
 2870TIP3   OH230024   5.004   1.176  15.289  0.4851  0.4497  0.2721
 2870TIP3    H130025   4.955   1.099  15.321  0.2873  0.5330  0.1699
 2870TIP3    H230026   5.079   1.139  15.242  1.0656  0.3214  1.2632
 2871TIP3   OH230027   5.425   5.830  11.563 -0.0174  0.4664  0.0463
 2871TIP3    H130028   5.358   5.856  11.627  0.7261  0.8934  0.6726
 2871TIP3    H230029   5.400   5.875  11.482 -1.3176 -0.5717 -0.1590
 2872TIP3   OH230030   3.667   3.497   1.506  0.1914  0.4185 -0.1735
 2872TIP3    H130031   3.704   3.409   1.516 -0.8614  0.1995  2.4796
 2872TIP3    H230032   3.611   3.490   1.428  1.2915 -0.7960 -0.9031
 2873TIP3   OH230033   2.332   0.748   1.538  0.1189 -0.5237  0.3267
 2873TIP3    H130034   2.255   0.731   1.592 -0.9108 -2.3313 -1.5441
 2873TIP3    H230035   2.330   0.679   1.471  2.1255  0.7077 -1.1317
 2874TIP3   OH230036   1.295   1.860  13.301 -0.4589 -0.4108  0.4364
 2874TIP3    H130037   1.332   1.795  13.241 -0.8050  0.3803 -0.6677
 2874TIP3    H230038   1.300   1.819  13.387  1.0695 -1.1457  0.0262
 2875TIP3   OH230039   3.666   0.891  13.468  0.0571  0.1662 -0.3712
 2875TIP3    H130040   3.727   0.817  13.479  1.5343  1.1418 -1.5129
 2875TIP3    H230041   3.714   0.966  13.505 -1.3415  0.6128  0.5994
 2876TIP3   OH230042   0.093   5.676  16.952 -0.1675 -0.4449  0.3145
 2876TIP3    H130043   0.050   5.740  17.009  0.6222 -0.9087  1.4681
 2876TIP3    H230044   0.097   5.596  17.004  0.3501 -0.9679 -0.4979
 2877TIP3   OH230045   2.199   0.867   2.149  0.8574  0.5473  0.1754
 2877TIP3    H130046   2.181   0.943   2.205 -1.3271  1.6448 -1.8381
 2877TIP3    H230047   2.232   0.905   2.067 -0.4100 -0.6111 -0.9185
 2878TIP3   OH230048   2.515   2.768  11.365  0.1202  0.4772  0.3897
 2878TIP3    H130049   2.545   2.772  11.274  1.2229  2.8980  0.7913
 2878TIP3    H230050   2.441   2.707  11.363  1.9171 -1.8487 -1.5506
 2879TIP3   OH230051   0.969   4.929   3.065 -0.3755 -0.3302  0.1971
 2879TIP3    H130052   1.002   4.841   3.051 -0.6453 -0.2882 -0.7687
 2879TIP3    H230053   0.946   4.932   3.158 -0.4969 -1.3196  0.2022
 2880TIP3   OH230054   2.556   1.863  13.836  0.1481  0.0152  0.1924
 2880TIP3    H130055   2.481   1.899  13.788 -1.5621 -1.3591  1.6913
 2880TIP3    H230056   2.592   1.796  13.778 -0.1181  0.3111 -0.3208
 2881TIP3   OH230057   4.099   0.517   5.604  0.7984  0.1285 -0.5729
 2881TIP3    H130058   4.074   0.426   5.617  1.4506  0.0198 -0.0495
 2881TIP3    H230059   4.121   0.550   5.691 -1.1053  1.3134 -0.4827
 2882TIP3   OH230060   6.150   2.787   2.405 -0.0279  0.2958 -0.3100
 2882TIP3    H130061   6.153   2.692   2.414 -1.3372  0.3794  1.6491
 2882TIP3    H230062   6.191   2.820   2.485  0.2786  1.3838 -0.9019
 2883TIP3   OH230063   3.242   1.682   1.878  0.3432  0.1359 -0.0425
 2883TIP3    H130064   3.285   1.749   1.826 -0.4444  0.1747 -0.6603
 2883TIP3    H230065   3.310   1.615   1.891  0.8470  0.6007 -0.2318
 2884TIP3   OH230066   5.680   6.685  11.085  0.4854 -0.6966 -0.4685
 2884TIP3    H130067   5.761   6.676  11.036  1.1912  0.0044  0.5300
 2884TIP3    H230068   5.660   6.778  11.082  2.9174  0.2933  4.0618
 2885TIP3   OH230069   4.980   1.103  13.973 -0.7263  0.0751  0.2500
 2885TIP3    H130070   4.970   1.080  14.065 -0.9775 -1.7984 -0.1994
 2885TIP3    H230071   4.895   1.139  13.948 -0.0467  2.5478  1.1935
 2886TIP3   OH230072   6.660   4.518  12.712 -0.2562 -0.1027 -0.1467
 2886TIP3    H130073   6.645   4.578  12.639 -0.8473  2.9976  2.3000
 2886TIP3    H230074   6.623   4.563  12.788 -2.6794 -4.5057  1.7037
 2887TIP3   OH230075   5.960   4.012   0.380 -0.1328 -0.1324  0.2451
 2887TIP3    H130076   5.944   3.921   0.406  0.6903 -0.4763 -0.3960
 2887TIP3    H230077   5.917   4.022   0.296 -1.1919  0.4247  0.8337
 2888TIP3   OH230078   2.472   4.812   0.674 -0.4305 -0.7850 -0.2750
 2888TIP3    H130079   2.494   4.894   0.628 -0.9805 -0.4809 -0.0021
 2888TIP3    H230080   2.443   4.841   0.760  0.4298 -1.3436  0.2093
 2889TIP3   OH230081   0.927   2.165  15.391 -1.0978  0.1266  0.0374
 2889TIP3    H130082   0.866   2.093  15.374 -0.9526 -0.0624  0.3102
 2889TIP3    H230083   0.875   2.229  15.441 -1.2763  0.2953 -0.3525
 2890TIP3   OH230084   3.386   1.887   5.106 -0.7312  0.3399  0.3308
 2890TIP3    H130085   3.387   1.838   5.189 -0.1714  0.0745  0.1737
 2890TIP3    H230086   3.339   1.830   5.046 -0.8639  0.3939  0.3826
 2891TIP3   OH230087   3.566   1.671  16.915 -0.1207 -0.3601  0.3552
 2891TIP3    H130088   3.494   1.645  16.858 -1.5686  1.3374  1.2686
 2891TIP3    H230089   3.556   1.766  16.924  1.8614 -0.1604  1.0538
 2892TIP3   OH230090   5.736   2.524  16.158 -0.3225  1.0596 -0.1389
 2892TIP3    H130091   5.684   2.489  16.232 -0.4025  1.6875  0.1043
 2892TIP3    H230092   5.680   2.511  16.082 -0.7985  1.6194  0.1068
 2893TIP3   OH230093   3.396   1.568   1.559  0.2084  0.0208  0.0910
 2893TIP3    H130094   3.389   1.500   1.625 -0.8264 -0.7604 -0.7806
 2893TIP3    H230095   3.417   1.648   1.607 -1.3760 -0.3470  1.4493
 2894TIP3   OH230096   6.692   6.055   4.288 -0.2692  0.3950  0.2220
 2894TIP3    H130097   6.643   5.973   4.277 -1.7617  1.0881  1.3347
 2894TIP3    H230098   6.779   6.027   4.315 -1.0231 -0.8372  1.5449
 2895TIP3   OH230099   5.203   0.559   6.161  0.6843 -0.5112  0.0459
 2895TIP3    H130100   5.109   0.547   6.175  0.6248  0.0050  0.1046
 2895TIP3    H230101   5.241   0.557   6.249  0.8977 -2.0213 -0.0547
 2896TIP3   OH230102   6.602   4.608  10.977 -0.4039 -0.5950 -0.9623
 2896TIP3    H130103   6.578   4.663  10.902  0.7497  0.7353 -0.3974
 2896TIP3    H230104   6.651   4.535  10.939  1.5914  0.9078 -1.4173
 2897TIP3   OH230105   4.289   4.462   4.166 -0.0052 -0.8167 -0.0256
 2897TIP3    H130106   4.263   4.505   4.248 -1.0496 -2.1295  0.3594
 2897TIP3    H230107   4.349   4.392   4.194 -1.6387 -2.3409 -0.1597
 2898TIP3   OH230108   4.408   2.059   0.102  0.2864  0.0521 -0.2519
 2898TIP3    H130109   4.439   2.000   0.170  0.6391 -0.9984 -1.2856
 2898TIP3    H230110   4.459   2.036   0.025  3.3924  4.3844  0.1574
 2899TIP3   OH230111   1.635   3.917  11.164  0.4254  1.1223 -0.6140
 2899TIP3    H130112   1.629   3.990  11.102 -1.0117  0.3720 -1.3930
 2899TIP3    H230113   1.687   3.851  11.118 -1.3048  0.2498 -1.3840
 2900TIP3   OH230114   0.065   0.831  13.225 -0.2731  0.5712 -0.6536
 2900TIP3    H130115   0.155   0.803  13.242 -0.2992  0.5981 -0.4646
 2900TIP3    H230116   0.053   0.907  13.281 -0.5149  0.3781 -0.4409
 2901TIP3   OH230117   4.214   5.065  16.246 -0.4532  0.6652 -0.3761
 2901TIP3    H130118   4.306   5.091  16.245 -0.6799  1.5703  0.7461
 2901TIP3    H230119   4.187   5.075  16.337 -0.9593 -2.1710 -0.1132
 2902TIP3   OH230120   1.061   1.973   5.505 -0.2777 -0.1940  0.2438
 2902TIP3    H130121   1.145   1.963   5.462  0.2333 -2.1982  1.5615
 2902TIP3    H230122   1.010   1.896   5.478 -1.7322  1.0015 -0.5694
 2903TIP3   OH230123   4.482   4.511  17.239  0.1834 -0.1417 -0.2471
 2903TIP3    H130124   4.444   4.456  17.171 -0.7791  1.0790 -0.7320
 2903TIP3    H230125   4.560   4.463  17.267 -0.3163 -1.4786 -1.0175
 2904TIP3   OH230126   2.970   2.675   5.278 -0.1730  0.5911  0.0023
 2904TIP3    H130127   2.891   2.711   5.237 -0.7889 -1.0104 -0.2741
 2904TIP3    H230128   2.938   2.620   5.349  0.4328 -2.4919 -1.9254
 2905TIP3   OH230129   0.457   1.440   4.258 -0.3721 -0.2498  0.4474
 2905TIP3    H130130   0.539   1.479   4.289 -1.1126  0.7418  1.2353
 2905TIP3    H230131   0.425   1.503   4.193 -1.9908  0.9693  2.3227
 2906TIP3   OH230132   6.565   2.780  12.966 -0.0479 -0.0336  0.6631
 2906TIP3    H130133   6.479   2.819  12.985 -0.4950 -0.8997  0.5186
 2906TIP3    H230134   6.565   2.766  12.872 -0.8711 -2.4309  0.9266
 2907TIP3   OH230135   6.564   1.211   4.928 -0.2079 -0.3282 -0.0848
 2907TIP3    H130136   6.470   1.212   4.944  0.1476 -1.8068  2.7253
 2907TIP3    H230137   6.583   1.122   4.900  0.5426 -0.6207  1.2516
 2908TIP3   OH230138   1.905   2.000   4.539 -0.0377 -0.8911 -0.3256
 2908TIP3    H130139   1.980   2.040   4.494  0.4527 -1.2310  0.1829
 2908TIP3    H230140   1.944   1.943   4.605 -0.7166 -2.2811 -1.0737
 2909TIP3   OH230141   5.690   3.547   3.675  0.2346  1.0125  0.2523
 2909TIP3    H130142   5.769   3.498   3.698  0.4435  1.0183 -0.4212
 2909TIP3    H230143   5.675   3.524   3.583 -0.8299  0.6302  0.5119
 2910TIP3   OH230144   0.872   2.540   3.168 -0.7552  0.1607  0.2795
 2910TIP3    H130145   0.873   2.603   3.240  0.6040  0.2138  0.2406
 2910TIP3    H230146   0.889   2.456   3.209  1.2125  0.3388 -0.0587
 2911TIP3   OH230147   5.085   0.144   4.598 -0.2452  0.1985 -0.5873
 2911TIP3    H130148   5.028   0.221   4.603  0.5659  0.9954 -2.5395
 2911TIP3    H230149   5.074   0.111   4.509  0.8555 -0.8159 -0.3838
 2912TIP3   OH230150   4.018   3.909  14.706  0.2537  0.0667  0.2230
 2912TIP3    H130151   4.066   3.840  14.661  0.3729 -0.1398  0.6687
 2912TIP3    H230152   4.029   3.986  14.650  1.3374  0.0994  0.4601
 2913TIP3   OH230153   6.405   1.272  11.830 -0.0937  0.3257 -0.0445
 2913TIP3    H130154   6.430   1.263  11.922  0.3271 -0.7591 -0.2516
 2913TIP3    H230155   6.402   1.183  11.797 -1.5337  0.6095 -0.7612
 2914TIP3   OH230156   5.978   5.695   0.778  0.6141  0.0512 -0.0127
 2914TIP3    H130157   6.044   5.757   0.748 -1.6160  1.8439 -1.5606
 2914TIP3    H230158   5.991   5.618   0.721  1.7830  0.0692  0.1975
 2915TIP3   OH230159   4.944   0.088  14.387  0.4027  0.4417 -0.3204
 2915TIP3    H130160   4.875   0.121  14.330  0.5444 -0.0058 -0.7543
 2915TIP3    H230161   5.017   0.070  14.329  0.8346  0.7581  0.1143
 2916TIP3   OH230162   6.014   2.606  10.293  0.3430 -0.1650 -0.0500
 2916TIP3    H130163   6.085   2.666  10.319 -0.5050  1.3742 -1.0883
 2916TIP3    H230164   5.988   2.563  10.374  2.5813 -0.9197  0.3236
 2917TIP3   OH230165   1.995   4.963  15.342 -0.1084 -0.1234 -0.1659
 2917TIP3    H130166   1.985   4.875  15.306 -0.2208 -0.5371  0.8381
 2917TIP3    H230167   2.065   4.954  15.408 -1.1095  0.1938  0.9833
 2918TIP3   OH230168   1.652   5.491   0.442  0.4938 -0.5421  0.0399
 2918TIP3    H130169   1.632   5.546   0.366 -0.8667  0.5501  1.1286
 2918TIP3    H230170   1.618   5.541   0.517 -0.2757 -2.6109  1.1373
 2919TIP3   OH230171   1.330   5.366  16.353  0.1208  0.0952 -0.1104
 2919TIP3    H130172   1.350   5.364  16.259  2.0085 -0.7972  0.2587
 2919TIP3    H230173   1.306   5.457  16.370  3.7446  1.3625 -0.7758
 2920TIP3   OH230174   2.883   0.266  16.066 -0.5748  0.9473 -0.6387
 2920TIP3    H130175   2.817   0.292  16.001 -0.1719  0.1614 -1.3860
 2920TIP3    H230176   2.951   0.224  16.014 -0.8089 -0.8223  0.4156
 2921TIP3   OH230177   3.520   5.593   3.665  0.4291 -0.4731 -0.0661
 2921TIP3    H130178   3.514   5.555   3.577  0.2819 -0.0750 -0.2313
 2921TIP3    H230179   3.456   5.664   3.665  2.0002  1.0436 -0.4227
 2922TIP3   OH230180   4.905   1.795   2.826  0.2502 -0.1096 -0.2956
 2922TIP3    H130181   4.871   1.719   2.873 -0.9533  0.2073 -0.6248
 2922TIP3    H230182   4.953   1.844   2.892 -1.3371  0.2805  0.6122
 2923TIP3   OH230183   1.876   0.617  16.780  0.1689 -0.1961 -0.0144
 2923TIP3    H130184   1.926   0.661  16.849  0.6994  0.0410 -0.5394
 2923TIP3    H230185   1.787   0.649  16.791  0.5166  0.8883 -0.2822
 2924TIP3   OH230186   2.118   3.322  11.348 -0.2135  0.0489 -0.6743
 2924TIP3    H130187   2.050   3.340  11.283  1.1226  0.2071 -2.1042
 2924TIP3    H230188   2.105   3.231  11.372  0.8242 -0.8579 -3.2039
 2925TIP3   OH230189   2.076   5.499   2.896 -0.4743  0.0498  0.2072
 2925TIP3    H130190   2.021   5.555   2.951 -0.4058  1.3056 -0.9531
 2925TIP3    H230191   2.020   5.476   2.822 -0.0082 -0.1321 -0.0915
 2926TIP3   OH230192   5.324   2.027  15.876  0.2520  0.1152 -0.1764
 2926TIP3    H130193   5.239   2.063  15.851  0.6387  0.1523 -1.4904
 2926TIP3    H230194   5.383   2.051  15.804  1.1321 -0.8260  0.2044
 2927TIP3   OH230195   1.958   0.467  14.092  0.6999 -0.5146 -0.1400
 2927TIP3    H130196   1.970   0.374  14.074 -1.1002 -0.6469 -0.9975
 2927TIP3    H230197   1.996   0.512  14.016  0.5261 -0.6288 -0.2955
 2928TIP3   OH230198   4.637   1.650   3.712  0.0474  0.1209  0.1365
 2928TIP3    H130199   4.672   1.665   3.624 -0.6370 -1.5770 -0.4637
 2928TIP3    H230200   4.605   1.735   3.740  1.9975  1.1162 -0.4505
 2929TIP3   OH230201   2.258   5.385   3.039  0.2293  0.0753 -0.1739
 2929TIP3    H130202   2.174   5.422   3.013  0.0766 -0.0681  0.1080
 2929TIP3    H230203   2.282   5.328   2.966 -0.3495 -0.5704  0.1232
 2930TIP3   OH230204   2.067   4.673   0.363 -0.4225  0.3486  0.2723
 2930TIP3    H130205   2.161   4.662   0.356 -0.1084  1.3006  2.2930
 2930TIP3    H230206   2.053   4.706   0.452 -2.5192  1.6257 -0.4518
 2931TIP3   OH230207   4.814   2.034  11.377 -0.0872 -0.9074 -0.3125
 2931TIP3    H130208   4.736   2.015  11.430 -0.2660 -1.8158 -0.8628
 2931TIP3    H230209   4.804   1.977  11.301  0.8229 -0.5822 -0.6818
 2932TIP3   OH230210   5.473   0.946  12.339  0.0217 -0.2510  0.2244
 2932TIP3    H130211   5.476   0.912  12.428  0.3401  1.3875  0.8655
 2932TIP3    H230212   5.464   1.041  12.349 -1.1514 -0.1329 -1.4981
 2933TIP3   OH230213   4.123   3.310   5.167 -0.1548 -0.2988 -0.0717
 2933TIP3    H130214   4.132   3.218   5.143 -1.0812 -0.1702 -1.0273
 2933TIP3    H230215   4.049   3.341   5.114  0.6831  1.2167 -0.4103
 2934TIP3   OH230216   4.243   5.110   2.035  0.0100  0.3808 -0.1661
 2934TIP3    H130217   4.178   5.045   2.062 -0.5977  0.7444 -0.7406
 2934TIP3    H230218   4.323   5.059   2.020  0.1664  0.0605  1.5547
 2935TIP3   OH230219   1.240   0.303   4.027 -0.3529 -0.2540 -0.3269
 2935TIP3    H130220   1.210   0.374   4.084 -2.0291 -0.2836 -1.1186
 2935TIP3    H230221   1.232   0.339   3.938 -1.9249 -1.6295 -0.7848
 2936TIP3   OH230222   0.037   1.673   5.164 -0.6707 -0.1626  0.4052
 2936TIP3    H130223   0.068   1.746   5.111  0.9108 -1.3917 -0.4552
 2936TIP3    H230224   0.030   1.600   5.102 -0.0171 -1.3085  1.6415
 2937TIP3   OH230225   5.697   4.042   2.877 -0.4236 -0.0573  0.3230
 2937TIP3    H130226   5.605   4.013   2.875 -0.2394 -0.7501 -3.0999
 2937TIP3    H230227   5.695   4.129   2.838  0.2909  0.3649  1.1982
 2938TIP3   OH230228   5.752   2.204   0.256 -0.2906  0.2596  0.0296
 2938TIP3    H130229   5.832   2.216   0.205 -0.8846 -0.9742 -1.2393
 2938TIP3    H230230   5.778   2.226   0.346  1.1913  0.8710 -0.5130
 2939TIP3   OH230231   1.254   5.365  14.484 -0.4112 -0.2644 -0.2084
 2939TIP3    H130232   1.249   5.297  14.550  0.2979  0.4793  0.6412
 2939TIP3    H230233   1.336   5.347  14.437 -0.2678 -0.0554 -0.0411
 2940TIP3   OH230234   0.507   0.290  10.932 -0.0683 -0.5240  1.0194
 2940TIP3    H130235   0.598   0.290  10.905 -0.1697  1.9409  0.4502
 2940TIP3    H230236   0.458   0.270  10.852 -0.0702 -1.2843  1.2028
 2941TIP3   OH230237   5.247   2.341   5.591  0.6152 -0.4568  0.4530
 2941TIP3    H130238   5.253   2.422   5.540  0.7449  1.4644  3.2699
 2941TIP3    H230239   5.154   2.317   5.586  0.2394  0.8114  0.8322
 2942TIP3   OH230240   5.775   4.701   3.323 -1.1981  0.4012  0.1190
 2942TIP3    H130241   5.758   4.631   3.387  0.9498  0.3927  0.7602
 2942TIP3    H230242   5.747   4.664   3.239 -2.5011 -0.2243  0.7929
 2943TIP3   OH230243   0.112   0.505  15.428 -0.0233  0.4387  0.3633
 2943TIP3    H130244   0.034   0.544  15.389  1.3967  1.5701 -1.5186
 2943TIP3    H230245   0.177   0.506  15.358  1.6327 -0.6930  1.7870
 2944TIP3   OH230246   4.076   0.550  17.366 -0.0037 -0.5495 -0.1347
 2944TIP3    H130247   4.019   0.582  17.437 -2.0649  0.1187 -1.9599
 2944TIP3    H230248   4.164   0.549  17.404 -1.0125 -0.1895  2.3954
 2945TIP3   OH230249   0.920   2.039   5.945  0.6240 -0.1538  0.0879
 2945TIP3    H130250   0.994   2.022   5.886 -0.6684  0.4939 -1.8336
 2945TIP3    H230251   0.888   2.125   5.918 -1.4848 -0.8767  0.0766
 2946TIP3   OH230252   2.269   4.476  11.123  0.2655  0.6081 -0.8000
 2946TIP3    H130253   2.333   4.540  11.156 -0.5333  0.3586  1.4471
 2946TIP3    H230254   2.185   4.518  11.137 -0.2430 -0.6650  0.1343
 2947TIP3   OH230255   1.166   3.757   5.306  0.2241 -0.0735  0.1666
 2947TIP3    H130256   1.098   3.768   5.372 -0.9036  0.5190 -1.0492
 2947TIP3    H230257   1.171   3.842   5.262  0.9437 -0.4614 -0.5234
 2948TIP3   OH230258   5.799   2.417  13.462  0.5588 -0.2208  0.5760
 2948TIP3    H130259   5.712   2.455  13.473  0.3502 -0.5167  0.0171
 2948TIP3    H230260   5.783   2.323  13.452  0.8517 -0.1785 -0.4563
 2949TIP3   OH230261   3.058   4.531  10.516 -0.1097  0.1238  0.3755
 2949TIP3    H130262   3.145   4.514  10.480 -0.9314 -0.4695 -1.5155
 2949TIP3    H230263   3.063   4.501  10.607  1.5232 -0.3125  0.1783
 2950TIP3   OH230264   2.880   2.183   0.464 -0.0327  0.1485 -0.2193
 2950TIP3    H130265   2.934   2.113   0.502  0.3459  0.5537 -0.0080
 2950TIP3    H230266   2.923   2.202   0.380 -0.3803 -0.1616 -0.4702
 2951TIP3   OH230267   5.420   3.367   0.898  0.1244 -0.3569 -0.3119
 2951TIP3    H130268   5.412   3.385   0.804 -1.4883 -1.8450 -0.5048
 2951TIP3    H230269   5.404   3.273   0.906  1.0286 -0.3972  1.3930
 2952TIP3   OH230270   4.570   2.948   4.950  0.2571 -0.7211  0.7192
 2952TIP3    H130271   4.578   2.854   4.964  0.0343 -0.5776  1.9131
 2952TIP3    H230272   4.513   2.956   4.874 -0.4543 -1.5565  1.1437
 2953TIP3   OH230273   4.637   5.039  15.384  0.0439 -0.0081  0.3730
 2953TIP3    H130274   4.712   5.065  15.437 -0.0338  0.2193  0.3759
 2953TIP3    H230275   4.564   5.034  15.446 -0.5114  2.2698  0.0159
 2954TIP3   OH230276   1.277   0.771   5.045 -0.4776 -0.1611  0.1243
 2954TIP3    H130277   1.261   0.824   4.967  2.2739  0.0931 -0.3821
 2954TIP3    H230278   1.271   0.681   5.015  0.0335 -0.0688 -0.2663
 2955TIP3   OH230279   1.187   1.971   7.002 -0.6263  0.0377  0.2622
 2955TIP3    H130280   1.282   1.967   6.999 -0.3013  0.8923  4.1638
 2955TIP3    H230281   1.159   1.922   6.925  2.9421 -1.7647 -0.1183
 2956TIP3   OH230282   1.687   3.760  13.185 -1.1630 -0.1685 -0.2685
 2956TIP3    H130283   1.692   3.664  13.191  0.7101 -0.1743 -1.3338
 2956TIP3    H230284   1.759   3.792  13.239 -2.6777  0.7595  1.3292
 2957TIP3   OH230285   2.014   2.380  17.210 -0.2504 -0.4588  0.3862
 2957TIP3    H130286   2.014   2.367  17.305 -0.2525  0.0300  0.4554
 2957TIP3    H230287   1.921   2.385  17.186 -0.2345  0.5617  0.5237
 2958TIP3   OH230288   2.948   0.192  13.723  0.2204 -0.1595  0.0478
 2958TIP3    H130289   3.005   0.240  13.663 -0.4208 -0.3304 -0.7066
 2958TIP3    H230290   2.888   0.144  13.666 -0.3753 -0.3538  0.8246
 2959TIP3   OH230291   0.447   6.056   4.340  0.4660  0.3666  0.3718
 2959TIP3    H130292   0.366   6.009   4.318 -0.1443  0.4933  2.1925
 2959TIP3    H230293   0.426   6.105   4.419  2.5103 -0.1246  1.3033
 2960TIP3   OH230294   6.625   2.869   3.220 -0.2815 -0.0851 -0.0184
 2960TIP3    H130295   6.639   2.776   3.234 -0.6901 -0.2562 -0.7096
 2960TIP3    H230296   6.649   2.910   3.304 -1.7003 -0.9597  0.8485
 2961TIP3   OH230297   5.889   2.758  17.327  0.0541  0.0669 -0.0997
 2961TIP3    H130298   5.864   2.667  17.311  0.7411 -0.1140 -0.1745
 2961TIP3    H230299   5.961   2.774  17.265 -0.1493  0.6979 -0.1737
 2962TIP3   OH230300   1.282   0.474   5.400 -0.3172 -0.5477  0.0804
 2962TIP3    H130301   1.346   0.518   5.345 -0.7390 -1.1042 -0.8790
 2962TIP3    H230302   1.320   0.387   5.416  0.7908  0.2832  2.4494
 2963TIP3   OH230303   2.719   2.861  12.918 -0.2577  0.0506  0.6897
 2963TIP3    H130304   2.701   2.788  12.977 -1.2098 -0.1722  0.1556
 2963TIP3    H230305   2.647   2.922  12.933  0.0892  0.5028  0.5434
 2964TIP3   OH230306   3.592   6.552  15.331  0.0594  0.4623 -0.0830
 2964TIP3    H130307   3.516   6.563  15.389  0.4905 -2.0048  1.0834
 2964TIP3    H230308   3.584   6.462  15.298  1.2665  0.9367 -1.7951
 2965TIP3   OH230309   3.778   3.651   2.514  0.1934  0.1051 -0.0939
 2965TIP3    H130310   3.785   3.729   2.460  3.1880  0.4822  0.6255
 2965TIP3    H230311   3.711   3.597   2.472 -1.6200  2.8085 -0.8673
 2966TIP3   OH230312   5.787   3.785   2.869 -0.7766  0.0858  0.2088
 2966TIP3    H130313   5.733   3.740   2.805  0.6854 -0.6676 -0.5455
 2966TIP3    H230314   5.768   3.878   2.856 -0.1644 -0.0223 -1.6551
 2967TIP3   OH230315   0.196   4.720   3.304 -0.0420  0.1955  0.1719
 2967TIP3    H130316   0.282   4.758   3.288  0.0697  0.1546  0.6491
 2967TIP3    H230317   0.134   4.779   3.262  0.3029 -0.4831 -1.3432
 2968TIP3   OH230318   2.721   0.291   1.465 -0.0670  0.4732 -0.0678
 2968TIP3    H130319   2.694   0.203   1.493 -1.1738  0.9904  0.5618
 2968TIP3    H230320   2.638   0.337   1.449  0.5063  1.1663 -1.1738
 2969TIP3   OH230321   5.972   1.042   2.563 -0.9423  0.6622  0.3240
 2969TIP3    H130322   5.974   1.134   2.590 -0.3459  1.1591 -1.3136
 2969TIP3    H230323   6.025   0.997   2.629 -0.6623  1.6045  0.7620
 2970TIP3   OH230324   4.449   2.298   1.436  0.1044 -0.6024  0.3636
 2970TIP3    H130325   4.539   2.265   1.438 -0.0822 -1.1315  0.2592
 2970TIP3    H230326   4.421   2.287   1.345  0.3300  0.6796  0.1128
 2971TIP3   OH230327   2.643   4.539  13.106  0.2354 -0.9098 -0.2563
 2971TIP3    H130328   2.614   4.465  13.161  0.8242 -0.4446  0.7047
 2971TIP3    H230329   2.580   4.609  13.126 -0.3535 -1.1472 -1.2067
 2972TIP3   OH230330   0.436   2.980  14.239  0.2307 -0.3002 -0.4004
 2972TIP3    H130331   0.515   2.999  14.188  1.2534 -0.2065  1.1480
 2972TIP3    H230332   0.366   2.979  14.174  1.2030  1.5075 -1.5802
 2973TIP3   OH230333   0.261   4.074  12.753 -0.1030  0.2856  0.2607
 2973TIP3    H130334   0.239   4.042  12.841 -0.0014 -1.7007 -0.3902
 2973TIP3    H230335   0.353   4.099  12.758  0.1376 -0.6327  0.5118
 2974TIP3   OH230336   1.107   5.515  12.496 -0.2705  0.0936  0.5591
 2974TIP3    H130337   1.027   5.548  12.456  0.6814  1.6801 -0.1363
 2974TIP3    H230338   1.150   5.593  12.533  0.3487 -0.9009  2.0348
 2975TIP3   OH230339   6.624   4.143   1.258 -0.2368 -1.0650  0.1205
 2975TIP3    H130340   6.629   4.053   1.291 -0.0977 -1.1124 -0.0300
 2975TIP3    H230341   6.567   4.138   1.181 -2.3443 -0.6030  1.5588
 2976TIP3   OH230342   4.843   6.448   3.105 -0.0879 -0.2938 -0.6537
 2976TIP3    H130343   4.928   6.436   3.062 -0.3555  1.7071 -1.8578
 2976TIP3    H230344   4.861   6.511   3.176 -0.7892  1.3967 -1.9079
 2977TIP3   OH230345   0.533   6.509   2.188  0.5639  0.1336 -0.7618
 2977TIP3    H130346   0.580   6.581   2.229  0.1545 -0.1600  0.2422
 2977TIP3    H230347   0.459   6.492   2.245  1.5159 -2.1188 -0.0805
 2978TIP3   OH230348   6.237   2.989   1.069 -0.2445 -0.0798  0.4458
 2978TIP3    H130349   6.306   3.027   1.014 -1.4075  1.1409 -0.2436
 2978TIP3    H230350   6.193   2.926   1.012 -0.6927  0.3184  0.3391
 2979TIP3   OH230351   3.605   5.293  11.047 -0.6910 -0.4501 -0.5082
 2979TIP3    H130352   3.594   5.258  10.959 -1.0605 -0.6015 -0.4022
 2979TIP3    H230353   3.675   5.241  11.085  0.2684  0.3524 -1.0980
 2980TIP3   OH230354   0.567   5.770  13.399  0.1194  0.2206 -0.1398
 2980TIP3    H130355   0.555   5.847  13.454  0.9829 -0.5120  1.1418
 2980TIP3    H230356   0.657   5.742  13.416 -0.2386 -1.1832 -0.4141
 2981TIP3   OH230357   5.180   1.618  14.657  0.4188 -0.1302  0.1536
 2981TIP3    H130358   5.202   1.663  14.575 -0.2978 -2.4273 -1.3966
 2981TIP3    H230359   5.104   1.666  14.691  1.8082  1.9583  0.4958
 2982TIP3   OH230360   1.844   3.642  17.158  0.2123  0.3236 -0.8472
 2982TIP3    H130361   1.895   3.588  17.218  0.4908 -0.6273 -1.8842
 2982TIP3    H230362   1.896   3.721  17.145  1.6038 -0.7278 -2.0663
 2983TIP3   OH230363   3.203   3.818  12.474  0.3140 -0.0265  0.2255
 2983TIP3    H130364   3.126   3.762  12.464  0.2132  0.1415  0.0561
 2983TIP3    H230365   3.274   3.757  12.496 -0.1805 -0.0366  1.9675
 2984TIP3   OH230366   4.199   0.995  13.713  0.2477 -0.2864  0.0093
 2984TIP3    H130367   4.199   0.911  13.667  1.8583  0.7625 -2.1050
 2984TIP3    H230368   4.289   1.005  13.745  0.2673  0.9306 -0.3725
 2985TIP3   OH230369   1.164   2.984  15.385 -0.2530  0.0047 -0.0636
 2985TIP3    H130370   1.077   3.024  15.388 -0.3148 -0.1242 -0.0868
 2985TIP3    H230371   1.149   2.901  15.339 -0.0890  0.0549 -0.2069
 2986TIP3   OH230372   0.054   2.584  11.718  0.3700  0.2133 -0.0675
 2986TIP3    H130373   0.011   2.528  11.653 -1.3824 -0.3247  1.4677
 2986TIP3    H230374   0.006   2.666  11.714  1.8537  1.0888 -1.1197
 2987TIP3   OH230375   1.152   1.932   1.939 -0.0120  0.7503 -0.2287
 2987TIP3    H130376   1.197   1.849   1.926 -0.5560  0.5232 -0.6789
 2987TIP3    H230377   1.203   1.995   1.889  0.2571  0.6482 -0.0898
 2988TIP3   OH230378   2.291   5.858   2.147  0.6010 -0.4240  0.4881
 2988TIP3    H130379   2.344   5.844   2.069  0.0782  0.6389 -0.0791
 2988TIP3    H230380   2.251   5.944   2.134 -3.4626 -2.2148 -0.4265
 2989TIP3   OH230381   4.531   1.848   6.257 -0.4800 -0.0477  0.3330
 2989TIP3    H130382   4.454   1.877   6.306 -0.4910  0.1148  0.2197
 2989TIP3    H230383   4.568   1.777   6.310 -0.3829  0.2560  0.6727
 2990TIP3   OH230384   3.661   2.049  13.577 -0.6262 -0.0672  0.6116
 2990TIP3    H130385   3.734   1.987  13.582 -1.1659 -0.6594  1.3543
 2990TIP3    H230386   3.698   2.126  13.534  0.7260  0.0360  1.8721
 2991TIP3   OH230387   6.502   6.017   2.671  0.1636 -0.3444  0.1701
 2991TIP3    H130388   6.456   5.978   2.597  1.5640 -0.5423 -0.6317
 2991TIP3    H230389   6.581   5.964   2.680  0.7210  0.5851  0.8743
 2992TIP3   OH230390   5.749   5.682   1.739 -0.2117  0.4130 -0.0274
 2992TIP3    H130391   5.672   5.667   1.795  0.9283 -0.3668  1.3866
 2992TIP3    H230392   5.817   5.710   1.799  0.7457  0.6744 -1.2083
 2993TIP3   OH230393   2.422   4.979  16.192  0.6878  0.4428 -0.1754
 2993TIP3    H130394   2.516   4.972  16.207  0.3679 -0.0972  1.8206
 2993TIP3    H230395   2.400   5.069  16.218  0.6178  0.5132 -0.4726
 2994TIP3   OH230396   6.712   0.379   0.751  0.4797  0.2080 -0.0444
 2994TIP3    H130397   6.698   0.323   0.827 -2.0496 -0.6643 -1.0459
 2994TIP3    H230398   6.722   0.318   0.678 -0.0318  1.0498 -0.8363
 2995TIP3   OH230399   6.209   4.768   5.538 -0.5783 -0.6926  0.0512
 2995TIP3    H130400   6.294   4.758   5.496 -0.6235 -0.1614 -0.1756
 2995TIP3    H230401   6.155   4.700   5.498 -0.2878 -0.9653  0.1227
 2996TIP3   OH230402   6.331   1.146  15.285  0.1513 -0.1875  0.6908
 2996TIP3    H130403   6.333   1.052  15.271 -0.6784 -0.2386  0.8312
 2996TIP3    H230404   6.300   1.157  15.375  1.8631  0.2037  1.2785
 2997TIP3   OH230405   3.137   0.771  13.939  0.2593 -0.3089 -0.4023
 2997TIP3    H130406   3.084   0.705  13.894  1.5870 -0.5971 -1.6348
 2997TIP3    H230407   3.171   0.826  13.869 -0.5754  1.5264  0.5863
 2998TIP3   OH230408   5.928   4.784  16.399  0.3245 -0.1694  0.0631
 2998TIP3    H130409   5.896   4.713  16.343  0.8352 -0.6996  0.4244
 2998TIP3    H230410   5.878   4.861  16.372  0.7137 -0.3655 -1.2586
 2999TIP3   OH230411   2.417   2.983   4.916 -0.4878 -0.4910  0.3542
 2999TIP3    H130412   2.323   2.972   4.932 -0.7382 -1.2620 -1.3190
 2999TIP3    H230413   2.422   3.047   4.845  0.1994 -1.0083 -0.0775
 3000TIP3   OH230414   1.263   1.724  13.892 -0.0013  0.3369  0.2366
 3000TIP3    H130415   1.266   1.814  13.926  2.3553  0.4672 -0.1582
 3000TIP3    H230416   1.303   1.730  13.806 -2.9091 -0.5688 -1.2933
 3001TIP3   OH230417   3.309   1.836  13.128  0.2430 -0.3868 -0.1244
 3001TIP3    H130418   3.337   1.898  13.196  1.5507 -1.6197  0.5200
 3001TIP3    H230419   3.312   1.886  13.047  0.8014  0.5366  0.4478
 3002TIP3   OH230420   1.066   5.274   0.988  0.0112 -0.2793  0.0558
 3002TIP3    H130421   0.974   5.296   1.001 -0.0383 -1.1843  1.4096
 3002TIP3    H230422   1.064   5.201   0.926 -0.3879 -1.7971  1.7514
 3003TIP3   OH230423   3.976   0.472  16.774  0.0572 -0.2222  0.5000
 3003TIP3    H130424   4.039   0.415  16.729 -0.8283 -1.7079  1.0513
 3003TIP3    H230425   3.929   0.413  16.833  0.0202  1.3524  2.1407
 3004TIP3   OH230426   5.893   5.746   4.732 -0.4188 -0.7357 -0.3213
 3004TIP3    H130427   5.922   5.659   4.762  0.5167 -0.3117  0.0495
 3004TIP3    H230428   5.974   5.797   4.726 -0.8590 -0.1400 -1.3911
 3005TIP3   OH230429   1.295   1.058   3.461 -0.4917  0.3267  0.2527
 3005TIP3    H130430   1.320   1.100   3.543 -1.2361 -0.4894  0.9128
 3005TIP3    H230431   1.283   1.131   3.399  0.5069  0.9143  0.7281
 3006TIP3   OH230432   5.784   5.040  12.982  0.0074 -0.0720  0.2364
 3006TIP3    H130433   5.872   5.053  12.946 -0.9281  4.8505 -1.1041
 3006TIP3    H230434   5.731   5.016  12.906 -0.4644  1.4129  0.0643
 3007TIP3   OH230435   4.070   0.281   1.783 -1.0010  0.1306 -0.2231
 3007TIP3    H130436   4.107   0.236   1.859 -0.1586  2.0968  0.5825
 3007TIP3    H230437   4.073   0.374   1.805 -0.2814  0.8272 -2.8332
 3008TIP3   OH230438   1.650   4.192   3.175  0.2828  0.3607 -0.2285
 3008TIP3    H130439   1.678   4.166   3.263  2.3285  0.3604 -0.8243
 3008TIP3    H230440   1.619   4.282   3.185 -0.6028 -0.0204  0.6679
 3009TIP3   OH230441   2.032   3.977   3.106  0.0699  0.9436  0.3123
 3009TIP3    H130442   1.968   3.928   3.157 -0.5724 -0.2491 -1.5290
 3009TIP3    H230443   2.028   4.066   3.141 -0.5810  0.2632  2.0577
 3010TIP3   OH230444   6.174   3.782   6.626  0.5186 -0.3494 -0.2062
 3010TIP3    H130445   6.098   3.765   6.682 -0.2949  1.0698 -0.8332
 3010TIP3    H230446   6.235   3.712   6.648 -0.5638 -0.9622  1.0313
 3011TIP3   OH230447   2.687   3.591  11.816 -0.4513  0.0791 -0.2332
 3011TIP3    H130448   2.734   3.632  11.889  0.5337 -0.8278 -0.3323
 3011TIP3    H230449   2.595   3.605  11.836 -0.1637  1.3094  0.3284
 3012TIP3   OH230450   3.094   2.601  11.692 -0.9096 -0.0307 -0.1306
 3012TIP3    H130451   3.161   2.576  11.628  0.8957 -0.6125  1.8434
 3012TIP3    H230452   3.067   2.519  11.733 -1.7243  0.3583  0.1305
 3013TIP3   OH230453   6.653   5.130   2.934 -0.2748  0.2908 -0.3101
 3013TIP3    H130454   6.605   5.076   2.996 -0.3417  0.1694 -0.4650
 3013TIP3    H230455   6.741   5.091   2.932 -0.5452 -0.3198 -1.0205
 3014TIP3   OH230456   5.509   4.355   0.974  0.2335 -0.4658  0.2546
 3014TIP3    H130457   5.509   4.287   1.042  0.6757  0.1559  0.8870
 3014TIP3    H230458   5.416   4.371   0.956  0.1046 -2.4091 -1.1108
 3015TIP3   OH230459   0.705   1.956   1.043 -0.2401 -0.3546  0.3026
 3015TIP3    H130460   0.685   2.006   0.965  2.3747  0.6480  0.1560
 3015TIP3    H230461   0.725   1.868   1.011 -3.3678 -1.2149  0.4044
 3016TIP3   OH230462   3.119   1.684  15.153  0.3585  0.0148  0.0074
 3016TIP3    H130463   3.110   1.757  15.215 -0.6664  0.6322 -0.8323
 3016TIP3    H230464   3.170   1.618  15.201 -1.4474 -0.0615  1.9752
 3017TIP3   OH230465   0.892   1.905   2.649  0.1615  0.3783 -0.2546
 3017TIP3    H130466   0.861   1.992   2.623 -2.2925 -0.0623  0.9508
 3017TIP3    H230467   0.917   1.915   2.741  0.1936 -0.1157 -0.2091
 3018TIP3   OH230468   1.488   2.265  11.584 -0.2776  0.3331 -0.2118
 3018TIP3    H130469   1.522   2.302  11.503  0.8254 -1.2551 -0.5054
 3018TIP3    H230470   1.528   2.318  11.653  2.2570 -1.0067 -0.5781
 3019TIP3   OH230471   3.945   0.416  12.603  0.1772 -0.0930  0.4160
 3019TIP3    H130472   3.860   0.420  12.646 -0.1133  0.3180 -0.1805
 3019TIP3    H230473   3.925   0.424  12.509  0.8644 -0.0932  0.2622
 3020TIP3   OH230474   1.986   3.587  11.218 -0.9303  0.0594 -1.0124
 3020TIP3    H130475   1.924   3.653  11.185 -2.3738 -0.5160  0.4279
 3020TIP3    H230476   1.972   3.511  11.160 -1.4943 -0.0196 -0.7832
 3021TIP3   OH230477   1.871   5.461   2.686 -1.0763 -0.1425  0.6061
 3021TIP3    H130478   1.825   5.544   2.700 -0.2946  0.6937 -1.5093
 3021TIP3    H230479   1.897   5.463   2.594  2.6155 -0.8645  1.4919
 3022TIP3   OH230480   2.001   3.186  12.937  0.3235 -1.0764 -0.1860
 3022TIP3    H130481   2.049   3.250  12.989  2.1752 -1.7942 -0.9249
 3022TIP3    H230482   2.014   3.214  12.846 -1.0313 -1.0729 -0.3998
 3023TIP3   OH230483   4.654   1.920  12.945 -0.0788  0.1315 -0.6160
 3023TIP3    H130484   4.633   1.895  12.855  2.7244 -1.7799 -0.8892
 3023TIP3    H230485   4.729   1.979  12.936  0.9808 -0.9938  0.4160
 3024TIP3   OH230486   5.667   1.375  12.177 -0.1377  0.4823  0.6410
 3024TIP3    H130487   5.650   1.463  12.143  0.4284  0.0807 -0.7485
 3024TIP3    H230488   5.581   1.333  12.179 -0.6172  1.4224  2.5014
 3025TIP3   OH230489   4.382   1.778   3.918  0.1829  0.1183 -0.2110
 3025TIP3    H130490   4.477   1.790   3.919  0.4360 -1.4914  1.6613
 3025TIP3    H230491   4.351   1.833   3.990 -0.1475 -0.3034 -0.0282
 3026TIP3   OH230492   5.533   4.228  14.137  0.2508  0.6423  0.1588
 3026TIP3    H130493   5.463   4.286  14.169 -0.0483  0.6802 -0.5452
 3026TIP3    H230494   5.542   4.250  14.044 -0.2278 -0.8010 -0.2540
 3027TIP3   OH230495   5.257   4.937   0.004  0.2731 -0.2957 -0.0287
 3027TIP3    H130496   5.230   4.863  -0.051  2.1900  0.5248 -2.1999
 3027TIP3    H230497   5.267   4.898   0.091  0.8459 -2.5430 -1.0156
 3028TIP3   OH230498   4.533   0.671  13.994 -0.0948 -0.3410 -0.6898
 3028TIP3    H130499   4.604   0.735  13.997 -0.0068 -0.3889  3.2690
 3028TIP3    H230500   4.576   0.586  13.999 -0.3464 -0.3925  1.0878
 3029TIP3   OH230501   1.923   3.803   4.106 -0.0558  0.4900 -0.0214
 3029TIP3    H130502   1.864   3.763   4.042  0.3532  2.4195 -1.6733
 3029TIP3    H230503   1.870   3.809   4.186 -1.3862  0.2595 -0.8561
 3030TIP3   OH230504   0.117   4.196   6.233 -0.2759 -0.2199 -0.1647
 3030TIP3    H130505   0.113   4.161   6.322 -0.8797  1.6282  0.5860
 3030TIP3    H230506   0.029   4.231   6.218  0.1291  0.4218 -1.0756
 3031TIP3   OH230507   0.893   0.667  13.716 -0.1186 -0.3432 -0.3535
 3031TIP3    H130508   0.933   0.732  13.774  0.3402 -0.6661 -0.2994
 3031TIP3    H230509   0.823   0.628  13.768  1.8513 -2.4199  0.9667
 3032TIP3   OH230510   2.747   1.950  11.943 -0.0495 -0.0447 -0.0257
 3032TIP3    H130511   2.715   2.017  11.882 -1.0951 -0.2296  0.3132
 3032TIP3    H230512   2.810   1.997  11.998 -0.3931  0.5416 -0.1211
 3033TIP3   OH230513   0.855   4.030  10.678 -0.2166 -0.5082 -0.7360
 3033TIP3    H130514   0.797   4.073  10.615 -0.3409  0.2381 -0.1215
 3033TIP3    H230515   0.943   4.044  10.643 -0.2628  0.1736 -0.5920
 3034TIP3   OH230516   0.330   1.985   6.493 -0.0790  0.2689 -0.5077
 3034TIP3    H130517   0.290   1.956   6.574 -0.6571 -0.8603 -1.1686
 3034TIP3    H230518   0.409   2.032   6.520 -0.2089 -0.1835  0.6907
 3035TIP3   OH230519   5.964   2.756   1.398 -0.4967  0.0559  0.5111
 3035TIP3    H130520   5.929   2.817   1.462  1.1354  0.3785  1.1373
 3035TIP3    H230521   5.972   2.673   1.445 -0.1701  0.0577  0.4631
 3036TIP3   OH230522   5.870   3.324  11.834  0.3178 -0.2213  0.4761
 3036TIP3    H130523   5.928   3.400  11.830  1.0020 -0.7529 -0.1338
 3036TIP3    H230524   5.784   3.358  11.809  0.7026  0.2785 -0.2203
 3037TIP3   OH230525   1.601   6.390  11.667  0.3275 -0.4183 -0.1928
 3037TIP3    H130526   1.663   6.457  11.640  1.5340 -0.7679  1.5356
 3037TIP3    H230527   1.646   6.342  11.737 -1.1170 -2.0014 -0.2772
 3038TIP3   OH230528   1.267   4.221  16.895  0.4766  0.0546  0.7657
 3038TIP3    H130529   1.359   4.249  16.890  0.2986  0.4695 -0.3199
 3038TIP3    H230530   1.233   4.232  16.807 -0.4702 -0.6582  1.0226
 3039TIP3   OH230531   5.738   1.317   0.128  0.1067  0.4148  0.3462
 3039TIP3    H130532   5.776   1.318   0.041  0.3723  0.2165  0.4587
 3039TIP3    H230533   5.812   1.301   0.187  0.0125  1.0478  0.6486
 3040TIP3   OH230534   0.645   1.847  14.040  0.4145 -0.5239 -0.2567
 3040TIP3    H130535   0.647   1.766  13.989  1.0287 -0.4896 -0.2942
 3040TIP3    H230536   0.712   1.834  14.108 -1.0933 -0.9952  1.2157
 3041TIP3   OH230537   5.662   1.198   0.838 -0.1373 -0.2426  0.1736
 3041TIP3    H130538   5.735   1.184   0.778  0.0176  1.7248 -0.1413
 3041TIP3    H230539   5.593   1.140   0.805  0.2976  0.0267 -1.2841
 3042TIP3   OH230540   0.965   4.928  11.393 -0.3148 -0.2848 -0.7502
 3042TIP3    H130541   0.980   4.902  11.302 -0.4747  0.9833 -1.1585
 3042TIP3    H230542   0.883   4.976  11.391  0.2306  0.7098 -0.1426
 3043TIP3   OH230543   2.248   2.376   3.625 -0.4498 -0.5905 -0.0505
 3043TIP3    H130544   2.222   2.468   3.624 -0.8315 -0.7008 -0.4860
 3043TIP3    H230545   2.343   2.378   3.635 -0.4675 -0.1502  0.0374
 3044TIP3   OH230546   5.574   2.919   1.687  0.7108  0.0315  0.3637
 3044TIP3    H130547   5.582   2.959   1.774  0.7393 -0.6065  0.6583
 3044TIP3    H230548   5.498   2.862   1.694  0.2823  0.5107 -0.2498
 3045TIP3   OH230549   6.694   2.505   0.044 -0.3196 -0.3243  0.2459
 3045TIP3    H130550   6.739   2.538   0.122  0.9086  0.6452 -0.8300
 3045TIP3    H230551   6.706   2.410   0.049  2.3853 -0.0972 -0.2349
 3046TIP3   OH230552   5.084   1.479   2.788 -0.3256  0.5365  0.6765
 3046TIP3    H130553   5.119   1.390   2.788  0.5956  0.8941  0.0763
 3046TIP3    H230554   5.160   1.535   2.780 -1.0550  1.3112 -1.6964
 3047TIP3   OH230555   6.556   1.324   1.964  0.1262  0.0421  0.2127
 3047TIP3    H130556   6.482   1.346   1.907 -0.0915 -1.8983 -0.3291
 3047TIP3    H230557   6.516   1.308   2.050  0.3832  2.3521  0.8398
 3048TIP3   OH230558   6.395   3.182   5.494  0.2425 -1.0187  0.2599
 3048TIP3    H130559   6.468   3.229   5.535 -2.5547  4.4182 -0.0823
 3048TIP3    H230560   6.340   3.155   5.568  0.6876 -1.6515  0.3713
 3049TIP3   OH230561   5.261   5.278   3.660 -0.5675  0.0180  0.0019
 3049TIP3    H130562   5.354   5.279   3.679 -0.6311 -0.4129  0.3513
 3049TIP3    H230563   5.253   5.321   3.575 -0.0408 -0.0450 -0.0806
 3050TIP3   OH230564   4.148   4.134   0.803 -0.2910  0.2713 -0.5152
 3050TIP3    H130565   4.198   4.068   0.851 -1.3292  1.1257  1.8782
 3050TIP3    H230566   4.057   4.117   0.827 -1.0364 -0.0138 -3.2193
 3051TIP3   OH230567   4.273   4.991   2.483  0.2642  0.3698  0.5077
 3051TIP3    H130568   4.213   5.065   2.475 -0.1552 -0.0512 -0.2911
 3051TIP3    H230569   4.298   4.991   2.576  0.3727  1.5867  0.5025
 3052TIP3   OH230570   0.060   0.022   2.694 -0.1328  0.3191  0.9504
 3052TIP3    H130571   0.149   0.012   2.661 -0.5121  0.0124 -0.0061
 3052TIP3    H230572   0.004  -0.016   2.627 -0.9790  0.2511  1.6634
 3053TIP3   OH230573   2.895   0.759   5.091  0.3890 -0.2061 -0.0002
 3053TIP3    H130574   2.916   0.753   4.998  0.2827  0.2775 -0.0537
 3053TIP3    H230575   2.814   0.708   5.101 -0.5666  1.1829 -0.4785
 3054TIP3   OH230576   3.408   3.142  14.110 -0.4832  0.4382 -0.3207
 3054TIP3    H130577   3.369   3.229  14.104 -0.7657  0.3507  0.2329
 3054TIP3    H230578   3.340   3.088  14.149 -0.5348 -0.1813 -1.2350
 3055TIP3   OH230579   3.655   0.741  15.620 -0.3693  0.1606  0.0938
 3055TIP3    H130580   3.632   0.676  15.687  0.0086 -2.2511 -1.9630
 3055TIP3    H230581   3.748   0.724  15.602 -0.4298  0.8612 -0.9452
 3056TIP3   OH230582   5.870   5.336   5.272  0.4194 -0.4071  0.1906
 3056TIP3    H130583   5.909   5.423   5.277 -0.4996  0.0184  0.1705
 3056TIP3    H230584   5.783   5.346   5.310  0.2539 -1.2893  0.0767
 3057TIP3   OH230585   5.815   1.581  14.314 -0.0793 -0.1293 -0.3162
 3057TIP3    H130586   5.789   1.490  14.329  0.2679 -0.4886 -1.7117
 3057TIP3    H230587   5.893   1.593  14.369 -0.5023 -0.4628  0.3694
 3058TIP3   OH230588   6.076   1.926  14.439  0.6353 -0.1371 -0.1960
 3058TIP3    H130589   6.092   1.921  14.345 -1.3115  1.1369 -0.6559
 3058TIP3    H230590   6.035   2.012  14.452  1.2198 -0.1175  1.8862
 3059TIP3   OH230591   1.621   2.311   4.119 -0.1917  0.8865 -0.0084
 3059TIP3    H130592   1.527   2.294   4.108 -0.8680  3.8365  0.2348
 3059TIP3    H230593   1.661   2.224   4.118 -2.7177 -0.4010 -1.7703
 3060TIP3   OH230594   2.318   3.309  11.143 -1.0678 -0.8331 -0.1285
 3060TIP3    H130595   2.255   3.370  11.104  0.2286  0.7433  0.1724
 3060TIP3    H230596   2.300   3.313  11.237  0.5671  1.0029  0.1731
 3061TIP3   OH230597   3.704   2.840   5.616  0.1221  0.5575  0.1730
 3061TIP3    H130598   3.656   2.885   5.547 -0.5552  0.0947  0.3268
 3061TIP3    H230599   3.712   2.750   5.584  0.6925  0.5776  0.2521
 3062TIP3   OH230600   4.047   4.281  15.430 -0.0342 -0.0107  0.1571
 3062TIP3    H130601   4.041   4.343  15.503  0.0882 -2.1827  2.1549
 3062TIP3    H230602   3.960   4.281  15.391 -0.3368  0.6419  0.8108
 3063TIP3   OH230603   6.111   2.459  17.089  0.9071 -0.0525  0.4732
 3063TIP3    H130604   6.115   2.552  17.110  1.2291 -0.1797  1.0051
 3063TIP3    H230605   6.022   2.446  17.054  1.0199  0.5360 -0.0515
 3064TIP3   OH230606   6.510   5.664  13.496 -0.0578 -0.0741  0.5220
 3064TIP3    H130607   6.550   5.700  13.417  0.5159 -0.4834  0.6192
 3064TIP3    H230608   6.553   5.711  13.568  0.8196 -1.0378  0.6571
 3065TIP3   OH230609   1.117   2.044   5.762  0.1891  0.2230 -1.0095
 3065TIP3    H130610   1.086   2.019   5.674  2.5081 -0.3275 -1.7362
 3065TIP3    H230611   1.198   2.093   5.746  0.2248  0.8406  0.8196
 3066TIP3   OH230612   2.984   0.924  11.141 -0.2794  0.4087  0.6514
 3066TIP3    H130613   2.949   1.002  11.098  0.0246 -0.0502 -0.4912
 3066TIP3    H230614   2.988   0.947  11.234 -2.3490  0.9328  0.6671
 3067TIP3   OH230615   0.656   4.473   0.013 -0.0255 -0.3701 -0.0102
 3067TIP3    H130616   0.638   4.485   0.106  1.5772  1.6213  0.1102
 3067TIP3    H230617   0.694   4.385   0.007 -1.4495 -1.1006  0.9509
 3068TIP3   OH230618   1.879   4.845   2.353  0.5228 -0.3125 -0.0211
 3068TIP3    H130619   1.892   4.838   2.447 -0.4257  1.1658  0.2546
 3068TIP3    H230620   1.811   4.780   2.334 -0.8371  0.8285  0.7193
 3069TIP3   OH230621   3.431   0.669  13.195  0.3681  0.1702 -0.0360
 3069TIP3    H130622   3.411   0.601  13.259 -1.4295  0.1529 -0.5689
 3069TIP3    H230623   3.351   0.722  13.189  1.5557  2.0727  0.0138
 3070TIP3   OH230624   2.460   2.732  14.048 -0.3664 -0.1003  0.3466
 3070TIP3    H130625   2.485   2.824  14.058  0.1331 -0.1481 -0.3660
 3070TIP3    H230626   2.429   2.725  13.958 -2.8283 -0.1011  1.1410
 3071TIP3   OH230627   3.141   4.404   0.312  0.1049 -0.5410  0.6842
 3071TIP3    H130628   3.155   4.321   0.357  0.0608 -0.5694  0.6456
 3071TIP3    H230629   3.080   4.383   0.241  0.8843 -0.6877  0.0402
 3072TIP3   OH230630   4.458   0.698  11.859 -0.0942 -0.0576  0.0873
 3072TIP3    H130631   4.459   0.645  11.938  0.0749 -0.3733 -0.1221
 3072TIP3    H230632   4.476   0.787  11.889  0.5438 -0.2636  0.3414
 3073TIP3   OH230633   0.939   1.407   1.741  0.2672  0.4963 -0.3242
 3073TIP3    H130634   1.028   1.427   1.770  0.7959  1.5156 -2.4421
 3073TIP3    H230635   0.949   1.329   1.686 -0.8177 -1.8528  2.5954
 3074TIP3   OH230636   1.116   2.355  12.074 -0.3839 -0.5358 -0.1355
 3074TIP3    H130637   1.052   2.425  12.082 -0.6525 -0.9448  1.7951
 3074TIP3    H230638   1.068   2.275  12.094  0.4860 -0.9617  0.3350
 3075TIP3   OH230639   5.901   1.632  15.461  0.5840 -0.1424 -0.6858
 3075TIP3    H130640   5.823   1.641  15.517  0.6325 -3.2248  0.0230
 3075TIP3    H230641   5.866   1.622  15.373  0.3184  0.5460 -0.6695
 3076TIP3   OH230642   2.763   6.555   0.322  0.4056 -0.2759  0.4404
 3076TIP3    H130643   2.744   6.526   0.412 -2.4455  1.1369  0.4148
 3076TIP3    H230644   2.700   6.506   0.269  1.6923 -0.6761 -0.7406
 3077TIP3   OH230645   3.262   1.274   3.527  0.3276 -0.3409 -0.4584
 3077TIP3    H130646   3.252   1.185   3.561 -0.1782  0.0538  0.4570
 3077TIP3    H230647   3.332   1.267   3.462  2.0514 -0.9374  1.3606
 3078TIP3   OH230648   5.444   6.022   5.439  0.3099 -0.3642 -0.5132
 3078TIP3    H130649   5.426   5.946   5.385  0.8188 -0.1802 -0.9466
 3078TIP3    H230650   5.380   6.017   5.510  0.9456 -1.7039 -0.0119
 3079TIP3   OH230651   4.285   0.273   2.827  0.2676  0.0118 -0.2432
 3079TIP3    H130652   4.243   0.188   2.835  1.7153 -0.6168  1.4630
 3079TIP3    H230653   4.356   0.260   2.764  0.6926 -0.1505  0.2616
 3080TIP3   OH230654   4.942   2.614  12.744  0.0673  0.1809 -0.2934
 3080TIP3    H130655   5.028   2.614  12.702 -0.6834 -0.3488 -1.8870
 3080TIP3    H230656   4.931   2.524  12.775 -0.4898 -0.1371 -1.3676
 3081TIP3   OH230657   4.946   3.208  13.553  0.3519 -0.0277 -0.0323
 3081TIP3    H130658   5.020   3.188  13.496  0.8425  0.1670  0.5206
 3081TIP3    H230659   4.980   3.274  13.614  0.0384 -0.6998  0.8894
 3082TIP3   OH230660   0.559   6.199   3.813  0.2037  0.0013  0.1821
 3082TIP3    H130661   0.486   6.239   3.859 -1.0802  0.0033 -1.7380
 3082TIP3    H230662   0.525   6.114   3.784  1.2314 -0.3322 -0.0944
 3083TIP3   OH230663   1.908   3.658  13.720  0.5099 -0.2927 -0.0999
 3083TIP3    H130664   1.885   3.614  13.802 -2.2360  0.8895 -0.1357
 3083TIP3    H230665   1.921   3.749  13.745 -2.7380  0.5922 -1.1755
 3084TIP3   OH230666   5.673   5.498   0.377  0.3810  0.0458 -0.2901
 3084TIP3    H130667   5.747   5.466   0.428 -1.0237 -0.1944  1.7195
 3084TIP3    H230668   5.636   5.419   0.338  1.5781  0.2531 -1.9367
 3085TIP3   OH230669   6.685   1.607  16.873 -0.4341  0.4130 -0.0712
 3085TIP3    H130670   6.728   1.667  16.935  0.3538 -0.2786  0.0609
 3085TIP3    H230671   6.750   1.538  16.858 -1.6136 -0.8376  0.3855
 3086TIP3   OH230672   5.010   5.451   1.371  0.2698  0.2804  0.2428
 3086TIP3    H130673   5.048   5.364   1.384 -0.5119 -0.1887 -0.5293
 3086TIP3    H230674   5.075   5.511   1.407  1.4661 -0.5373 -0.4907
 3087TIP3   OH230675   0.324   4.623   0.980 -0.1242 -0.1061 -0.0078
 3087TIP3    H130676   0.301   4.693   0.919 -1.2174  0.0809  0.5963
 3087TIP3    H230677   0.264   4.551   0.958  0.5227 -0.6047 -0.1690
 3088TIP3   OH230678   1.716   3.195   0.834  0.0015  0.4816 -0.1552
 3088TIP3    H130679   1.672   3.143   0.767 -1.0772  1.3013 -0.1051
 3088TIP3    H230680   1.720   3.137   0.910 -1.2362  0.4647 -0.0803
 3089TIP3   OH230681   3.913   2.849   3.580 -0.2650  0.1709  0.7242
 3089TIP3    H130682   3.874   2.837   3.667  1.7247 -0.7582  1.5397
 3089TIP3    H230683   4.006   2.832   3.593  0.3756  1.8165 -1.2442
 3090TIP3   OH230684   6.553   3.537   2.209 -0.2188  0.0253 -0.0401
 3090TIP3    H130685   6.599   3.560   2.289 -1.0517  0.0240  0.4484
 3090TIP3    H230686   6.476   3.594   2.208 -0.4876 -0.3382 -0.5739
 3091TIP3   OH230687   5.264   0.460   2.384 -0.3497 -0.2898 -0.0606
 3091TIP3    H130688   5.290   0.552   2.376  1.0611 -0.7578 -1.5726
 3091TIP3    H230689   5.170   0.462   2.398 -0.1999  1.4028  0.8998
 3092TIP3   OH230690   0.301   3.076   2.810 -0.0431 -0.3193 -0.1498
 3092TIP3    H130691   0.259   2.990   2.802 -1.4802  0.2649  0.8247
 3092TIP3    H230692   0.332   3.079   2.901 -1.6342  0.8846  0.3895
 3093TIP3   OH230693   6.093   2.599  14.917 -0.3980 -0.0900  0.1652
 3093TIP3    H130694   6.113   2.509  14.889 -1.0034  0.1756 -1.1521
 3093TIP3    H230695   6.171   2.649  14.894 -1.5205  0.4702 -2.7633
 3094TIP3   OH230696   0.325   5.320  13.106 -0.1054 -0.4725  0.3467
 3094TIP3    H130697   0.372   5.249  13.150 -0.8392 -1.7459 -0.8249
 3094TIP3    H230698   0.288   5.372  13.177 -0.8868 -2.2146  1.2681
 3095TIP3   OH230699   3.114   3.501   2.126 -0.4714  0.2977  0.0676
 3095TIP3    H130700   3.171   3.427   2.146  0.4334  0.7615 -0.7000
 3095TIP3    H230701   3.076   3.527   2.210 -0.2167 -0.5613  0.4505
 3096TIP3   OH230702   3.016   3.471  15.095  0.9060 -0.1774 -0.0244
 3096TIP3    H130703   2.945   3.480  15.160  2.2539  0.8946  1.3709
 3096TIP3    H230704   2.971   3.473  15.011 -0.6988  1.0838  0.8014
 3097TIP3   OH230705   3.531   6.490   3.600 -0.0686 -0.0063  0.7108
 3097TIP3    H130706   3.466   6.440   3.650 -0.6149  0.9121  0.9433
 3097TIP3    H230707   3.592   6.523   3.666  1.3863 -1.8891  0.3754
 3098TIP3   OH230708   0.260   6.505  17.319 -0.3225  0.5716  0.5661
 3098TIP3    H130709   0.225   6.518  17.231  1.0305 -0.6578 -0.1883
 3098TIP3    H230710   0.237   6.586  17.366 -0.1155  1.7129 -1.2172
 3099TIP3   OH230711   6.432   6.582   5.856  0.7281  0.3520  0.4042
 3099TIP3    H130712   6.404   6.607   5.944 -0.1360 -0.5310  0.4106
 3099TIP3    H230713   6.476   6.659   5.821  2.0124  0.3839  1.9794
 3100TIP3   OH230714   2.555   2.702  16.998  0.0630  0.2281 -0.9494
 3100TIP3    H130715   2.465   2.680  16.974 -0.6576  1.2383  0.6884
 3100TIP3    H230716   2.576   2.778  16.943  0.0458 -0.1682 -1.5245
 3101TIP3   OH230717   2.998   3.234  14.482  0.7619 -0.1790 -0.3051
 3101TIP3    H130718   3.087   3.269  14.486  0.4842  0.4697  0.4744
 3101TIP3    H230719   2.994   3.172  14.555 -0.3077  2.0085  1.6514
 3102TIP3   OH230720   3.935   4.515  13.005  0.3132  0.1930  0.2124
 3102TIP3    H130721   4.003   4.469  13.056  1.2205  1.6923  0.4088
 3102TIP3    H230722   3.984   4.579  12.953 -0.8451  0.3595 -0.7107
 3103TIP3   OH230723   6.075   4.496   1.004 -0.1586  0.4887  0.3963
 3103TIP3    H130724   6.005   4.432   0.990 -1.6615  1.6436  2.0610
 3103TIP3    H230725   6.140   4.450   1.056 -1.0713  0.1895  1.3132
 3104TIP3   OH230726   0.215   5.555  13.211 -0.6143 -0.3091  0.4487
 3104TIP3    H130727   0.221   5.579  13.303 -0.3582 -1.1123  0.6558
 3104TIP3    H230728   0.303   5.572  13.176 -1.4572  2.9016 -0.4366
 3105TIP3   OH230729   0.363   1.666  16.479  0.3295 -0.0793  0.7358
 3105TIP3    H130730   0.343   1.588  16.531 -0.6026 -0.4423 -0.1369
 3105TIP3    H230731   0.445   1.645  16.434 -0.3721 -0.9435 -0.1914
 3106TIP3   OH230732   3.178   0.769  11.704 -0.2312  0.6390  0.0285
 3106TIP3    H130733   3.205   0.680  11.679 -1.2077 -0.4560  2.5566
 3106TIP3    H230734   3.082   0.766  11.700 -0.3517  0.9188  2.0711
 3107TIP3   OH230735   4.155   0.593  14.914  0.4605  0.1726 -0.0945
 3107TIP3    H130736   4.111   0.549  14.841 -0.5530 -0.2837  0.7770
 3107TIP3    H230737   4.104   0.672  14.930  0.4816  0.1054  0.3290
 3108TIP3   OH230738   4.787   0.692   4.696  0.2862 -0.2928 -0.1575
 3108TIP3    H130739   4.769   0.754   4.767  0.7209  1.2711 -1.3435
 3108TIP3    H230740   4.724   0.621   4.709  0.5802 -0.2143  1.9547
 3109TIP3   OH230741   3.784   5.892  16.822 -0.3093  0.3863 -0.1492
 3109TIP3    H130742   3.722   5.823  16.846 -1.6651  1.9678  1.1651
 3109TIP3    H230743   3.830   5.911  16.903  1.0568  0.0837 -0.8373
 3110TIP3   OH230744   5.218   4.066   1.692 -0.3953 -0.6081 -0.1111
 3110TIP3    H130745   5.301   4.112   1.697 -1.1771  0.9089 -0.4903
 3110TIP3    H230746   5.189   4.058   1.783 -0.6475  0.4511 -0.0836
 3111TIP3   OH230747   1.824   4.731  14.397  0.4008  0.4195  0.0150
 3111TIP3    H130748   1.746   4.786  14.388 -0.1523  0.1432  2.3889
 3111TIP3    H230749   1.887   4.769  14.335 -0.7171  2.3290 -0.0468
 3112TIP3   OH230750   1.148   5.548  14.682 -0.4207  0.1522  0.4861
 3112TIP3    H130751   1.201   5.542  14.761 -0.3212  0.3295  0.4334
 3112TIP3    H230752   1.197   5.500  14.615  0.3960  1.5543  0.0533
 3113TIP3   OH230753   4.736   4.725  13.198  0.0324 -0.3715 -0.3399
 3113TIP3    H130754   4.681   4.770  13.135  1.3147  0.3042 -1.0208
 3113TIP3    H230755   4.687   4.728  13.280 -0.2247  1.6400 -0.5312
 3114TIP3   OH230756   1.390   1.534   6.009  0.1786 -0.0702  0.5696
 3114TIP3    H130757   1.296   1.524   5.994  0.1443 -0.3010  0.9225
 3114TIP3    H230758   1.400   1.628   6.026  0.6274  0.7911 -3.5306
 3115TIP3   OH230759   5.346   2.935   0.038  0.1342 -0.5109  0.5445
 3115TIP3    H130760   5.412   2.923   0.105  0.7776 -0.1346 -0.0101
 3115TIP3    H230761   5.363   2.865  -0.025 -0.4659 -0.8638  0.7679
 3116TIP3   OH230762   1.378   0.302  15.586  0.1793 -1.0362  0.0624
 3116TIP3    H130763   1.402   0.254  15.507  1.4381 -1.8184  0.8863
 3116TIP3    H230764   1.314   0.246  15.630 -1.1006 -0.2491 -0.7517
 3117TIP3   OH230765   2.218   2.668  14.684 -0.3653 -0.8126  0.0133
 3117TIP3    H130766   2.296   2.685  14.632 -0.2322 -0.2065  0.4066
 3117TIP3    H230767   2.154   2.732  14.653  0.3234  0.8733  1.9058
 3118TIP3   OH230768   1.221   4.626   5.079  0.8754 -0.3464  0.3176
 3118TIP3    H130769   1.147   4.566   5.083 -0.1202  0.7545 -0.7529
 3118TIP3    H230770   1.227   4.662   5.168  0.9221 -1.3459  0.7323
 3119TIP3   OH230771   6.522   0.027   1.577  0.1537 -0.4869  0.6399
 3119TIP3    H130772   6.479  -0.045   1.623 -0.2738 -1.0066 -0.5383
 3119TIP3    H230773   6.459   0.053   1.510  0.1150  1.2932  1.3059
 3120TIP3   OH230774   0.269   3.233   3.630 -0.3736  0.2643 -0.3840
 3120TIP3    H130775   0.305   3.206   3.545 -1.0797  0.5045 -0.7685
 3120TIP3    H230776   0.234   3.321   3.614 -0.3197  0.3971  0.2130
 3121TIP3   OH230777   4.423   6.264  16.539 -0.1326  0.3849 -0.3753
 3121TIP3    H130778   4.427   6.172  16.514  2.0324  0.5140 -0.6890
 3121TIP3    H230779   4.341   6.272  16.587 -0.0112 -1.8630  0.3227
 3122TIP3   OH230780   2.227   3.207   5.581  0.0310  0.0499 -0.2341
 3122TIP3    H130781   2.238   3.247   5.494  1.5834  0.5034  0.1286
 3122TIP3    H230782   2.279   3.263   5.639 -0.1812 -0.8138  0.8118
 3123TIP3   OH230783   4.074   1.281   5.200  0.3984 -0.0313  0.1526
 3123TIP3    H130784   4.155   1.296   5.249  0.7188 -0.4836 -0.2287
 3123TIP3    H230785   4.035   1.203   5.240 -1.4386  1.8740  2.3574
 3124TIP3   OH230786   3.225   1.040  15.489 -0.0961  0.7086  0.4086
 3124TIP3    H130787   3.187   1.061  15.404  0.1401  1.3606  0.4593
 3124TIP3    H230788   3.318   1.056  15.479  0.1901 -0.8707  0.2952
 3125TIP3   OH230789   5.908   1.715   4.924 -0.2343 -0.2980 -0.4754
 3125TIP3    H130790   5.869   1.680   4.845 -0.1983  1.7178 -1.4540
 3125TIP3    H230791   5.833   1.733   4.982 -0.3930 -0.3445 -0.6661
 3126TIP3   OH230792   2.084   5.202   4.117  0.2960  0.2148  0.6329
 3126TIP3    H130793   2.078   5.258   4.039  4.4177  0.3903  0.2415
 3126TIP3    H230794   2.109   5.261   4.187  0.3945 -0.5193  1.2213
 3127TIP3   OH230795   0.653   4.786   0.820 -0.0272  0.3158  0.1077
 3127TIP3    H130796   0.608   4.863   0.785  2.1424  1.1807 -1.0299
 3127TIP3    H230797   0.694   4.817   0.901  0.3662  0.2155 -0.0478
 3128TIP3   OH230798   2.975   5.254   0.615  1.1529  0.3498 -0.2528
 3128TIP3    H130799   2.997   5.176   0.565  1.3730 -0.4775  1.1009
 3128TIP3    H230800   2.879   5.251   0.623  1.1805  0.0922 -0.0093
 3129TIP3   OH230801   5.243   2.207  11.683  0.0666 -0.3921 -0.0713
 3129TIP3    H130802   5.307   2.148  11.723  1.4190  1.0040 -0.0785
 3129TIP3    H230803   5.190   2.239  11.756 -0.3076 -1.1449  0.0022
 3130TIP3   OH230804   3.574   6.277   1.581 -0.2313 -0.4678  0.0202
 3130TIP3    H130805   3.501   6.308   1.636 -0.0281  1.0143 -0.5014
 3130TIP3    H230806   3.564   6.182   1.580 -1.1873 -0.4125  1.3036
 3131TIP3   OH230807   1.478   2.266   5.411 -0.0252 -0.0443 -0.2386
 3131TIP3    H130808   1.560   2.242   5.368  1.2097  0.9583  1.4424
 3131TIP3    H230809   1.494   2.353   5.447 -2.0034  0.3848 -0.2668
 3132TIP3   OH230810   1.111   5.880   5.166  0.1244  0.1922 -0.6871
 3132TIP3    H130811   1.196   5.922   5.154 -0.0752  0.8795  0.2076
 3132TIP3    H230812   1.081   5.859   5.077  0.6002  1.1968 -1.0934
 3133TIP3   OH230813   1.289   2.713  16.831 -0.1146 -0.5961  0.1434
 3133TIP3    H130814   1.258   2.790  16.784  0.0015 -0.6256  0.0165
 3133TIP3    H230815   1.355   2.748  16.892  1.7406 -0.8885 -1.6118
 3134TIP3   OH230816   1.765   6.333   4.629  0.1547 -0.1044  0.4041
 3134TIP3    H130817   1.720   6.385   4.696  0.3571 -0.8238  1.1144
 3134TIP3    H230818   1.739   6.243   4.648  0.8003 -0.3855 -0.0431
 3135TIP3   OH230819   0.744   5.780  15.765  0.0477 -0.4382 -0.0766
 3135TIP3    H130820   0.649   5.793  15.771 -0.0743 -1.5092  0.7250
 3135TIP3    H230821   0.755   5.711  15.699  0.1954 -0.8457  0.3614
 3136TIP3   OH230822   2.625   1.925  16.935  0.1945 -0.0182 -0.8098
 3136TIP3    H130823   2.587   1.854  16.884  0.1322 -0.5380 -0.0599
 3136TIP3    H230824   2.647   1.992  16.870 -1.5986  0.1334 -1.2996
 3137TIP3   OH230825   5.732   3.812   1.003  0.8457 -0.1109  0.0425
 3137TIP3    H130826   5.699   3.819   1.093  1.8269 -0.4802  0.4534
 3137TIP3    H230827   5.682   3.740   0.964 -0.8087  1.1754 -0.2901
 3138TIP3   OH230828   5.220   4.666   3.360 -0.3885 -0.0333 -0.2863
 3138TIP3    H130829   5.254   4.593   3.411 -2.4253 -0.7062  0.2150
 3138TIP3    H230830   5.179   4.723   3.425  0.0405  0.9168 -0.8204
 3139TIP3   OH230831   0.859   6.721  14.161 -0.0514 -0.1779 -0.5691
 3139TIP3    H130832   0.859   6.678  14.075  1.8011 -1.0869 -0.1687
 3139TIP3    H230833   0.948   6.708  14.194  0.0257  2.3760  0.4146
 3140TIP3   OH230834   2.609   3.253  13.855  0.0272  0.5239 -0.2982
 3140TIP3    H130835   2.540   3.292  13.909  2.0780 -0.1374  3.0741
 3140TIP3    H230836   2.566   3.180  13.810 -1.6633  0.6015  1.1059
 3141TIP3   OH230837   3.936   1.716  12.845  0.3728 -0.0112 -0.4083
 3141TIP3    H130838   4.010   1.774  12.834  2.0721 -2.2410 -1.5345
 3141TIP3    H230839   3.946   1.680  12.933 -0.3990  0.9870  0.1021
 3142TIP3   OH230840   4.137   3.452  14.372  0.1984  0.0314 -0.3217
 3142TIP3    H130841   4.076   3.420  14.305 -0.1554  0.8423 -0.4051
 3142TIP3    H230842   4.205   3.497  14.323 -0.0654  0.6343 -0.1442
 3143TIP3   OH230843   1.243   1.506   4.609  0.3873 -0.2706 -0.2946
 3143TIP3    H130844   1.279   1.434   4.556  0.5493 -0.0822 -0.4421
 3143TIP3    H230845   1.315   1.568   4.617  0.8740 -1.0202  1.5051
 3144TIP3   OH230846   4.898   1.111   5.973 -0.3423 -0.4498  0.3370
 3144TIP3    H130847   4.930   1.191   5.931 -0.2276 -0.8435 -0.3358
 3144TIP3    H230848   4.955   1.100   6.049 -0.4443  0.1774  0.5143
 3145TIP3   OH230849   1.293   3.329   4.518 -0.1088 -0.6107  0.0742
 3145TIP3    H130850   1.371   3.334   4.573  0.2129 -0.9339 -0.3499
 3145TIP3    H230851   1.304   3.400   4.454 -0.2551 -0.5299  0.1398
 3146TIP3   OH230852   1.298   5.343  11.757  0.0357  0.6208 -0.1002
 3146TIP3    H130853   1.262   5.259  11.728 -0.5154  0.2399  1.5583
 3146TIP3    H230854   1.376   5.356  11.703  0.5876 -1.3462  0.1356
 3147TIP3   OH230855   5.232   4.481  15.961 -0.6653 -0.1101 -0.9204
 3147TIP3    H130856   5.153   4.459  15.912  0.3076  0.5678 -2.8888
 3147TIP3    H230857   5.269   4.556  15.915 -1.2356  2.6360  2.6251
 3148TIP3   OH230858   2.644   3.657  16.915  0.3444 -0.8023 -0.0000
 3148TIP3    H130859   2.621   3.565  16.923  0.1807 -0.9458 -1.7813
 3148TIP3    H230860   2.701   3.674  16.990 -0.3524 -2.1051  0.8543
 3149TIP3   OH230861   6.319   3.493   2.417 -0.0919  0.2022  0.3031
 3149TIP3    H130862   6.286   3.436   2.347 -1.0014 -1.4210  1.9553
 3149TIP3    H230863   6.290   3.580   2.393 -1.6932 -0.5324 -0.6038
 3150TIP3   OH230864   3.464   4.781   3.725 -0.0401  0.3996 -0.0692
 3150TIP3    H130865   3.477   4.745   3.813  0.2166 -1.0466 -0.6803
 3150TIP3    H230866   3.444   4.705   3.670  0.2263  1.2270 -1.3564
 3151TIP3   OH230867   5.345   5.216  15.377 -0.3698 -0.1931 -0.1881
 3151TIP3    H130868   5.354   5.155  15.450 -0.2009 -0.7922 -0.7075
 3151TIP3    H230869   5.413   5.191  15.315 -1.4851 -0.6941 -1.2576
 3152TIP3   OH230870   1.144   4.610  15.353  0.0703 -0.3618 -1.0156
 3152TIP3    H130871   1.051   4.618  15.331 -0.4610  1.0026  1.3834
 3152TIP3    H230872   1.173   4.700  15.365  1.4827 -0.8224 -0.8496
 3153TIP3   OH230873   5.996   2.703   6.454  0.3053 -0.4623 -0.8753
 3153TIP3    H130874   6.046   2.781   6.479  0.6972 -0.7283 -0.8213
 3153TIP3    H230875   5.944   2.681   6.531  1.8734 -1.5692 -0.0858
 3154TIP3   OH230876   6.220   6.566   4.066  0.0394  0.1980  0.1263
 3154TIP3    H130877   6.193   6.489   4.116  0.0676  0.8736  1.2314
 3154TIP3    H230878   6.198   6.640   4.123  0.7033  0.9665 -0.5842
 3155TIP3   OH230879   5.255   0.759  16.299 -0.3813 -0.1418  0.4803
 3155TIP3    H130880   5.303   0.841  16.309 -0.0288 -0.0767 -1.4405
 3155TIP3    H230881   5.301   0.697  16.356 -0.5470  0.9071  1.8233
 3156TIP3   OH230882   5.665   4.203  14.400  0.2633 -0.1854 -0.2940
 3156TIP3    H130883   5.603   4.148  14.448  1.2538 -0.7329  0.3999
 3156TIP3    H230884   5.632   4.204  14.310 -1.8718  1.2124  0.4371
 3157TIP3   OH230885   5.801   5.749   5.668  0.1872  0.5146 -0.6496
 3157TIP3    H130886   5.724   5.744   5.725 -0.8131  0.8972 -1.9409
 3157TIP3    H230887   5.851   5.823   5.703  0.4216 -0.2565  0.7157
 3158TIP3   OH230888   2.511   4.824   5.302 -0.5257  0.4824  0.3145
 3158TIP3    H130889   2.495   4.760   5.232  0.2340  0.6322 -0.0090
 3158TIP3    H230890   2.505   4.773   5.383 -0.2521  0.0586  0.0767
 3159TIP3   OH230891   3.118   6.050   5.675 -0.4905  0.5483 -0.4375
 3159TIP3    H130892   3.167   5.980   5.632 -2.4668 -0.1451 -1.7473
 3159TIP3    H230893   3.056   6.004   5.732 -0.8989  1.2967 -0.2705
 3160TIP3   OH230894   4.444   0.159   5.972 -0.0912  0.8202 -0.1241
 3160TIP3    H130895   4.460   0.081   6.024 -1.4276  0.7344  0.1844
 3160TIP3    H230896   4.375   0.133   5.911 -0.1282  1.5864 -0.4166
 3161TIP3   OH230897   4.623   5.202   3.412  0.4209 -0.1072 -0.0705
 3161TIP3    H130898   4.586   5.287   3.388  1.9711  0.6543  0.1578
 3161TIP3    H230899   4.571   5.139   3.362 -1.2768  0.8823  0.3541
 3162TIP3   OH230900   5.454   0.475   2.143 -0.4507 -0.4786 -0.2873
 3162TIP3    H130901   5.393   0.414   2.186 -1.4947  1.0881  0.5339
 3162TIP3    H230902   5.432   0.560   2.180  1.5943  0.2828 -0.7398
 3163TIP3   OH230903   4.907   4.105  11.945 -0.2557  0.5649 -0.3453
 3163TIP3    H130904   4.898   4.145  12.031  0.9896  2.1054 -0.8769
 3163TIP3    H230905   4.993   4.134  11.915 -0.5205 -0.2408 -1.9548
 3164TIP3   OH230906   2.360   1.151  14.723  0.0804 -0.1488  0.0628
 3164TIP3    H130907   2.288   1.088  14.721 -1.5822  1.5637  1.8363
 3164TIP3    H230908   2.325   1.228  14.677  0.0521  1.3494  2.4567
 3165TIP3   OH230909   0.487   4.437  15.015  0.1960 -0.2458  0.0094
 3165TIP3    H130910   0.498   4.516  14.962  0.2103 -0.4620 -0.3150
 3165TIP3    H230911   0.540   4.371  14.971 -0.3181 -0.6032 -0.0901
 3166TIP3   OH230912   6.213   1.076  13.424  0.1861  0.2603  0.0796
 3166TIP3    H130913   6.123   1.080  13.457 -0.1377  0.5694 -0.8140
 3166TIP3    H230914   6.208   1.020  13.347  0.4608  1.4529 -0.8454
 3167TIP3   OH230915   3.017   5.597   0.127 -0.0102 -0.2874  0.0656
 3167TIP3    H130916   3.069   5.654   0.183  0.0504 -0.4893  0.2192
 3167TIP3    H230917   2.931   5.592   0.170  0.4242 -1.4814  0.8703
 3168TIP3   OH230918   5.197   1.485   3.732  0.9685 -0.2294 -0.1588
 3168TIP3    H130919   5.182   1.448   3.645  1.2426  0.6388 -0.5883
 3168TIP3    H230920   5.282   1.450   3.758  0.8534 -0.5490 -0.2079
 3169TIP3   OH230921   5.361   2.413  17.358 -0.5515 -0.0139 -0.0532
 3169TIP3    H130922   5.397   2.329  17.331 -0.3913 -0.2909  0.9915
 3169TIP3    H230923   5.381   2.420  17.451 -0.1640  1.3851 -0.2143
 3170TIP3   OH230924   6.384   5.398  15.218  0.4532 -0.6557 -0.4202
 3170TIP3    H130925   6.471   5.361  15.200  0.8534 -0.1092  0.3100
 3170TIP3    H230926   6.384   5.413  15.313 -0.0987  0.1696 -0.5425
 3171TIP3   OH230927   5.143   6.271  12.783  0.3724  0.6610 -0.8507
 3171TIP3    H130928   5.139   6.276  12.879  1.9191  0.7862 -0.7591
 3171TIP3    H230929   5.130   6.178  12.763  0.6618  0.5364 -0.4686
 3172TIP3   OH230930   5.918   6.153  15.312  0.0603  0.1528  0.8666
 3172TIP3    H130931   5.959   6.205  15.381 -0.8661 -1.5044  2.7820
 3172TIP3    H230932   5.892   6.072  15.356 -0.7138 -0.9186 -1.4290
 3173TIP3   OH230933   4.719   2.941   3.353 -0.4474  0.3189 -0.0052
 3173TIP3    H130934   4.639   2.993   3.346 -0.1314  0.7740 -0.4345
 3173TIP3    H230935   4.692   2.857   3.389 -1.3146  0.0313 -1.2751
 3174TIP3   OH230936   6.572   2.501   4.804  0.5265 -0.4904 -0.1410
 3174TIP3    H130937   6.544   2.516   4.713 -0.5076  1.3423  0.4295
 3174TIP3    H230938   6.661   2.538   4.807 -0.3288  1.7009  0.1240
 3175TIP3   OH230939   6.495   4.656  15.683  0.6348 -0.3188  0.3795
 3175TIP3    H130940   6.400   4.652  15.680  0.6222  0.2370 -2.3395
 3175TIP3    H230941   6.514   4.741  15.723 -0.0248 -0.0974  0.2311
 3176TIP3   OH230942   3.713   0.635   2.732 -0.6120 -0.5765  0.0148
 3176TIP3    H130943   3.750   0.631   2.821  1.2327  0.1535 -0.6559
 3176TIP3    H230944   3.788   0.660   2.677 -1.8239 -0.5459 -1.6806
 3177TIP3   OH230945   4.346   1.908   0.836 -0.1470 -0.3661 -0.0146
 3177TIP3    H130946   4.319   1.957   0.913 -1.1895 -2.3917  0.9801
 3177TIP3    H230947   4.315   1.960   0.762 -0.1108  1.0579  0.9349
 3178TIP3   OH230948   5.599   4.487   4.880  0.0811 -0.2019 -0.2863
 3178TIP3    H130949   5.644   4.548   4.937 -0.6107 -1.0512  1.2362
 3178TIP3    H230950   5.594   4.531   4.795 -1.1583  2.2323  0.9570
 3179TIP3   OH230951   5.271   1.299  13.982 -0.3604  0.0014 -0.0326
 3179TIP3    H130952   5.275   1.307  13.887 -2.2714 -0.5528 -0.2086
 3179TIP3    H230953   5.211   1.369  14.009 -0.3602 -0.2682  0.6881
 3180TIP3   OH230954   0.864   0.455  17.210  0.9140 -0.5025  0.5106
 3180TIP3    H130955   0.959   0.466  17.211  0.7273  1.3848  1.1177
 3180TIP3    H230956   0.836   0.481  17.297 -0.3111  0.6104 -0.1842
 3181TIP3   OH230957   0.059   3.559  14.523 -0.1659  0.1242 -0.0965
 3181TIP3    H130958  -0.006   3.504  14.566  1.3626 -1.6129  0.0925
 3181TIP3    H230959   0.124   3.578  14.591 -0.0455  1.1982 -0.4786
 3182TIP3   OH230960   2.043   0.590   0.489 -0.0343 -0.0873 -0.7930
 3182TIP3    H130961   2.081   0.590   0.401  3.8866 -2.8575  0.6192
 3182TIP3    H230962   1.969   0.529   0.483 -0.1644  0.1782 -2.2399
 3183TIP3   OH230963   1.508   3.451   5.896  0.2306  0.5804 -0.4713
 3183TIP3    H130964   1.425   3.409   5.873 -0.4722  1.6289  0.0960
 3183TIP3    H230965   1.531   3.415   5.981  0.6294 -0.0886 -0.8538
 3184TIP3   OH230966   2.310   1.475   6.047  0.2728  0.0914  0.1023
 3184TIP3    H130967   2.405   1.485   6.057  0.0503  1.3395  1.3094
 3184TIP3    H230968   2.297   1.454   5.955  1.6850  0.3980 -0.1909
 3185TIP3   OH230969   3.590   3.635   3.789 -0.3422  0.1151 -0.0395
 3185TIP3    H130970   3.510   3.677   3.823 -0.1840 -1.0997  1.9757
 3185TIP3    H230971   3.558   3.556   3.746 -0.3112  0.1796 -0.1802
 3186TIP3   OH230972   3.613   5.484  14.820 -0.2402 -0.7701  0.4711
 3186TIP3    H130973   3.543   5.515  14.763  0.7162 -1.8303 -1.3611
 3186TIP3    H230974   3.684   5.547  14.807 -0.2548 -0.6314  1.0364
 3187TIP3   OH230975   5.984   5.555  15.750  0.1261  0.1457 -0.0857
 3187TIP3    H130976   5.893   5.579  15.730  0.4070  1.1180 -0.2141
 3187TIP3    H230977   6.004   5.486  15.686 -0.0214  1.0052 -1.0842
 3188TIP3   OH230978   4.445   3.205   3.112  0.2758 -0.1665 -0.6887
 3188TIP3    H130979   4.449   3.293   3.075 -1.5548  0.3583  0.2482
 3188TIP3    H230980   4.488   3.213   3.197 -0.1092 -0.1023 -0.4970
 3189TIP3   OH230981   1.964   5.502  13.872 -0.0558  0.3329  0.3486
 3189TIP3    H130982   2.009   5.466  13.796 -0.5358 -0.9593  0.6479
 3189TIP3    H230983   1.999   5.453  13.946 -1.6909 -0.5011  0.6206
 3190TIP3   OH230984   6.388   6.745   6.165  0.2917 -0.0506 -0.0778
 3190TIP3    H130985   6.444   6.675   6.200 -0.1297  0.8541  2.6518
 3190TIP3    H230986   6.437   6.825   6.179 -0.2816  0.4416 -0.8122
 3191TIP3   OH230987   4.426   1.846  14.475 -0.1190 -0.0501  0.2124
 3191TIP3    H130988   4.345   1.796  14.478 -0.1106 -0.0360  2.0429
 3191TIP3    H230989   4.492   1.785  14.509  0.5721  0.0880 -0.8317
 3192TIP3   OH230990   3.786   2.638   1.442 -0.2022  0.1981  0.0994
 3192TIP3    H130991   3.783   2.716   1.387 -1.7741 -1.2067 -1.9587
 3192TIP3    H230992   3.744   2.664   1.524  0.4012  1.8162 -0.0697
 3193TIP3   OH230993   0.964   1.327   4.942 -0.0960 -0.4164 -0.3469
 3193TIP3    H130994   0.966   1.290   4.854  1.8199 -0.2799 -0.4129
 3193TIP3    H230995   0.872   1.322   4.969 -1.0739  1.1452 -3.0296
 3194TIP3   OH230996   3.506   0.864   3.724 -0.4269  0.5245  0.5085
 3194TIP3    H130997   3.598   0.884   3.746 -0.3434  0.8915 -0.1535
 3194TIP3    H230998   3.481   0.796   3.787  1.2273 -1.8060 -1.1932
 3195TIP3   OH230999   0.024   1.278  12.619 -0.2721  0.2376  0.5337
 3195TIP3    H131000   0.103   1.321  12.652 -0.2819  1.0517 -0.4665
 3195TIP3    H231001  -0.033   1.349  12.591 -1.4454 -0.3293  1.3758
 3196TIP3   OH231002   2.191   3.748   1.602 -0.0044  0.3025 -0.7433
 3196TIP3    H131003   2.172   3.811   1.533 -2.1893  0.2320 -0.2701
 3196TIP3    H231004   2.116   3.689   1.603  0.2454 -0.0638  1.2815
 3197TIP3   OH231005   5.942   1.106   2.288 -0.5543  0.9281  0.4408
 3197TIP3    H131006   5.960   1.071   2.375 -1.3447  0.2049  0.3278
 3197TIP3    H231007   6.022   1.092   2.238 -1.3813 -2.5486 -0.1770
 3198TIP3   OH231008   4.539   4.210   5.218 -0.0529  0.6639  0.2388
 3198TIP3    H131009   4.507   4.129   5.259  1.1715  0.4443  0.8171
 3198TIP3    H231010   4.599   4.247   5.283  0.3927  1.3630 -0.5534
 3199TIP3   OH231011   0.852   1.722  16.404  0.2913  0.1907 -0.5892
 3199TIP3    H131012   0.812   1.711  16.490 -0.5553  1.4189 -0.8070
 3199TIP3    H231013   0.932   1.771  16.422  0.0820  0.5058 -0.5021
 3200TIP3   OH231014   3.781   5.994  11.000  0.6701  0.5050 -0.5980
 3200TIP3    H131015   3.707   6.016  10.943 -0.1432  0.5971  0.4742
 3200TIP3    H231016   3.783   6.064  11.065 -1.5431 -2.0247  2.4862
 3201TIP3   OH231017   4.705   6.456  16.877 -0.4923 -0.0333  0.0784
 3201TIP3    H131018   4.791   6.499  16.876 -0.3213 -0.3651  0.1736
 3201TIP3    H231019   4.642   6.527  16.879 -0.2151  0.2127  0.1204
 3202TIP3   OH231020   4.579   0.735   0.961  0.2966 -0.5098  0.0092
 3202TIP3    H131021   4.653   0.674   0.962  0.4192 -0.4100 -1.3173
 3202TIP3    H231022   4.611   0.812   1.009 -0.1209 -1.7075  2.3976
 3203TIP3   OH231023   3.267   5.712  15.146 -0.0939  0.1555  0.6580
 3203TIP3    H131024   3.309   5.686  15.228  1.4136  0.3417 -0.0182
 3203TIP3    H231025   3.174   5.698  15.161  0.3105 -1.8937  1.6780
 3204TIP3   OH231026   1.208   0.083  14.705 -0.0577  0.0229 -0.2030
 3204TIP3    H131027   1.191   0.057  14.796 -0.5308  1.4774  0.1460
 3204TIP3    H231028   1.175   0.009  14.653 -0.7932 -0.3601  0.7620
 3205TIP3   OH231029   2.274   1.508   6.531  0.3164 -0.5674  0.0159
 3205TIP3    H131030   2.257   1.414   6.525  1.3655 -0.6919 -1.7120
 3205TIP3    H231031   2.357   1.520   6.485 -1.1030  1.5666 -2.1987
 3206TIP3   OH231032   3.899   2.582   0.537  0.5225 -0.0068 -0.6636
 3206TIP3    H131033   3.813   2.623   0.542  0.3268 -0.1097 -2.3556
 3206TIP3    H231034   3.946   2.633   0.470  1.9317  0.2973  0.5124
 3207TIP3   OH231035   4.513   1.145  12.650  0.1693  0.3157  0.3401
 3207TIP3    H131036   4.523   1.113  12.739 -1.6578  1.1065  0.8913
 3207TIP3    H231037   4.524   1.068  12.595  1.0609 -0.2329  1.2600
 3208TIP3   OH231038   4.653   1.145  15.786 -0.1387  0.1919 -0.1147
 3208TIP3    H131039   4.679   1.142  15.878 -0.7631  3.2937  0.2880
 3208TIP3    H231040   4.676   1.234  15.758 -0.5275 -0.4711 -2.8001
 3209TIP3   OH231041   2.536   5.951  10.984  0.6685 -0.4208  0.6787
 3209TIP3    H131042   2.616   5.967  11.034  2.4604 -1.2226 -1.7138
 3209TIP3    H231043   2.508   6.038  10.955  0.8992 -0.1653  1.2126
 3210TIP3   OH231044   3.913   0.389   4.677 -0.5389  0.0763 -0.6731
 3210TIP3    H131045   4.006   0.387   4.656 -0.3052  0.6650  0.2561
 3210TIP3    H231046   3.879   0.305   4.644  0.8276 -1.3092  1.1906
 3211TIP3   OH231047   2.585   2.929   0.855  0.2383  0.2769  0.2997
 3211TIP3    H131048   2.557   2.872   0.926  0.3057  2.2192  1.9984
 3211TIP3    H231049   2.564   3.017   0.886 -2.2772  1.1118 -3.3014
 3212TIP3   OH231050   4.029   5.686   3.206 -0.0136 -0.0297 -0.3181
 3212TIP3    H131051   4.108   5.651   3.165  0.6338  0.4508  0.4939
 3212TIP3    H231052   4.018   5.635   3.286  1.7454  2.4367  1.6242
 3213TIP3   OH231053   5.366   2.662  14.126  0.5957  0.1731 -0.2141
 3213TIP3    H131054   5.347   2.699  14.040  1.4780 -1.0702 -0.9771
 3213TIP3    H231055   5.292   2.603  14.144 -1.4495  3.0045  1.5465
 3214TIP3   OH231056   3.000   4.181  13.367 -0.2290 -0.5629  0.3007
 3214TIP3    H131057   2.941   4.206  13.295  0.9029  1.7452  0.0592
 3214TIP3    H231058   2.960   4.219  13.445 -0.2614 -1.0487  0.5243
 3215TIP3   OH231059   5.855   4.727  15.837  0.2657 -0.0815 -0.1356
 3215TIP3    H131060   5.892   4.784  15.770  0.6824  2.1447  1.8727
 3215TIP3    H231061   5.763   4.716  15.811  0.5901  0.1251 -1.4367
 3216TIP3   OH231062   1.932   6.169   2.559  0.1555 -0.0560  0.2152
 3216TIP3    H131063   1.845   6.204   2.577 -0.4761 -0.7787 -1.3451
 3216TIP3    H231064   1.948   6.108   2.631 -0.4586  0.3575  0.7181
 3217TIP3   OH231065   3.454   6.553  11.579  0.3166 -0.3682 -0.0545
 3217TIP3    H131066   3.361   6.550  11.602 -0.0355 -2.7651 -1.4673
 3217TIP3    H231067   3.455   6.568  11.485  1.3830  0.0185  0.0051
 3218TIP3   OH231068   6.264   3.335   3.062  0.3848  0.1901  0.1246
 3218TIP3    H131069   6.340   3.279   3.076  0.2198 -0.3496 -1.0660
 3218TIP3    H231070   6.242   3.324   2.970  0.4802  2.4080 -0.2093
 3219TIP3   OH231071   1.949   2.494  13.960  0.1475 -0.2103 -0.4063
 3219TIP3    H131072   1.994   2.459  14.037 -0.8818 -1.2086 -0.2336
 3219TIP3    H231073   2.018   2.540  13.912  0.6979  1.0171  1.4182
 3220TIP3   OH231074   0.370   1.157  15.734 -1.1520  0.0018  0.0886
 3220TIP3    H131075   0.336   1.067  15.739 -1.4652  0.1592  0.9337
 3220TIP3    H231076   0.388   1.170  15.641  0.5856 -1.5487  0.1320
 3221TIP3   OH231077   4.484   5.010  14.726 -0.2125 -0.0824  0.3765
 3221TIP3    H131078   4.448   5.067  14.794 -0.4121 -1.5437  1.5478
 3221TIP3    H231079   4.538   4.946  14.773  0.5188 -0.4958 -0.9456
 3222TIP3   OH231080   1.487   2.501   2.631  0.2294 -0.0268  0.4788
 3222TIP3    H131081   1.408   2.544   2.663 -0.3210  0.1477 -1.0662
 3222TIP3    H231082   1.474   2.409   2.651 -0.6552 -0.0841 -0.3104
 3223TIP3   OH231083   6.426   3.996  13.807  0.1291  0.1413 -0.1515
 3223TIP3    H131084   6.349   4.028  13.761 -2.2837 -2.8323  1.4523
 3223TIP3    H231085   6.404   4.006  13.900  2.2018  0.2716  0.3746
 3224TIP3   OH231086   1.664   2.697  16.533  0.8414  0.0302 -0.5410
 3224TIP3    H131087   1.624   2.768  16.583 -1.8526 -0.8870 -1.2580
 3224TIP3    H231088   1.748   2.681  16.576  0.0533  1.4491  1.6281
 3225TIP3   OH231089   3.130   6.403  12.897  0.5062  0.0579  0.1907
 3225TIP3    H131090   3.098   6.466  12.961  2.6964  1.1870  0.2560
 3225TIP3    H231091   3.174   6.456  12.831  0.6157 -1.2844 -0.8524
 3226TIP3   OH231092   2.546   2.497   1.781 -0.0030  0.1177 -0.0163
 3226TIP3    H131093   2.626   2.494   1.834 -0.1967  0.6931  0.3138
 3226TIP3    H231094   2.553   2.579   1.733 -0.6843  0.4567  0.4621
 3227TIP3   OH231095   5.633   4.369   1.446  0.0841 -0.5467  0.2463
 3227TIP3    H131096   5.564   4.428   1.414  0.5293 -0.7932 -1.2500
 3227TIP3    H231097   5.694   4.426   1.492 -0.8744 -0.2649  1.2224
 3228TIP3   OH231098   3.552   3.811  12.765  0.5386  0.0670  0.4007
 3228TIP3    H131099   3.555   3.894  12.716  0.8696 -0.0668  0.1936
 3228TIP3    H231100   3.634   3.809  12.814  0.2283  0.1792  0.9342
 3229TIP3   OH231101   3.915   1.639  16.024 -0.2579  0.2315  0.3430
 3229TIP3    H131102   3.822   1.626  16.041 -0.1039 -0.0084  1.0743
 3229TIP3    H231103   3.952   1.656  16.111  0.7209 -1.7742  0.3692
 3230TIP3   OH231104   0.619   1.785  14.859 -0.1748  0.0711  0.0818
 3230TIP3    H131105   0.567   1.768  14.781 -0.9458 -1.3431  0.8444
 3230TIP3    H231106   0.571   1.854  14.905  0.1149  0.6894 -0.5401
 3231TIP3   OH231107   5.459   1.323   6.289 -0.4028  0.1082 -0.2274
 3231TIP3    H131108   5.481   1.392   6.351  0.1770  0.2882 -0.6174
 3231TIP3    H231109   5.386   1.359   6.238 -0.2239  0.3613 -0.3075
 3232TIP3   OH231110   3.553   1.082   5.831 -0.1397 -0.4330 -0.4309
 3232TIP3    H131111   3.536   1.122   5.746  3.9761  0.6445 -0.9946
 3232TIP3    H231112   3.578   0.992   5.811  0.6296 -0.2373 -0.3952
 3233TIP3   OH231113   2.975   3.476  10.983 -0.1089 -0.3168 -0.2045
 3233TIP3    H131114   2.898   3.461  10.928 -1.0402  0.4817  0.8479
 3233TIP3    H231115   3.045   3.426  10.940 -0.9477 -0.2261 -1.7494
 3234TIP3   OH231116   6.027   0.087   4.900  0.0087 -0.2246 -0.4761
 3234TIP3    H131117   6.060   0.008   4.942  2.5650 -0.0173 -1.8652
 3234TIP3    H231118   6.106   0.138   4.880 -1.5593  3.1333  1.1229
 3235TIP3   OH231119   4.318   1.693  12.903  0.3390 -0.5091  0.1562
 3235TIP3    H131120   4.326   1.602  12.876  2.2290 -0.1036 -0.8011
 3235TIP3    H231121   4.372   1.700  12.982  0.3423 -0.1829  0.1287
 3236TIP3   OH231122   3.365   6.086  16.482 -0.1553  0.1065  0.1545
 3236TIP3    H131123   3.308   6.154  16.518  0.1654  0.4972 -0.0622
 3236TIP3    H231124   3.347   6.009  16.535  0.3018  0.6710  1.1665
 3237TIP3   OH231125   4.655   3.466   4.724 -0.4951 -0.5924  0.1899
 3237TIP3    H131126   4.579   3.435   4.774 -0.4841  0.0322  0.6160
 3237TIP3    H231127   4.710   3.510   4.789 -0.9561  1.1131 -0.5129
 3238TIP3   OH231128   5.704   6.327   4.502  0.0178  0.3662 -0.6085
 3238TIP3    H131129   5.611   6.325   4.527 -0.0239 -0.5001 -0.7953
 3238TIP3    H231130   5.748   6.275   4.569  0.2363  0.0145 -1.0217
 3239TIP3   OH231131   4.186   5.851  16.622  0.2274  0.0735 -0.1110
 3239TIP3    H131132   4.160   5.824  16.710  1.0595  0.8287  0.3743
 3239TIP3    H231133   4.103   5.871  16.578 -0.2088 -0.5631  0.4001
 3240TIP3   OH231134   0.315   0.260  16.042 -0.4288 -0.5533  0.4555
 3240TIP3    H131135   0.347   0.246  15.953  0.0510  1.0312  0.3446
 3240TIP3    H231136   0.228   0.298  16.029  0.2502  1.1456  0.5797
 3241TIP3   OH231137   2.486   1.652   0.541 -0.0738 -0.1052  0.1091
 3241TIP3    H131138   2.550   1.718   0.566  0.6642 -1.1810  1.1764
 3241TIP3    H231139   2.414   1.663   0.603 -0.7019  0.7228 -0.7285
 3242TIP3   OH231140   3.575   1.794   1.636  0.7347 -0.0588 -0.1184
 3242TIP3    H131141   3.631   1.753   1.703 -0.8929 -1.3522  0.5253
 3242TIP3    H231142   3.625   1.784   1.555  3.2682  2.5448  0.9482
 3243TIP3   OH231143   3.693   0.882  13.769 -0.2243 -0.3401  0.5076
 3243TIP3    H131144   3.779   0.907  13.802 -0.3505  0.1422  0.4714
 3243TIP3    H231145   3.646   0.964  13.757  0.5490 -0.2422 -2.9575
 3244TIP3   OH231146   2.269   1.954   4.680  0.0191 -0.1862 -0.0437
 3244TIP3    H131147   2.313   2.039   4.677  0.5219 -0.4825 -2.4527
 3244TIP3    H231148   2.216   1.950   4.600  0.3070 -2.2870 -0.1945
 3245TIP3   OH231149   0.311   0.236   1.420  0.0841 -0.2021  0.5965
 3245TIP3    H131150   0.373   0.170   1.450 -0.3487 -0.9186 -0.0732
 3245TIP3    H231151   0.362   0.294   1.364  0.1253 -0.8700 -0.0677
 3246TIP3   OH231152   6.673   3.936  17.309  0.0412 -0.2425 -0.0895
 3246TIP3    H131153   6.593   3.885  17.319 -0.6112  0.5441 -1.0875
 3246TIP3    H231154   6.699   3.959  17.398 -0.6959 -0.7176  0.2548
 3247TIP3   OH231155   4.944   1.363  13.710 -0.2343  0.1918  0.2656
 3247TIP3    H131156   4.857   1.328  13.692  0.2549 -1.6947  1.3791
 3247TIP3    H231157   4.963   1.419  13.634 -0.9492 -2.1883 -1.7878
 3248TIP3   OH231158   5.713   4.093  12.941 -0.0206 -0.0047 -0.2908
 3248TIP3    H131159   5.649   4.040  12.892 -0.5583 -0.3492  0.7465
 3248TIP3    H231160   5.795   4.045  12.930 -0.2394 -0.3626 -0.4217
 3249TIP3   OH231161   3.727   2.961  16.795  0.1988  0.0027  0.0322
 3249TIP3    H131162   3.710   3.002  16.710 -0.3339 -2.0699 -0.9252
 3249TIP3    H231163   3.647   2.979  16.846 -0.2460 -0.2768 -0.5515
 3250TIP3   OH231164   5.184   4.676   0.861 -0.0959  0.5425  0.2620
 3250TIP3    H131165   5.238   4.615   0.910 -0.3538  1.8997  2.3790
 3250TIP3    H231166   5.134   4.621   0.801  1.6207 -1.0049  0.1707
 3251TIP3   OH231167   0.099   1.463  14.606 -0.2786  0.1737 -0.4221
 3251TIP3    H131168   0.004   1.461  14.607 -0.3835  2.0441 -1.5514
 3251TIP3    H231169   0.125   1.426  14.691 -2.0608  0.8140  0.4505
 3252TIP3   OH231170   3.351   6.750   0.892 -0.5571  0.1141  0.2141
 3252TIP3    H131171   3.293   6.773   0.820 -0.6580  0.5225  0.4235
 3252TIP3    H231172   3.384   6.834   0.925 -1.2068 -0.0073  1.2221
 3253TIP3   OH231173   6.329   6.447  13.053  0.0145  0.5071  0.8242
 3253TIP3    H131174   6.409   6.406  13.022 -1.1353 -1.5497  0.3662
 3253TIP3    H231175   6.335   6.443  13.149  1.3934  2.4140  0.8701
 3254TIP3   OH231176   1.247   0.466   2.580 -0.8938 -0.6836 -0.4537
 3254TIP3    H131177   1.164   0.508   2.600  0.4312  1.2688  1.3990
 3254TIP3    H231178   1.227   0.404   2.509 -3.7148  0.2786 -0.5946
 3255TIP3   OH231179   1.506   4.076  11.416  0.2476 -0.2694 -0.0133
 3255TIP3    H131180   1.584   4.128  11.394 -1.6541  3.1829  0.6073
 3255TIP3    H231181   1.527   4.035  11.500  1.2046  1.2055  0.5129
 3256TIP3   OH231182   4.356   4.612  15.741 -0.0455  0.1004  0.6304
 3256TIP3    H131183   4.419   4.596  15.670  0.0542 -2.3884  1.1818
 3256TIP3    H231184   4.371   4.703  15.766  0.8285  0.6471 -1.6455
 3257TIP3   OH231185   3.085   1.446  17.330  0.4813 -0.0147 -0.3844
 3257TIP3    H131186   3.180   1.452  17.342  0.3111  2.1790  0.4075
 3257TIP3    H231187   3.053   1.401  17.408  0.7321  0.9079  0.2668
 3258TIP3   OH231188   0.994   6.692  12.693 -0.0887  0.0583 -0.4691
 3258TIP3    H131189   1.059   6.629  12.660 -0.4172 -1.1436  1.0870
 3258TIP3    H231190   0.910   6.649  12.681 -0.5489  1.1340 -1.3826
 3259TIP3   OH231191   2.168   1.942   4.941 -0.1429  0.4071 -0.1052
 3259TIP3    H131192   2.218   1.943   4.859 -2.1331 -0.9344 -1.4170
 3259TIP3    H231193   2.177   1.853   4.974 -1.6973  0.1009 -0.4368
 3260TIP3   OH231194   0.617   2.582  14.637 -0.4829  0.4926  0.1287
 3260TIP3    H131195   0.605   2.676  14.652  0.0098  0.3639  1.4762
 3260TIP3    H231196   0.564   2.563  14.560  0.3027  2.0872 -0.8589
 3261TIP3   OH231197   5.451   2.166  11.903  0.3993  0.1836 -0.5186
 3261TIP3    H131198   5.367   2.209  11.915  0.8280  0.8769  0.0236
 3261TIP3    H231199   5.510   2.235  11.874  0.4222 -0.5955 -2.5479
 3262TIP3   OH231200   4.204   1.216   3.797  0.1539 -0.4440  0.1591
 3262TIP3    H131201   4.115   1.248   3.793 -0.2362 -1.3807  0.7987
 3262TIP3    H231202   4.241   1.255   3.876  0.6346  0.6888 -0.6055
 3263TIP3   OH231203   6.016   6.457  16.003 -0.3285  0.5892 -0.1540
 3263TIP3    H131204   6.016   6.475  15.909 -1.1496 -0.6674 -0.4168
 3263TIP3    H231205   5.953   6.385  16.014 -2.3312  2.4768  1.7057
 3264TIP3   OH231206   0.821   5.548   2.846 -1.0403 -0.3525  0.4114
 3264TIP3    H131207   0.860   5.614   2.788  1.1893 -1.1397  0.9095
 3264TIP3    H231208   0.741   5.522   2.801  0.3151 -0.5406 -2.1126
 3265TIP3   OH231209   0.922   0.664  14.966  0.3212  0.4478 -0.4031
 3265TIP3    H131210   1.016   0.666  14.948 -0.0372  1.6451 -2.4227
 3265TIP3    H231211   0.880   0.667  14.880 -1.6473 -3.2505  0.2064
 3266TIP3   OH231212   0.117   0.618   2.258  0.4669  0.0816 -0.8510
 3266TIP3    H131213   0.171   0.668   2.198 -0.4666 -0.1780 -1.9451
 3266TIP3    H231214   0.170   0.542   2.282  0.4717 -0.3877 -2.2329
 3267TIP3   OH231215   3.076   5.152  14.987 -0.6921 -0.8314 -0.2043
 3267TIP3    H131216   3.041   5.234  15.022  0.9978 -1.2020  2.7096
 3267TIP3    H231217   3.132   5.179  14.914 -1.6784  0.3927 -0.5404
 3268TIP3   OH231218   4.064   3.862  14.244 -0.3426  0.2981 -0.8850
 3268TIP3    H131219   4.079   3.904  14.160 -1.4158  0.1930 -1.1374
 3268TIP3    H231220   3.997   3.797  14.227  0.0061 -0.2826 -0.1118
 3269TIP3   OH231221   0.136   5.585  12.706 -0.1130  0.2743  0.8140
 3269TIP3    H131222   0.218   5.544  12.679 -1.3830 -2.1894  0.4008
 3269TIP3    H231223   0.097   5.617  12.624  0.5273  1.7171  1.0459
 3270TIP3   OH231224   3.015   5.458   5.100  0.1727  0.2774  0.7021
 3270TIP3    H131225   3.080   5.414   5.046 -0.2256  1.6320 -0.9885
 3270TIP3    H231226   2.956   5.389   5.129  0.5030 -0.5173 -0.4710
 3271TIP3   OH231227   3.317   2.541  11.547 -0.1342  0.2873 -0.6963
 3271TIP3    H131228   3.371   2.598  11.493  0.4204 -2.3825 -3.2207
 3271TIP3    H231229   3.380   2.483  11.591 -0.7098  1.0766  1.2750
 3272TIP3   OH231230   2.420   0.183   4.599 -0.5081  0.5245 -0.2267
 3272TIP3    H131231   2.416   0.126   4.523  0.5006 -1.5960  1.2215
 3272TIP3    H231232   2.496   0.240   4.582  0.1513 -0.4208 -0.4998
 3273TIP3   OH231233   0.498   4.178   4.977 -0.3143  0.0920 -0.0104
 3273TIP3    H131234   0.456   4.177   5.063  0.8759  1.8110  0.6392
 3273TIP3    H231235   0.534   4.090   4.968 -1.9022 -0.6582  0.4623
 3274TIP3   OH231236   6.739   2.435  13.304 -0.1174 -0.5644  0.0108
 3274TIP3    H131237   6.767   2.344  13.311 -1.7256 -1.2926 -1.9314
 3274TIP3    H231238   6.675   2.446  13.375  0.4384 -0.7648  0.5543
 3275TIP3   OH231239   6.012   1.251  14.521 -0.5871  0.6431  0.0980
 3275TIP3    H131240   6.064   1.302  14.583 -1.9778  0.1035  1.7820
 3275TIP3    H231241   6.054   1.165  14.519 -0.0195  0.9335 -0.3892
 3276TIP3   OH231242   2.140   6.297   4.693  0.3078  0.0224 -0.0637
 3276TIP3    H131243   2.093   6.358   4.635  0.1096 -0.4800 -0.4400
 3276TIP3    H231244   2.172   6.229   4.634  1.7330  0.4794  0.1421
 3277TIP3   OH231245   2.502   6.357  11.502  0.7271 -0.1874 -0.1313
 3277TIP3    H131246   2.581   6.405  11.526  0.2548  0.9131 -0.6814
 3277TIP3    H231247   2.439   6.425  11.477 -0.7839 -0.9605  1.3435
 3278TIP3   OH231248   1.720   0.008   0.373  0.1275  0.2325 -0.4574
 3278TIP3    H131249   1.717   0.048   0.460 -1.6595 -0.9579  0.0801
 3278TIP3    H231250   1.768  -0.074   0.386 -0.7552 -0.2943 -0.4020
 3279TIP3   OH231251   5.103   1.627  15.634  0.1924 -0.3354  0.1544
 3279TIP3    H131252   5.101   1.594  15.724  1.7397  2.0549  1.1860
 3279TIP3    H231253   5.194   1.657  15.622  0.1389 -0.9836 -2.3826
 3280TIP3   OH231254   1.100   6.327  12.244 -0.8824  1.0958 -0.1160
 3280TIP3    H131255   1.163   6.256  12.256 -1.8279  0.6325  2.8474
 3280TIP3    H231256   1.026   6.286  12.198 -1.6081 -0.0465  1.9532
 3281TIP3   OH231257   3.115   5.205  14.145 -0.1946 -0.3320  0.8046
 3281TIP3    H131258   3.078   5.265  14.210  0.7189  0.8361  0.2751
 3281TIP3    H231259   3.093   5.118  14.179 -0.3726  0.2551  2.3095
 3282TIP3   OH231260   1.360   4.488   0.298  0.0679 -0.1971 -1.0382
 3282TIP3    H131261   1.397   4.575   0.310 -1.0796  0.1840 -0.1026
 3282TIP3    H231262   1.431   4.428   0.319  0.5478  0.5169 -0.6211
 3283TIP3   OH231263   0.380   0.706  11.132  0.7113  0.2888 -0.1851
 3283TIP3    H131264   0.359   0.757  11.210 -3.4940 -1.5379  0.1358
 3283TIP3    H231265   0.425   0.628  11.164  0.3175  0.2332  0.2354
 3284TIP3   OH231266   5.389   6.119  14.575  0.1867 -0.2472  0.3952
 3284TIP3    H131267   5.465   6.061  14.581  1.0237  0.5704 -1.5175
 3284TIP3    H231268   5.341   6.088  14.498  1.8153  2.7754 -2.0582
 3285TIP3   OH231269   0.713   2.643   1.529 -0.2694  0.2876  0.4227
 3285TIP3    H131270   0.730   2.679   1.442  1.3558  0.8859  0.9463
 3285TIP3    H231271   0.667   2.561   1.513 -2.9712  1.9308 -0.8627
 3286TIP3   OH231272   0.650   6.206   4.067 -0.0561  0.1047  0.5535
 3286TIP3    H131273   0.616   6.156   3.992  0.0257  0.0871  0.5279
 3286TIP3    H231274   0.667   6.140   4.134 -2.4190  0.3354  1.4924
 3287TIP3   OH231275   0.169   0.883   3.906 -0.3328 -0.3271  0.2188
 3287TIP3    H131276   0.100   0.821   3.930 -0.1723 -0.4418  0.3858
 3287TIP3    H231277   0.220   0.837   3.839 -0.9269  0.0878 -0.5255
 3288TIP3   OH231278   4.278   2.089  13.346 -0.2532  0.0924 -0.4454
 3288TIP3    H131279   4.324   2.013  13.311  1.6147  0.9967 -0.0892
 3288TIP3    H231280   4.331   2.118  13.420  0.8538  3.4463 -2.2873
 3289TIP3   OH231281   0.291   3.229  15.284 -0.0199  0.3034 -0.4054
 3289TIP3    H131282   0.280   3.242  15.378  0.4937 -2.1697  0.0520
 3289TIP3    H231283   0.307   3.135  15.274 -0.7829  0.3831 -3.0494
 3290TIP3   OH231284   3.565   0.838  15.260 -0.3146 -0.9352  0.0428
 3290TIP3    H131285   3.620   0.905  15.301  1.3205 -1.3511 -1.3380
 3290TIP3    H231286   3.549   0.775  15.330  2.5216 -1.6989  0.1431
 3291TIP3   OH231287   5.858   4.022   1.945  0.0875 -0.3637  0.3674
 3291TIP3    H131288   5.913   4.085   1.899  0.6018 -0.7655  0.4211
 3291TIP3    H231289   5.828   3.962   1.876 -1.9123  0.9725 -0.0137
 3292TIP3   OH231290   1.100   1.920   3.751 -0.4170  0.0481 -0.7711
 3292TIP3    H131291   1.010   1.920   3.783 -0.2707  0.1196 -0.3620
 3292TIP3    H231292   1.135   1.834   3.774  0.4448  0.9010  1.4285
 3293TIP3   OH231293   4.028   2.449  11.266 -0.1362  0.4944  0.2824
 3293TIP3    H131294   3.991   2.361  11.263 -0.5425  0.6309  1.0522
 3293TIP3    H231295   3.984   2.495  11.195  0.9904 -0.2498 -0.9434
 3294TIP3   OH231296   6.639   3.356   0.493  0.2788 -0.0026 -0.3774
 3294TIP3    H131297   6.588   3.349   0.412 -0.3851 -0.1937  0.0567
 3294TIP3    H231298   6.728   3.332   0.466 -0.0073 -0.4391 -0.9758
 3295TIP3   OH231299   3.891   1.212   2.975 -0.2669 -0.0014 -0.3262
 3295TIP3    H131300   3.943   1.291   2.960 -0.8897  0.4003 -0.4159
 3295TIP3    H231301   3.955   1.141   2.979  0.3438  0.5757  0.2769
 3296TIP3   OH231302   4.634   5.635   5.639  0.4686 -0.0155 -0.2114
 3296TIP3    H131303   4.646   5.726   5.666 -2.9482  0.1691  1.0971
 3296TIP3    H231304   4.696   5.586   5.693  0.6395  1.2958  0.8383
 3297TIP3   OH231305   2.897   4.635   5.155  0.3600 -0.2464  0.0142
 3297TIP3    H131306   2.881   4.710   5.097 -1.2893 -1.2295 -0.8898
 3297TIP3    H231307   2.910   4.673   5.241  1.1032  1.1594 -0.6928
 3298TIP3   OH231308   5.056   0.474  12.691 -0.3959  0.4210 -0.2604
 3298TIP3    H131309   5.014   0.485  12.606  0.5768 -0.4060 -0.8822
 3298TIP3    H231310   5.071   0.380  12.698 -1.9070  0.2515  1.5710
 3299TIP3   OH231311   0.612   2.254  14.612 -0.0256 -0.6914 -0.2541
 3299TIP3    H131312   0.540   2.207  14.571 -0.3532  0.3755 -0.9568
 3299TIP3    H231313   0.620   2.335  14.561  1.9768 -0.9830 -0.5182
 3300TIP3   OH231314   2.460   6.199  10.850  0.4517  0.2531  0.4121
 3300TIP3    H131315   2.493   6.200  10.760  0.2890 -0.9322  0.3331
 3300TIP3    H231316   2.378   6.150  10.846 -0.3320  1.4693  0.9605
 3301TIP3   OH231317   4.502   2.467  17.032 -0.0980  0.3410 -0.1154
 3301TIP3    H131318   4.462   2.533  17.088 -0.5262  0.1210 -0.1639
 3301TIP3    H231319   4.430   2.429  16.982  0.2316  0.3086 -0.5858
 3302TIP3   OH231320   3.275   2.436   1.132  0.0430 -0.4257  0.3276
 3302TIP3    H131321   3.260   2.342   1.133  0.0599 -0.4223  1.5089
 3302TIP3    H231322   3.334   2.452   1.206 -0.7321  0.6438  0.7312
 3303TIP3   OH231323   5.273   3.897   0.773  0.0420  0.4076 -0.0863
 3303TIP3    H131324   5.298   3.854   0.855  0.2583 -0.4397 -0.5855
 3303TIP3    H231325   5.294   3.990   0.787  1.4807  0.0512  0.2842
 3304TIP3   OH231326   1.987   2.898  10.715  0.5782  0.4607  0.0183
 3304TIP3    H131327   2.042   2.879  10.639  3.5954  0.6436  1.9956
 3304TIP3    H231328   1.913   2.837  10.707  1.1141  0.0576 -2.6855
 3305TIP3   OH231329   0.149   5.044  13.468  0.1442  0.5530  0.1306
 3305TIP3    H131330   0.094   5.047  13.546  0.6836  1.0605  0.4978
 3305TIP3    H231331   0.239   5.040  13.501  0.3660  0.4668 -0.4604
 3306TIP3   OH231332   4.707   2.969   3.048  0.3163 -0.2191  0.2537
 3306TIP3    H131333   4.788   2.919   3.054  0.5379  0.3262  2.4943
 3306TIP3    H231334   4.725   3.051   3.094 -0.5347  1.3199 -1.9344
 3307TIP3   OH231335   6.465   2.703  13.685 -0.1852 -0.6533 -0.2262
 3307TIP3    H131336   6.406   2.629  13.672  0.5941 -1.4560  0.6845
 3307TIP3    H231337   6.408   2.775  13.711 -1.1018 -0.5616 -2.3144
 3308TIP3   OH231338   1.048   2.379   2.947 -0.2988 -0.4807 -0.7116
 3308TIP3    H131339   0.957   2.370   2.978 -0.3957  1.3606 -0.3121
 3308TIP3    H231340   1.040   2.419   2.861  0.0849  2.9390  0.6569
 3309TIP3   OH231341   2.341   3.762  16.731 -0.0603 -0.2605 -0.1784
 3309TIP3    H131342   2.400   3.812  16.675 -0.8900  1.2663  0.2529
 3309TIP3    H231343   2.311   3.825  16.796 -0.7332 -1.4728  0.7233
 3310TIP3   OH231344   6.615   6.521   1.791 -0.7897  0.2522  0.1893
 3310TIP3    H131345   6.532   6.567   1.801 -0.7587  0.4685 -0.5045
 3310TIP3    H231346   6.639   6.533   1.699 -0.8882 -1.3379 -0.0706
 3311TIP3   OH231347   1.305   1.257   3.275  0.1349  0.3217  0.2737
 3311TIP3    H131348   1.349   1.291   3.197  0.1761  0.1388  0.2161
 3311TIP3    H231349   1.302   1.331   3.336 -0.7788  0.7585 -0.2737
 3312TIP3   OH231350   5.423   4.856   0.879 -0.3439  0.2113  0.0271
 3312TIP3    H131351   5.394   4.945   0.899  1.2349  0.9719 -0.8612
 3312TIP3    H231352   5.345   4.802   0.890 -1.5492  1.8253 -0.2172
 3313TIP3   OH231353   5.805   2.210   2.741  0.4087  0.2115  0.2098
 3313TIP3    H131354   5.720   2.254   2.741  0.2190 -0.0942 -1.4465
 3313TIP3    H231355   5.808   2.163   2.825 -0.3427  1.5174  0.9938
 3314TIP3   OH231356   1.468   0.608   0.480  0.0929  0.6202 -0.3997
 3314TIP3    H131357   1.384   0.570   0.503  0.4651  0.1083  0.1358
 3314TIP3    H231358   1.474   0.688   0.532 -1.1068  1.9767 -2.2223
 3315TIP3   OH231359   4.030   2.221  11.727  0.3316 -0.1706  1.0668
 3315TIP3    H131360   3.966   2.205  11.658  0.0510  1.7808  0.8197
 3315TIP3    H231361   4.027   2.142  11.782 -2.1121 -0.2286  0.9377
 3316TIP3   OH231362   5.920   1.796  16.733  0.0483  0.1679  1.0132
 3316TIP3    H131363   5.841   1.827  16.688  0.9307  0.8051 -0.1538
 3316TIP3    H231364   5.931   1.706  16.701 -0.3208 -0.0022  1.3538
 3317TIP3   OH231365   3.241   4.216  13.493 -0.3993 -0.0505  0.3946
 3317TIP3    H131366   3.159   4.188  13.453 -0.7723 -0.0387  1.1278
 3317TIP3    H231367   3.223   4.303  13.527  0.4865  0.7465 -1.0623
 3318TIP3   OH231368   0.060   2.182  16.072  0.5457  0.4878  0.4775
 3318TIP3    H131369   0.149   2.148  16.079  1.3293  2.5853  1.5679
 3318TIP3    H231370   0.047   2.196  15.978 -0.1490 -3.3779 -0.1588
 3319TIP3   OH231371   6.121   2.662   1.622 -0.0938 -0.2227  0.2977
 3319TIP3    H131372   6.160   2.727   1.563 -0.5856  0.6313  0.8924
 3319TIP3    H231373   6.189   2.646   1.688  0.1122 -0.4928  0.0255
 3320TIP3   OH231374   3.194   4.069  10.850  0.4380 -0.2176  0.3434
 3320TIP3    H131375   3.243   4.049  10.770 -0.5271  0.9477 -0.5644
 3320TIP3    H231376   3.138   3.993  10.864  0.0773 -0.1083 -0.5096
 3321TIP3   OH231377   1.405   5.009  13.189  0.3140  0.0443  0.0488
 3321TIP3    H131378   1.498   5.021  13.209  0.1365  0.3338  0.7346
 3321TIP3    H231379   1.372   4.956  13.261 -0.2406  0.6844  0.2760
 3322TIP3   OH231380   4.946   4.973  14.773 -0.1698 -0.0105 -0.0626
 3322TIP3    H131381   5.030   4.956  14.729  0.5699  0.6131  1.0459
 3322TIP3    H231382   4.938   5.068  14.774  1.4785  0.3054  3.8684
 3323TIP3   OH231383   3.557   0.985   5.493 -0.5308  0.7859 -0.0453
 3323TIP3    H131384   3.649   0.984   5.468 -0.6043 -2.6493 -0.7029
 3323TIP3    H231385   3.509   0.991   5.411 -0.8618  0.7390  0.1408
 3324TIP3   OH231386   4.142   5.061  13.064  0.0451  0.3186  0.2246
 3324TIP3    H131387   4.189   5.019  13.136 -1.9426 -1.5688  0.5062
 3324TIP3    H231388   4.185   5.028  12.985  0.0871 -0.2637  0.4874
 3325TIP3   OH231389   3.815   4.694   3.775 -0.3768  0.0540  0.0334
 3325TIP3    H131390   3.792   4.732   3.690 -0.3258 -1.2861 -0.6073
 3325TIP3    H231391   3.908   4.673   3.767 -0.1087  0.8828  0.8194
 3326TIP3   OH231392   3.637   6.380   1.322 -0.0898 -0.3255  0.1071
 3326TIP3    H131393   3.624   6.473   1.344  0.1869 -0.1276 -0.5543
 3326TIP3    H231394   3.624   6.334   1.405 -2.1817  0.1097  0.0913
 3327TIP3   OH231395   5.228   0.286   4.905 -0.0239 -0.1979 -0.3396
 3327TIP3    H131396   5.188   0.357   4.855  2.3738  0.9943 -0.7036
 3327TIP3    H231397   5.288   0.244   4.843  2.1118  0.5391  1.1350
 3328TIP3   OH231398   5.570   4.842  13.771 -0.0901  0.0217  0.1555
 3328TIP3    H131399   5.638   4.907  13.789 -0.9827  0.9289  0.3426
 3328TIP3    H231400   5.508   4.888  13.714 -1.0992 -0.4296  0.8625
 3329TIP3   OH231401   3.812   1.996  13.332 -0.2126 -0.2144  0.5720
 3329TIP3    H131402   3.818   1.901  13.319 -1.5451 -0.1695 -0.6063
 3329TIP3    H231403   3.723   2.019  13.307  0.4216  1.5065 -0.3495
 3330TIP3   OH231404   0.197   3.590   1.494 -0.1933 -0.2297  0.0726
 3330TIP3    H131405   0.149   3.518   1.452  0.6394 -1.3892  1.0587
 3330TIP3    H231406   0.247   3.629   1.423 -0.9974 -0.3193 -0.5653
 3331TIP3   OH231407   4.923   0.485  13.709 -0.2799  0.0167 -0.1322
 3331TIP3    H131408   4.984   0.550  13.744  2.6625 -1.7878 -1.4840
 3331TIP3    H231409   4.903   0.515  13.621 -1.9994  0.9525  0.5374
 3332TIP3   OH231410   6.546   3.765   6.745 -1.0638  0.3480 -0.2923
 3332TIP3    H131411   6.534   3.770   6.840 -1.0965 -0.4167 -0.2510
 3332TIP3    H231412   6.476   3.707   6.715  0.1844 -1.1008 -0.5184
 3333TIP3   OH231413   3.816   0.463  11.350 -0.3984  0.3189 -0.5074
 3333TIP3    H131414   3.910   0.459  11.333 -0.3842  1.1189 -0.6617
 3333TIP3    H231415   3.807   0.447  11.443  0.0155  1.5614 -0.2307
 3334TIP3   OH231416   3.549   2.717  14.814 -0.2802  0.0432  0.2038
 3334TIP3    H131417   3.612   2.777  14.855 -0.0325  0.5614 -0.8917
 3334TIP3    H231418   3.504   2.771  14.749  1.7050 -1.4399 -2.6648
 3335TIP3   OH231419   4.959   6.270  16.133  0.0247  0.1279 -0.5927
 3335TIP3    H131420   5.018   6.332  16.091  1.3094 -0.7583 -0.1592
 3335TIP3    H231421   4.888   6.258  16.070 -0.4292  2.2365 -0.5631
 3336TIP3   OH231422   5.644   2.510   1.575  0.1010 -0.1208  0.0051
 3336TIP3    H131423   5.704   2.568   1.622 -0.8822  0.8436  0.0986
 3336TIP3    H231424   5.557   2.536   1.604 -0.3842 -1.4769 -0.1615
 3337TIP3   OH231425   6.353   4.876  14.803 -0.1794 -0.3083 -0.4983
 3337TIP3    H131426   6.340   4.967  14.832  0.8074 -0.0815 -0.7391
 3337TIP3    H231427   6.322   4.876  14.713  0.1760 -0.1162 -0.6216
 3338TIP3   OH231428   5.891   5.440   3.187 -0.0560  0.0943 -0.0534
 3338TIP3    H131429   5.965   5.461   3.129 -0.6765  2.6473 -0.0542
 3338TIP3    H231430   5.847   5.366   3.145  0.2167  1.0884 -2.2194
 3339TIP3   OH231431   1.396   5.874   1.973 -0.4218 -0.1187  0.9625
 3339TIP3    H131432   1.311   5.915   1.963  0.0486  0.8797  0.9675
 3339TIP3    H231433   1.459   5.945   1.965  0.3366 -0.4723  2.9606
 3340TIP3   OH231434   1.337   6.353   6.323 -0.1972  0.1749  0.2459
 3340TIP3    H131435   1.422   6.318   6.349  1.2567  2.4472 -1.0821
 3340TIP3    H231436   1.297   6.283   6.271  1.9197 -0.1624 -1.0695
 3341TIP3   OH231437   0.169   2.665  17.005 -0.6804  0.0768 -0.4163
 3341TIP3    H131438   0.153   2.685  16.913  0.2299 -0.9167 -0.8131
 3341TIP3    H231439   0.204   2.747  17.042 -0.3217  0.2620 -1.1431
 3342TIP3   OH231440   6.465   4.226  15.956  0.3889 -0.2901  0.1518
 3342TIP3    H131441   6.467   4.132  15.938  0.8661 -0.5694  1.5802
 3342TIP3    H231442   6.556   4.254  15.948  0.0844  0.3361 -1.5503
 3343TIP3   OH231443   5.644   2.757   1.408  0.4930  0.1799  0.0833
 3343TIP3    H131444   5.698   2.688   1.447 -1.7370 -1.1338  1.0649
 3343TIP3    H231445   5.618   2.812   1.481 -1.4256 -0.6624  0.1099
 3344TIP3   OH231446   0.258   4.762   5.103  0.5743  0.3755 -0.4072
 3344TIP3    H131447   0.208   4.777   5.183 -1.2500  1.7287 -1.7033
 3344TIP3    H231448   0.197   4.714   5.046  1.2542  0.8245 -1.5451
 3345TIP3   OH231449   3.796   0.160   3.712 -0.2501 -0.5663 -0.0519
 3345TIP3    H131450   3.753   0.113   3.641 -1.4418 -1.2056  1.0546
 3345TIP3    H231451   3.887   0.169   3.683 -0.7821 -0.4155 -1.8305
 3346TIP3   OH231452   5.759   4.089   0.532 -0.1703  0.1511  0.4910
 3346TIP3    H131453   5.825   4.044   0.479 -0.6388  1.1199 -0.9846
 3346TIP3    H231454   5.803   4.169   0.562 -0.2352  0.1051  0.7125
 3347TIP3   OH231455   4.751   0.588   1.534 -0.1984 -0.5126 -0.5407
 3347TIP3    H131456   4.664   0.561   1.565 -1.3690  2.1633 -1.2540
 3347TIP3    H231457   4.748   0.573   1.439  0.0561 -0.2352 -0.5916
 3348TIP3   OH231458   2.994   4.083   0.813 -0.4387  0.4628  0.2267
 3348TIP3    H131459   3.083   4.087   0.779 -0.3781  1.4985  0.4746
 3348TIP3    H231460   2.959   4.001   0.778  0.1205  0.7513 -1.0994
 3349TIP3   OH231461   4.194   3.399  13.758  0.0202  0.3638 -0.3383
 3349TIP3    H131462   4.184   3.338  13.831  0.2826 -0.2099 -0.7742
 3349TIP3    H231463   4.118   3.456  13.764 -0.9684 -0.8670 -0.7217
 3350TIP3   OH231464   3.779   6.477   2.476 -0.0036 -0.7031  0.2285
 3350TIP3    H131465   3.710   6.516   2.422  0.6567  0.3858  0.1368
 3350TIP3    H231466   3.750   6.491   2.566  0.2893  0.1498  0.1996
 3351TIP3   OH231467   0.407   4.112  13.146 -0.4577  0.6625 -0.1507
 3351TIP3    H131468   0.368   4.169  13.080  0.3427  2.5567  0.9291
 3351TIP3    H231469   0.381   4.150  13.229  0.0160 -0.6397  0.6187
 3352TIP3   OH231470   6.489   0.034  15.514  0.7299  0.7691 -0.2191
 3352TIP3    H131471   6.535   0.013  15.595 -0.0765  0.8245  0.2661
 3352TIP3    H231472   6.554   0.021  15.445  0.7789 -1.6316  0.2057
 3353TIP3   OH231473   2.030   4.087   2.500 -0.5280  0.1400 -0.4497
 3353TIP3    H131474   2.014   4.084   2.405 -1.2027 -0.0315 -0.3387
 3353TIP3    H231475   1.943   4.072   2.539 -0.4802  1.4548  0.1984
 3354TIP3   OH231476   4.174   2.533  16.698  0.9403 -0.3213 -0.1332
 3354TIP3    H131477   4.141   2.533  16.608  0.4050  0.7253  0.0497
 3354TIP3    H231478   4.099   2.509  16.751  1.5240 -2.0648 -0.0217
 3355TIP3   OH231479   2.531   6.508   3.427  0.3461 -0.0790  0.0125
 3355TIP3    H131480   2.591   6.446   3.385  0.4771 -0.0652  0.1769
 3355TIP3    H231481   2.492   6.556   3.354  0.4662 -0.1521 -0.1016
 3356TIP3   OH231482   3.240   6.365   3.086 -0.2848  0.0579  0.2109
 3356TIP3    H131483   3.253   6.321   3.002 -1.1348  0.5247 -0.1869
 3356TIP3    H231484   3.299   6.321   3.146 -2.0563 -2.5799  0.1845
 3357TIP3   OH231485   5.790   3.391  14.125 -0.2348  0.1749  0.1800
 3357TIP3    H131486   5.791   3.370  14.032  1.7785  2.9570 -0.5604
 3357TIP3    H231487   5.700   3.418  14.143 -1.6141 -3.7418  0.0545
 3358TIP3   OH231488   3.040   4.016  16.367  0.1746  0.1187  0.0807
 3358TIP3    H131489   2.978   3.973  16.426 -0.3082  0.8420  0.1045
 3358TIP3    H231490   3.084   4.081  16.421 -0.1430  0.6606 -0.3063
 3359TIP3   OH231491   4.100   5.421   0.595  0.0445  0.6313  0.1449
 3359TIP3    H131492   4.129   5.485   0.660 -0.5043  1.2589 -0.2230
 3359TIP3    H231493   4.179   5.372   0.572  0.6963  1.8959 -0.3853
 3360TIP3   OH231494   2.255   2.760  10.824  0.0900 -0.0943  0.0399
 3360TIP3    H131495   2.277   2.718  10.740  0.1950  0.5127 -0.2474
 3360TIP3    H231496   2.207   2.839  10.799  3.0539  1.9821  0.3053
 3361TIP3   OH231497   2.007   4.160  13.623  0.1456  0.5990 -0.1882
 3361TIP3    H131498   1.997   4.194  13.534 -0.0744  0.3415 -0.2643
 3361TIP3    H231499   1.983   4.233  13.680 -0.9129  0.3960 -0.3519
 3362TIP3   OH231500   4.989   6.531   2.204 -0.4718 -0.0900  0.8550
 3362TIP3    H131501   4.931   6.525   2.279 -2.4672  1.9946 -0.3839
 3362TIP3    H231502   4.937   6.574   2.136  1.1921 -1.9126 -1.7966
 3363TIP3   OH231503   0.235   5.285  15.247  0.0150  0.6859  0.3763
 3363TIP3    H131504   0.323   5.304  15.216 -0.2486  0.8058 -0.3180
 3363TIP3    H231505   0.217   5.196  15.217 -1.1431  1.6326 -1.9879
 3364TIP3   OH231506   0.077   4.233   4.533  0.2871 -0.0493 -0.6076
 3364TIP3    H131507   0.000   4.197   4.578  0.3194  0.8633  0.1961
 3364TIP3    H231508   0.053   4.231   4.440  0.0430 -1.5393 -0.5440
 3365TIP3   OH231509   3.903   5.357   1.417 -0.0243 -0.3879  0.0341
 3365TIP3    H131510   3.951   5.303   1.354  1.0311  0.7592 -0.1841
 3365TIP3    H231511   3.971   5.410   1.459 -0.8775 -0.1685  1.1894
 3366TIP3   OH231512   0.172   2.394  16.916 -0.0579 -0.4399 -0.3406
 3366TIP3    H131513   0.171   2.482  16.955  2.1940  0.5964 -2.4161
 3366TIP3    H231514   0.263   2.367  16.922 -0.2921 -1.6443 -1.8596
 3367TIP3   OH231515   0.785   2.077   4.447  0.4075 -0.1144  0.3281
 3367TIP3    H131516   0.855   2.135   4.418  1.2636 -2.0697 -1.8367
 3367TIP3    H231517   0.821   1.989   4.436 -1.8274 -1.1518  0.7003
 3368TIP3   OH231518   3.075   3.463  14.768  0.0886  0.1478 -0.2978
 3368TIP3    H131519   3.060   3.383  14.717  1.3819 -0.3954  0.1230
 3368TIP3    H231520   3.085   3.532  14.702  0.6750 -0.3528 -0.7443
 3369TIP3   OH231521   1.741   5.093   2.332 -0.1986  0.1053  0.6343
 3369TIP3    H131522   1.658   5.078   2.377  0.2848 -0.0885  1.4939
 3369TIP3    H231523   1.792   5.014   2.349 -0.4920 -0.5814 -1.4459
 3370TIP3   OH231524   3.578   0.757   3.176  0.1226  0.0430  0.5413
 3370TIP3    H131525   3.509   0.703   3.138  0.2966  0.7109 -0.7842
 3370TIP3    H231526   3.531   0.831   3.215  0.0455  0.2421  0.0806
 3371TIP3   OH231527   3.839   1.808  17.088  0.4696  0.3089 -0.2541
 3371TIP3    H131528   3.772   1.781  17.025  0.0851 -0.4217  0.4356
 3371TIP3    H231529   3.797   1.795  17.173  1.2497  0.5281  0.1700
 3372TIP3   OH231530   0.671   0.015  11.086  0.4627  0.1207 -0.2937
 3372TIP3    H131531   0.592  -0.040  11.093 -0.3947  1.2214 -1.0529
 3372TIP3    H231532   0.658   0.066  11.006  1.9778  0.3033 -0.4508
 3373TIP3   OH231533   1.025   6.292   3.502  0.0318 -0.8378  0.1172
 3373TIP3    H131534   0.971   6.215   3.482 -0.7622 -0.2083 -0.2077
 3373TIP3    H231535   1.003   6.355   3.433 -0.8293  0.4315  1.4949
 3374TIP3   OH231536   4.437   2.580  12.990  0.0278 -0.0565  0.2023
 3374TIP3    H131537   4.519   2.532  13.004 -0.5401 -0.9573  0.5858
 3374TIP3    H231538   4.418   2.621  13.074 -0.0645 -0.1022  0.2045
 3375TIP3   OH231539   1.214   5.363   2.082  0.4486 -0.1214  0.1065
 3375TIP3    H131540   1.227   5.453   2.053  2.1149 -0.4127 -0.1402
 3375TIP3    H231541   1.178   5.317   2.006 -2.0481  0.6627  0.7321
 3376TIP3   OH231542   5.278   0.437   6.771 -0.1387  0.1486  0.1122
 3376TIP3    H131543   5.357   0.388   6.796 -0.1773  0.3338  0.6033
 3376TIP3    H231544   5.275   0.430   6.675 -0.0622 -0.6822  0.1615
 3377TIP3   OH231545   0.407   0.484   0.900 -0.5091  0.5136  0.7073
 3377TIP3    H131546   0.392   0.403   0.949  0.1124  0.3221  0.5884
 3377TIP3    H231547   0.441   0.455   0.815  0.8144  0.9326  1.0717
 3378TIP3   OH231548   4.720   3.563  12.486  0.0124  0.6633 -0.0367
 3378TIP3    H131549   4.653   3.526  12.544 -1.5074  1.0789 -1.4249
 3378TIP3    H231550   4.691   3.536  12.398  2.0062  0.3899 -0.6442
 3379TIP3   OH231551   0.280   0.510   4.510 -0.1043  0.1615  0.1759
 3379TIP3    H131552   0.204   0.550   4.552 -1.1299 -0.6570 -0.8350
 3379TIP3    H231553   0.287   0.423   4.549  0.1431  0.1244  0.0558
 3380TIP3   OH231554   5.929   6.748  14.460  0.0206  0.0923  0.3948
 3380TIP3    H131555   6.003   6.710  14.413 -0.3044  1.4005 -1.2724
 3380TIP3    H231556   5.877   6.673  14.488  0.5636 -0.7783 -0.8290
 3381TIP3   OH231557   3.498   5.190   1.503  0.0013  0.8740 -0.2229
 3381TIP3    H131558   3.470   5.181   1.412  1.4476  2.0410 -0.8182
 3381TIP3    H231559   3.561   5.119   1.515 -1.5326 -0.4511  0.4911
 3382TIP3   OH231560   1.651   3.760   1.721  0.0193 -0.0795 -0.2434
 3382TIP3    H131561   1.620   3.703   1.651  0.0469 -1.0211  0.4868
 3382TIP3    H231562   1.745   3.771   1.704 -0.0902  0.1851 -0.6808
 3383TIP3   OH231563   4.513   4.114  11.783 -0.1276 -0.5172 -0.4175
 3383TIP3    H131564   4.515   4.159  11.699 -0.7783 -0.6749 -0.5190
 3383TIP3    H231565   4.537   4.181  11.848 -1.7564  0.1664 -0.4811
 3384TIP3   OH231566   6.361   5.028   4.673 -0.4735 -0.4874 -0.4960
 3384TIP3    H131567   6.407   5.017   4.757 -0.5369  2.4221  0.0285
 3384TIP3    H231568   6.269   5.014   4.694 -0.5125  0.4616 -0.0203
 3385TIP3   OH231569   2.809   5.978   1.059  0.6579 -0.1487  0.1231
 3385TIP3    H131570   2.715   5.964   1.067  0.6095  0.2773  0.3167
 3385TIP3    H231571   2.833   6.022   1.140  0.7425  1.2207 -0.6304
 3386TIP3   OH231572   0.124   4.013   3.614 -0.4097 -0.2965 -0.2069
 3386TIP3    H131573   0.218   4.033   3.617 -0.1558 -1.2288 -1.4567
 3386TIP3    H231574   0.113   3.960   3.536 -1.6590 -1.8909  0.9721
 3387TIP3   OH231575   2.467   1.690  17.352  0.1347 -0.6018 -0.3196
 3387TIP3    H131576   2.403   1.674  17.283  1.0068  0.7228 -1.4868
 3387TIP3    H231577   2.549   1.653  17.318  0.6573  0.3972 -0.1854
 3388TIP3   OH231578   0.262   1.099  12.392  0.5914  0.2498  0.2710
 3388TIP3    H131579   0.198   1.157  12.352  0.3907 -0.7237 -0.8982
 3388TIP3    H231580   0.217   1.014  12.397  1.8963 -0.5676 -1.0110
 3389TIP3   OH231581   5.321   5.792   3.684 -0.1790  0.1136  1.2199
 3389TIP3    H131582   5.414   5.802   3.704  0.6424 -2.0478 -0.9255
 3389TIP3    H231583   5.301   5.867   3.627  1.4113 -1.2936 -1.4389
 3390TIP3   OH231584   2.031   4.769  14.208  0.9148 -0.0533 -0.0425
 3390TIP3    H131585   2.124   4.775  14.186  0.8712 -1.1683 -0.6252
 3390TIP3    H231586   2.019   4.679  14.238 -0.1932 -0.3273 -1.1755
 3391TIP3   OH231587   3.498   0.149   2.123  0.2927 -0.1879  0.2681
 3391TIP3    H131588   3.512   0.105   2.040 -2.9236  1.1765 -1.1668
 3391TIP3    H231589   3.523   0.240   2.106 -2.0514  0.4927  0.1232
 3392TIP3   OH231590   2.828   4.323  16.982  0.9920 -0.0523 -0.1796
 3392TIP3    H131591   2.903   4.382  16.991  0.1286  1.3569 -1.6870
 3392TIP3    H231592   2.773   4.342  17.057  1.2640  0.2435 -0.0545
 3393TIP3   OH231593   4.239   4.148  11.313  0.0262 -0.1391  0.2861
 3393TIP3    H131594   4.251   4.190  11.228 -3.4453  0.7608  0.0782
 3393TIP3    H231595   4.227   4.056  11.292 -1.0404  0.1096 -0.2735
 3394TIP3   OH231596   0.192   5.801   5.154  1.0568 -0.0481  0.0638
 3394TIP3    H131597   0.106   5.808   5.114  1.8257  1.7038 -1.4916
 3394TIP3    H231598   0.211   5.890   5.184  2.0977 -0.5253  0.8713
 3395TIP3   OH231599   3.040   3.553   1.554 -0.4935  0.0605  0.1963
 3395TIP3    H131600   3.128   3.577   1.526 -0.0377 -1.0893  0.6038
 3395TIP3    H231601   3.034   3.583   1.644 -0.4339 -0.0509  0.2382
 3396TIP3   OH231602   3.983   6.267   2.503 -0.3169  0.4432 -0.4553
 3396TIP3    H131603   3.913   6.329   2.482  0.6142  1.1296 -1.6438
 3396TIP3    H231604   4.064   6.315   2.485  0.4936 -0.2068  1.2566
 3397TIP3   OH231605   0.446   4.561   0.499 -0.4190  0.6615  0.0421
 3397TIP3    H131606   0.449   4.637   0.440 -0.6963  1.1919  0.6952
 3397TIP3    H231607   0.439   4.486   0.441  0.8357  1.0558 -0.6510
 3398TIP3   OH231608   2.902   4.769   3.858 -0.0580 -0.6355 -0.7128
 3398TIP3    H131609   2.915   4.743   3.949  0.6017  0.6443 -0.4153
 3398TIP3    H231610   2.981   4.737   3.813  1.4528  1.9034 -0.0750
 3399TIP3   OH231611   5.507   1.744  11.368 -0.2533 -0.0571 -0.1204
 3399TIP3    H131612   5.508   1.681  11.440 -2.7969 -0.3040 -0.2177
 3399TIP3    H231613   5.535   1.827  11.407 -0.8825 -0.3488  0.9770
 3400TIP3   OH231614   6.644   0.451   3.388  0.2294 -0.4371 -0.2334
 3400TIP3    H131615   6.573   0.459   3.325 -0.7684 -1.2269  0.7497
 3400TIP3    H231616   6.720   0.423   3.336 -0.3913 -0.4047 -1.1674
 3401TIP3   OH231617   6.139   3.609  14.977 -0.8718  0.2228 -0.2107
 3401TIP3    H131618   6.229   3.577  14.976 -0.7128  0.6612 -0.6379
 3401TIP3    H231619   6.087   3.535  14.945 -0.7627 -0.2953  0.7991
 3402TIP3   OH231620   3.793   2.611   5.113  0.8815 -0.6495  0.0818
 3402TIP3    H131621   3.829   2.668   5.045 -0.4390 -0.7931 -0.7572
 3402TIP3    H231622   3.701   2.600   5.090  0.2220 -0.1889  2.2412
 3403TIP3   OH231623   3.791   3.481  11.223 -0.5793 -0.2203 -0.7422
 3403TIP3    H131624   3.846   3.548  11.182  1.2203 -0.7815  0.6204
 3403TIP3    H231625   3.737   3.529  11.285 -0.1989  0.1090 -0.6654
 3404TIP3   OH231626   3.488   6.151   6.515  0.1712  0.2796 -0.2339
 3404TIP3    H131627   3.545   6.213   6.469  1.0349  1.2549  1.9981
 3404TIP3    H231628   3.463   6.197   6.595 -1.7674 -1.1042  0.0110
 3405TIP3   OH231629   5.488   0.561  14.494  0.2254 -0.5334 -0.6099
 3405TIP3    H131630   5.433   0.622  14.542  0.3580 -0.3208 -0.7244
 3405TIP3    H231631   5.576   0.599  14.498  0.5104 -1.2380  0.1965
 3406TIP3   OH231632   1.361   0.554   4.424  0.2302  0.0655 -0.5279
 3406TIP3    H131633   1.389   0.463   4.439  0.5642 -0.2218 -2.5416
 3406TIP3    H231634   1.369   0.596   4.509 -2.5905 -2.4484  1.1788
 3407TIP3   OH231635   2.837   2.581  12.055  0.2379 -0.2021  0.0952
 3407TIP3    H131636   2.779   2.556  12.127 -0.8354 -0.8943 -0.9634
 3407TIP3    H231637   2.824   2.675  12.044  1.2001  0.1066  1.4637
 3408TIP3   OH231638   0.313   1.187   6.223 -0.5123  0.0875  0.0518
 3408TIP3    H131639   0.304   1.214   6.132 -0.4590  0.2453  0.0921
 3408TIP3    H231640   0.270   1.256   6.273  3.5788  2.7097  0.4919
 3409TIP3   OH231641   1.488   5.818  16.893 -0.4609  0.5633 -0.1576
 3409TIP3    H131642   1.505   5.830  16.986 -3.4496 -0.6125  0.6717
 3409TIP3    H231643   1.441   5.897  16.866 -0.6857  0.3773 -0.3280
 3410TIP3   OH231644   3.872   6.080   1.503  0.0920 -0.6841  0.6228
 3410TIP3    H131645   3.842   5.989   1.515 -1.1193 -0.4813 -0.6269
 3410TIP3    H231646   3.851   6.123   1.586 -1.8202 -0.9136  0.3023
 3411TIP3   OH231647   2.438   5.872   2.921  0.0535  0.1570 -0.0426
 3411TIP3    H131648   2.406   5.791   2.882 -1.2858  0.2354  0.8181
 3411TIP3    H231649   2.359   5.920   2.947  0.8101  1.7012 -0.4325
 3412TIP3   OH231650   0.473   4.972   4.305  0.2102 -0.7038  0.3299
 3412TIP3    H131651   0.404   4.915   4.341  0.9121 -1.5062  0.4353
 3412TIP3    H231652   0.426   5.050   4.275 -0.5808 -0.6325  1.6644
 3413TIP3   OH231653   5.055   5.400   5.049 -0.4750 -0.3559 -0.7729
 3413TIP3    H131654   5.139   5.435   5.079 -0.0207 -0.5875 -1.7570
 3413TIP3    H231655   5.009   5.379   5.130  0.4509 -0.3157 -0.2127
 3414TIP3   OH231656   5.356   6.354   1.479 -0.0142 -0.3386 -0.2246
 3414TIP3    H131657   5.329   6.268   1.447  0.3216 -1.1925  1.6793
 3414TIP3    H231658   5.274   6.404   1.486 -0.1346 -0.2168 -2.0044
 3415TIP3   OH231659   2.772   5.078   3.828 -0.1956  0.8563  0.2537
 3415TIP3    H131660   2.858   5.073   3.870  1.1603 -3.3743 -2.3357
 3415TIP3    H231661   2.778   5.152   3.768  1.9743  0.3157 -0.2914
 3416TIP3   OH231662   4.060   2.486  14.933 -0.2883 -0.0631  0.4728
 3416TIP3    H131663   4.025   2.397  14.938  0.1781 -0.2165  1.2044
 3416TIP3    H231664   4.107   2.497  15.016  0.2726  0.6032  0.0704
 3417TIP3   OH231665   6.251   6.442   4.772  0.6630 -0.2778  0.3840
 3417TIP3    H131666   6.193   6.517   4.767  0.1645 -0.5655  1.5940
 3417TIP3    H231667   6.243   6.410   4.862 -1.0067 -3.2487 -0.6690
 3418TIP3   OH231668   3.953   6.649   5.987 -0.2383 -0.9583  0.2668
 3418TIP3    H131669   3.956   6.667   6.082 -1.1467 -0.9040  0.2953
 3418TIP3    H231670   4.045   6.643   5.961  0.0539  0.1204  0.9515
 3419TIP3   OH231671   4.961   2.516   5.772 -0.2390  0.3209  0.1378
 3419TIP3    H131672   4.933   2.453   5.838  0.5760 -0.5670 -0.3527
 3419TIP3    H231673   4.893   2.584   5.774 -1.3945 -0.8042  0.3144
 3420TIP3   OH231674   0.852   6.452  14.387  0.4047  0.1926 -0.0135
 3420TIP3    H131675   0.942   6.465  14.418 -0.8250  0.1707  4.2658
 3420TIP3    H231676   0.849   6.360  14.361  1.1202 -0.5209  2.1821
 3421TIP3   OH231677   2.033   2.295   1.407 -0.4141  0.6418  0.6777
 3421TIP3    H131678   2.027   2.229   1.476 -1.4882  0.8162  0.7632
 3421TIP3    H231679   1.970   2.267   1.341 -0.0706  0.9821  0.2033
 3422TIP3   OH231680   5.116   6.515  11.224  0.5403  0.0168  0.1348
 3422TIP3    H131681   5.154   6.602  11.234 -0.0280  0.4344 -1.2395
 3422TIP3    H231682   5.116   6.499  11.130 -1.0544 -0.7061  0.2251
 3423TIP3   OH231683   2.656   4.400  12.603  0.1342  0.0680  0.3545
 3423TIP3    H131684   2.666   4.463  12.674  1.9338  0.7514 -0.4234
 3423TIP3    H231685   2.583   4.434  12.550 -0.0995  0.4823  0.9396
 3424TIP3   OH231686   4.871   5.003  12.974  0.4600  0.3382  0.4262
 3424TIP3    H131687   4.878   4.916  13.012  2.3779 -0.4447 -1.5256
 3424TIP3    H231688   4.839   4.988  12.885  0.8543  1.6107  0.0473
 3425TIP3   OH231689   2.820   4.379  15.626  0.0324  0.6545  0.0229
 3425TIP3    H131690   2.804   4.367  15.719  3.8771 -1.7458  0.5920
 3425TIP3    H231691   2.785   4.299  15.585  1.1491  0.2340 -0.1273
 3426TIP3   OH231692   3.965   0.187   2.944  0.4360  0.3485 -0.2123
 3426TIP3    H131693   4.008   0.187   3.030  0.1698  0.9618 -0.0716
 3426TIP3    H231694   3.897   0.254   2.951 -1.0502 -1.0925 -0.1873
 3427TIP3   OH231695   6.095   3.727   2.330  0.0586  0.3697 -0.3992
 3427TIP3    H131696   6.093   3.738   2.425 -4.4714 -2.3130  0.1128
 3427TIP3    H231697   6.082   3.815   2.294  0.0370  1.1877  1.5415
 3428TIP3   OH231698   5.557   4.930   2.181 -0.2577  0.2193 -0.0975
 3428TIP3    H131699   5.492   4.953   2.115 -0.9242 -0.6951  0.2195
 3428TIP3    H231700   5.516   4.859   2.232 -0.3397  1.8075  2.1990
 3429TIP3   OH231701   2.003   0.067   4.873 -0.0812  0.0540 -0.1094
 3429TIP3    H131702   1.931   0.128   4.885 -0.1567 -0.3744  2.2193
 3429TIP3    H231703   2.037   0.085   4.786 -2.8585  0.4031 -1.2004
 3430TIP3   OH231704   4.587   4.727  15.335  0.5308 -0.3340 -0.8433
 3430TIP3    H131705   4.584   4.821  15.354 -1.5328 -0.5210  0.0060
 3430TIP3    H231706   4.659   4.718  15.272  0.3585  1.9140 -1.4705
 3431TIP3   OH231707   2.689   0.254   6.207 -0.2671 -0.3272  0.0273
 3431TIP3    H131708   2.605   0.221   6.239 -0.2681 -0.7385 -0.3932
 3431TIP3    H231709   2.723   0.306   6.280 -1.4851  0.9455 -0.2678
 3432TIP3   OH231710   2.430   0.305   2.326  0.1308 -0.7945  0.5790
 3432TIP3    H131711   2.335   0.292   2.322  0.3307 -2.3233  0.3021
 3432TIP3    H231712   2.456   0.320   2.235  0.1363 -0.1870  0.6783
 3433TIP3   OH231713   1.692   6.486  16.422 -0.1089  0.8275 -0.4476
 3433TIP3    H131714   1.771   6.492  16.368  2.1252 -0.4363  2.4639
 3433TIP3    H231715   1.634   6.427  16.373  0.9526  1.2842 -2.3516
 3434TIP3   OH231716   3.527   3.028  15.767 -0.0547  0.0481  0.3234
 3434TIP3    H131717   3.493   2.945  15.733  1.2049 -0.6592  0.7251
 3434TIP3    H231718   3.537   3.013  15.861  0.6925  0.4606  0.3198
 3435TIP3   OH231719   2.138   1.136  13.378  0.6419  0.1710  0.2698
 3435TIP3    H131720   2.133   1.059  13.321 -1.6631 -0.9649  1.8310
 3435TIP3    H231721   2.067   1.123  13.441  0.5343  3.3541  0.9373
 3436TIP3   OH231722   1.558   4.315  14.982  0.5433 -0.4354  0.0049
 3436TIP3    H131723   1.537   4.255  15.053 -0.1258 -1.0281 -0.6760
 3436TIP3    H231724   1.552   4.262  14.903 -0.1148  0.5307 -0.6167
 3437TIP3   OH231725   3.923   0.021  15.237  0.5400 -0.2124 -0.4971
 3437TIP3    H131726   4.018   0.026  15.240  0.7241 -1.5814 -2.0654
 3437TIP3    H231727   3.898   0.072  15.160 -0.0256  0.3662  0.0609
 3438TIP3   OH231728   5.742   4.612  17.141  1.2931 -0.4433  0.0586
 3438TIP3    H131729   5.781   4.619  17.054  0.2995 -0.3885 -0.3869
 3438TIP3    H231730   5.718   4.520  17.149  1.0435 -0.3721  0.1297
 3439TIP3   OH231731   6.690   3.942   0.754 -0.0770  0.2741 -0.5063
 3439TIP3    H131732   6.594   3.933   0.756 -0.1335  0.9786  0.2855
 3439TIP3    H231733   6.709   4.009   0.820  1.0264 -0.4360 -0.0793
 3440TIP3   OH231734   0.423   3.614  15.068 -0.1268 -0.4123  0.0047
 3440TIP3    H131735   0.485   3.687  15.071  0.1942 -0.5722 -1.5349
 3440TIP3    H231736   0.352   3.639  15.127 -0.0837  1.2127 -0.5955
 3441TIP3   OH231737   1.778   1.863  14.656 -0.3373 -0.5773  0.1813
 3441TIP3    H131738   1.801   1.793  14.717  0.3163 -0.9519 -0.4835
 3441TIP3    H231739   1.682   1.863  14.654 -0.3633 -0.6090  1.1446
 3442TIP3   OH231740   3.805   4.344  15.319 -0.1419  0.0303  0.3067
 3442TIP3    H131741   3.730   4.363  15.376 -0.8945  1.9353 -1.1820
 3442TIP3    H231742   3.766   4.300  15.243  0.2040  1.0350 -0.4744
 3443TIP3   OH231743   1.955   6.612  14.055  0.4509 -0.0318 -0.1792
 3443TIP3    H131744   1.872   6.656  14.069  0.1204 -1.1906  1.8808
 3443TIP3    H231745   1.946   6.570  13.969 -0.9314  0.1798 -0.1574
 3444TIP3   OH231746   0.555   0.463   4.121  0.1228 -0.5672  0.7227
 3444TIP3    H131747   0.477   0.476   4.175  0.4254 -1.6131  1.4223
 3444TIP3    H231748   0.609   0.540   4.138 -0.6333  0.0501  0.4156
 3445TIP3   OH231749   1.238   5.855   3.447  0.0458 -0.0367  0.0852
 3445TIP3    H131750   1.187   5.857   3.528 -0.4805  1.3251 -0.2595
 3445TIP3    H231751   1.294   5.933   3.451  0.0317  0.0327 -0.8483
 3446TIP3   OH231752   1.002   4.425  16.848 -0.5046 -0.2245  0.3347
 3446TIP3    H131753   0.922   4.373  16.862  1.2395 -2.8062  1.5746
 3446TIP3    H231754   1.044   4.382  16.773 -0.1913  1.0256 -0.2175
 3447TIP3   OH231755   1.995   1.270  16.118 -0.0779  0.6247 -0.2671
 3447TIP3    H131756   1.994   1.209  16.044 -0.6474 -0.6774  0.7619
 3447TIP3    H231757   1.937   1.230  16.183 -0.1158  2.0573  0.6387
 3448TIP3   OH231758   1.181   6.740  14.961 -0.0753  0.0127 -0.0114
 3448TIP3    H131759   1.086   6.744  14.946 -0.3664 -1.1933  1.2543
 3448TIP3    H231760   1.200   6.646  14.972  0.7415  0.3743  2.5011
 3449TIP3   OH231761   2.328   1.768   6.140  0.1442 -0.7089  0.4010
 3449TIP3    H131762   2.363   1.751   6.227 -0.2629  0.7853  0.8845
 3449TIP3    H231763   2.301   1.682   6.108  3.1053 -1.7716  0.4574
 3450TIP3   OH231764   5.591   3.256  13.694 -0.2557 -0.4235  0.0766
 3450TIP3    H131765   5.506   3.242  13.737 -0.1399  0.3636  0.5998
 3450TIP3    H231766   5.570   3.264  13.601 -0.3063 -4.0936 -0.3803
 3451TIP3   OH231767   1.971   1.785  15.414  0.2413 -0.0309 -0.3576
 3451TIP3    H131768   1.910   1.830  15.356  0.0102  0.5218  0.2995
 3451TIP3    H231769   2.052   1.837  15.409  0.4945 -0.4586 -0.8176
 3452TIP3   OH231770   5.231   0.034   5.666  0.5886 -0.2723 -0.6426
 3452TIP3    H131771   5.294  -0.022   5.622 -0.4780 -0.0310 -2.5618
 3452TIP3    H231772   5.267   0.122   5.659  0.0935 -0.1467 -1.6548
 3453TIP3   OH231773   0.730   1.691   5.157 -0.5953  0.1569 -0.0186
 3453TIP3    H131774   0.641   1.684   5.121 -0.1197 -1.2354 -1.0062
 3453TIP3    H231775   0.770   1.763   5.108 -1.2241  0.8858  0.5335
 3454TIP3   OH231776   2.139   4.014   2.228  0.2955 -0.6090 -0.0461
 3454TIP3    H131777   2.067   4.076   2.214 -0.0787 -0.9621  0.2804
 3454TIP3    H231778   2.213   4.068   2.254  0.1167 -0.2487 -0.2808
 3455TIP3   OH231779   2.182   6.434   1.197  0.6109  0.4496  0.3618
 3455TIP3    H131780   2.138   6.519   1.188  1.0663  0.7023  0.5291
 3455TIP3    H231781   2.148   6.382   1.125  0.5790  0.8812  0.0619
 3456TIP3   OH231782   5.456   3.954  12.888 -0.0062  0.2249 -0.5046
 3456TIP3    H131783   5.379   3.897  12.875  0.6101 -0.3989 -1.5407
 3456TIP3    H231784   5.422   4.028  12.937 -1.1805 -0.2754 -0.5154
 3457TIP3   OH231785   0.932   2.780  14.711 -0.0780 -0.0615  0.0682
 3457TIP3    H131786   0.871   2.761  14.781 -0.2484  0.0024 -0.0631
 3457TIP3    H231787   0.976   2.697  14.694 -0.5023 -0.2328 -0.2011
 3458TIP3   OH231788   3.727   2.625  14.366 -0.4617  0.3775  0.4972
 3458TIP3    H131789   3.653   2.611  14.425 -1.8926 -0.1860 -1.3526
 3458TIP3    H231790   3.803   2.593  14.416 -2.0476 -3.4866  0.7920
 3459TIP3   OH231791   5.819   2.227   5.730  0.3538 -0.3088  0.6482
 3459TIP3    H131792   5.730   2.260   5.739 -0.0354 -1.0859 -0.1438
 3459TIP3    H231793   5.872   2.286   5.783 -0.9162 -1.2120  3.0397
 3460TIP3   OH231794   4.498   2.512   1.623 -0.1098 -0.4295 -0.3536
 3460TIP3    H131795   4.590   2.512   1.597  0.9429 -1.1422  2.9222
 3460TIP3    H231796   4.462   2.432   1.586  1.4916 -1.8079  0.9161
 3461TIP3   OH231797   1.489   4.742  15.295 -0.3056 -0.8159  0.3421
 3461TIP3    H131798   1.550   4.684  15.339  1.2687 -0.0993 -0.8063
 3461TIP3    H231799   1.489   4.822  15.347 -0.2695 -0.8195  0.3472
 3462TIP3   OH231800   5.615   4.073   5.025  0.4685  0.2023 -0.1923
 3462TIP3    H131801   5.674   4.100   4.954  0.5192 -1.7360 -0.9642
 3462TIP3    H231802   5.537   4.042   4.980 -0.0119  0.1066  0.6897
 3463TIP3   OH231803   2.629   2.866  15.683  0.4089  0.0378 -0.1622
 3463TIP3    H131804   2.553   2.909  15.643  0.9352  1.1973  0.0433
 3463TIP3    H231805   2.617   2.878  15.777  1.0281  0.5831 -0.1409
 3464TIP3   OH231806   1.594   5.001   0.425 -0.1573  0.2858  0.3523
 3464TIP3    H131807   1.532   5.069   0.448  1.2662  2.3303 -1.4142
 3464TIP3    H231808   1.604   5.008   0.330  1.5440 -1.0239  0.3714
 3465TIP3   OH231809   0.582   4.456  14.094  0.2102  0.4860 -0.2793
 3465TIP3    H131810   0.651   4.519  14.076  0.0299  0.6062 -0.5530
 3465TIP3    H231811   0.623   4.371  14.082  0.6755  0.5248  0.8726
 3466TIP3   OH231812   2.574   1.073   3.443 -0.1596  0.7606 -0.1572
 3466TIP3    H131813   2.638   1.138   3.472  0.6658  0.8614 -2.1003
 3466TIP3    H231814   2.619   1.022   3.376 -2.3180  1.3884 -2.2301
 3467TIP3   OH231815   0.344   3.649  12.160 -0.6930 -0.3238  0.3343
 3467TIP3    H131816   0.417   3.685  12.209 -0.0671 -1.2330  0.0917
 3467TIP3    H231817   0.270   3.654  12.220 -0.2571 -0.1363  0.8605
 3468TIP3   OH231818   4.275   6.121   3.831 -0.2478  0.4886 -0.9357
 3468TIP3    H131819   4.192   6.117   3.785 -0.2265 -0.2915 -0.9093
 3468TIP3    H231820   4.327   6.185   3.782 -0.7867  0.8291 -1.0639
 3469TIP3   OH231821   5.456   2.258   6.244  0.2839 -0.5383 -0.1948
 3469TIP3    H131822   5.495   2.336   6.283 -0.2579 -0.1661 -0.3802
 3469TIP3    H231823   5.498   2.252   6.158 -2.3508  1.8113 -1.8426
 3470TIP3   OH231824   0.541   2.881   4.324 -0.2893 -0.0685 -0.5121
 3470TIP3    H131825   0.589   2.956   4.359  1.1595 -1.1780  0.0081
 3470TIP3    H231826   0.509   2.835   4.402 -0.3049 -0.5090 -0.7743
 3471TIP3   OH231827   6.693   0.218  12.726 -0.2361  0.0891  0.2529
 3471TIP3    H131828   6.668   0.291  12.783  1.5881  1.9999 -1.2332
 3471TIP3    H231829   6.611   0.175  12.704 -1.1491  0.2125  2.9951
 3472TIP3   OH231830   1.376   4.809   6.629  0.1223 -0.0877 -0.1676
 3472TIP3    H131831   1.287   4.790   6.602  0.4746 -2.5035  0.2130
 3472TIP3    H231832   1.398   4.741   6.693  2.1376  0.6274 -0.0099
 3473TIP3   OH231833   4.080   3.657  15.626 -0.2187  0.4547 -0.2680
 3473TIP3    H131834   4.121   3.601  15.560 -0.6735 -1.4945  1.0264
 3473TIP3    H231835   3.987   3.657  15.603 -0.6619 -1.6420  1.2566
 3474TIP3   OH231836   6.208   5.215  15.601 -0.2758  0.3624 -0.0900
 3474TIP3    H131837   6.196   5.223  15.695 -0.7895  1.4167 -0.2319
 3474TIP3    H231838   6.170   5.296  15.565 -1.3482 -0.6398 -1.3033
 3475TIP3   OH231839   4.004   0.844  14.889  0.3744  0.3264 -0.1574
 3475TIP3    H131840   4.048   0.927  14.909  2.1064 -0.4694 -0.4251
 3475TIP3    H231841   3.931   0.839  14.951  1.4146  1.1682  1.1938
 3476TIP3   OH231842   1.337   2.042  11.762  0.1514  0.0249  0.3482
 3476TIP3    H131843   1.310   1.987  11.689  1.7945 -0.5999  0.1699
 3476TIP3    H231844   1.327   2.132  11.731 -2.0133 -0.1214  0.4424
 3477TIP3   OH231845   6.047   0.205  13.603  0.4386 -0.4460  0.0798
 3477TIP3    H131846   6.028   0.128  13.550  1.7284 -0.6317 -0.1459
 3477TIP3    H231847   6.139   0.223  13.586 -0.4185  2.8610 -2.1693
 3478TIP3   OH231848   6.721   4.911   6.022 -0.4229 -0.7192  0.9029
 3478TIP3    H131849   6.663   4.975   5.980 -1.5556 -0.7500  2.3579
 3478TIP3    H231850   6.697   4.913   6.114  1.0187 -1.7003  1.3370
 3479TIP3   OH231851   2.096   2.957  12.735 -0.3656 -0.1004  0.1048
 3479TIP3    H131852   2.191   2.957  12.728 -0.4089  0.6945 -0.7685
 3479TIP3    H231853   2.078   2.961  12.829  0.5384  3.2457  0.2874
 3480TIP3   OH231854   3.298   1.291  12.042  0.3740  0.2568  0.3754
 3480TIP3    H131855   3.231   1.356  12.067 -0.6025 -0.3261 -0.6590
 3480TIP3    H231856   3.274   1.213  12.091  0.4061  0.1035  0.1466
 3481TIP3   OH231857   2.273   1.621  17.174 -0.3208  0.1464  0.6620
 3481TIP3    H131858   2.309   1.545  17.127 -1.6167  0.6917 -1.3242
 3481TIP3    H231859   2.219   1.666  17.109 -0.7356  1.9894  2.2053
 3482TIP3   OH231860   5.730   4.116   5.297  0.1730 -0.2820  0.0682
 3482TIP3    H131861   5.656   4.125   5.358 -0.0284  0.2531 -0.2454
 3482TIP3    H231862   5.689   4.096   5.213  0.3200  0.9066 -0.2980
 3483TIP3   OH231863   5.807   4.343   5.445 -0.0336  0.1645  0.4486
 3483TIP3    H131864   5.790   4.256   5.408 -1.0339  0.2165  0.7618
 3483TIP3    H231865   5.737   4.398   5.409  0.2131  0.6876  0.7667
 3484TIP3   OH231866   2.013   2.164  15.359 -0.0325  0.6205  0.3736
 3484TIP3    H131867   2.092   2.122  15.325  0.1536  1.0844  0.2218
 3484TIP3    H231868   1.990   2.113  15.437  0.2393  0.2964  0.2410
 3485TIP3   OH231869   6.137   1.811   0.051 -0.2211 -0.3344 -0.5724
 3485TIP3    H131870   6.133   1.892  -0.000 -1.5890 -0.2606 -0.3841
 3485TIP3    H231871   6.228   1.782   0.043  1.3535  3.0387  2.1573
 3486TIP3   OH231872   2.839   4.104   4.587 -0.0389 -0.0321 -0.0627
 3486TIP3    H131873   2.931   4.105   4.613  0.0025 -1.3486 -0.1089
 3486TIP3    H231874   2.841   4.084   4.493 -0.4189 -1.9689  0.3091
 3487TIP3   OH231875   5.287   2.977   0.570 -0.0799 -0.5625 -0.8958
 3487TIP3    H131876   5.307   3.012   0.483  1.0266  1.0642 -0.0470
 3487TIP3    H231877   5.373   2.968   0.613 -0.7347  1.7952  1.1239
 3488TIP3   OH231878   5.604   4.184  12.095  0.2101  0.3272 -0.2022
 3488TIP3    H131879   5.692   4.201  12.062  1.5162 -2.8509  1.2333
 3488TIP3    H231880   5.596   4.237  12.174  2.9652 -2.8327  2.5017
 3489TIP3   OH231881   2.683   4.351  14.021  0.2877 -0.3426  0.1157
 3489TIP3    H131882   2.655   4.362  14.112  0.3241 -2.4332  0.4312
 3489TIP3    H231883   2.772   4.386  14.019  0.1678  0.0201  0.8061
 3490TIP3   OH231884   4.296   4.010   4.519  0.0390 -0.0549  0.0727
 3490TIP3    H131885   4.252   4.030   4.601  0.9501  0.9156  0.3512
 3490TIP3    H231886   4.366   4.075   4.513  0.5248 -0.6527 -1.0531
 3491TIP3   OH231887   6.400   1.229   4.701  0.3455  0.3869  0.3456
 3491TIP3    H131888   6.470   1.280   4.659 -0.2409 -0.0252 -1.2120
 3491TIP3    H231889   6.379   1.278   4.780  0.0500  2.4415 -0.9167
 3492TIP3   OH231890   3.868   1.498   4.790 -0.1856  0.5902  0.6223
 3492TIP3    H131891   3.948   1.451   4.765 -1.8731 -1.2280 -1.8746
 3492TIP3    H231892   3.876   1.584   4.749 -0.6962 -0.6286 -2.2678
 3493TIP3   OH231893   2.503   3.951   2.763  0.3150  0.1161  0.3981
 3493TIP3    H131894   2.572   3.897   2.724  1.7422  1.1920  1.3421
 3493TIP3    H231895   2.544   4.035   2.779 -0.7558  0.3210  2.4351
 3494TIP3   OH231896   1.004   1.694  16.161  0.2236 -0.2735  0.1311
 3494TIP3    H131897   0.986   1.692  16.255  1.0132  0.5510  0.3103
 3494TIP3    H231898   1.028   1.603  16.139 -0.6539 -0.6214  0.5737
 3495TIP3   OH231899   1.981   5.446  17.255 -0.0296  0.4762  0.6220
 3495TIP3    H131900   1.948   5.432  17.344 -1.3342  0.8506  0.2089
 3495TIP3    H231901   1.940   5.527  17.226 -0.5701 -0.2593 -0.7600
 3496TIP3   OH231902   3.980   5.199  14.120  0.1167  0.2861  0.5673
 3496TIP3    H131903   4.021   5.145  14.188 -2.5373 -0.7738  1.4853
 3496TIP3    H231904   3.913   5.249  14.168  0.4645  2.1259 -0.7766
 3497TIP3   OH231905   5.272   5.779   2.303 -0.5062 -0.0084  0.3271
 3497TIP3    H131906   5.249   5.688   2.320  1.3529 -0.4429  0.7551
 3497TIP3    H231907   5.277   5.819   2.390 -0.2316  0.1985  0.2201
 3498TIP3   OH231908   0.802   1.128  16.724 -0.0498  0.2553  0.3028
 3498TIP3    H131909   0.864   1.199  16.742  1.1558 -0.4342 -0.9625
 3498TIP3    H231910   0.719   1.160  16.759  0.3389  2.5164 -0.6516
 3499TIP3   OH231911   5.952   5.213   4.887  0.1642 -0.1109 -0.2620
 3499TIP3    H131912   5.869   5.241   4.850  0.7810  0.4977 -1.2310
 3499TIP3    H231913   5.932   5.191   4.978 -1.0490  0.0044 -0.4934
 3500TIP3   OH231914   4.102   5.522   6.064  0.3626 -0.5956 -0.2116
 3500TIP3    H131915   4.130   5.595   6.009  1.1196 -0.2533  0.6107
 3500TIP3    H231916   4.010   5.541   6.083  0.9234  1.0125  1.2569
 3501TIP3   OH231917   0.712   1.635   1.908 -0.6867 -0.4746  0.4560
 3501TIP3    H131918   0.682   1.726   1.909 -0.9153 -0.4573 -1.7970
 3501TIP3    H231919   0.735   1.619   1.816 -0.3839 -2.6094  0.8587
 3502TIP3   OH231920   5.297   0.633   0.285 -0.5755 -0.1503  0.0572
 3502TIP3    H131921   5.263   0.557   0.239  0.7977 -1.7575  1.5549
 3502TIP3    H231922   5.358   0.673   0.223 -2.2290  0.5179 -1.2038
 3503TIP3   OH231923   2.882   2.560   2.712  0.1175 -0.2444 -0.4517
 3503TIP3    H131924   2.839   2.490   2.664 -1.0651 -0.6764  1.1598
 3503TIP3    H231925   2.924   2.517   2.786  0.8153  0.5481 -0.3649
 3504TIP3   OH231926   4.728   6.581  15.606 -0.7001  0.2301 -0.1694
 3504TIP3    H131927   4.685   6.514  15.552  0.3898 -3.1911  2.8176
 3504TIP3    H231928   4.672   6.591  15.682  0.3609  0.9365  0.5496
 3505TIP3   OH231929   4.756   3.855  13.152  0.0129  0.3054 -0.4048
 3505TIP3    H131930   4.691   3.861  13.222  1.6564  0.1297  1.2454
 3505TIP3    H231931   4.817   3.926  13.171 -0.8167  1.9082 -3.2185
 3506TIP3   OH231932   0.480   1.282  16.378 -0.1051 -0.1917 -0.3585
 3506TIP3    H131933   0.448   1.311  16.463  1.5849 -0.1867  0.3189
 3506TIP3    H231934   0.408   1.231  16.341 -1.7469  1.7144  0.0423
 3507TIP3   OH231935   4.141   3.054  15.374  0.5736 -0.4424 -0.1201
 3507TIP3    H131936   4.047   3.046  15.358  0.1928  2.3879  0.2256
 3507TIP3    H231937   4.149   3.061  15.469  1.0523 -0.1349 -0.1757
 3508TIP3   OH231938   3.886   2.800  13.054 -0.5546  0.2407  0.1172
 3508TIP3    H131939   3.924   2.852  13.125  2.0665 -1.2034 -0.0771
 3508TIP3    H231940   3.851   2.865  12.992  0.4934  1.6710  0.9690
 3509TIP3   OH231941   4.468   2.514   2.793  0.5786 -0.1587 -0.4809
 3509TIP3    H131942   4.443   2.599   2.830  2.0063  0.9556 -1.9341
 3509TIP3    H231943   4.487   2.459   2.870 -0.4599  0.7697  0.4881
 3510TIP3   OH231944   5.880   5.362  15.917 -0.1205  0.0281 -0.6518
 3510TIP3    H131945   5.907   5.437  15.864 -3.0463  0.8025 -1.2448
 3510TIP3    H231946   5.888   5.392  16.007  1.8602 -0.1703 -0.7188
 3511TIP3   OH231947   0.639   4.813  16.512  0.0837 -0.4435 -0.3326
 3511TIP3    H131948   0.713   4.837  16.456  0.3678  3.5377  1.3888
 3511TIP3    H231949   0.680   4.793  16.597 -0.6774  1.7826  0.6351
 3512TIP3   OH231950   5.480   1.701   3.563  0.0214 -0.1811  0.2307
 3512TIP3    H131951   5.389   1.700   3.533 -0.3052 -1.1911  1.1786
 3512TIP3    H231952   5.479   1.758   3.640  0.6614  1.6123 -1.0313
 3513TIP3   OH231953   5.222   1.236   5.536  0.4232 -0.3697 -0.3741
 3513TIP3    H131954   5.142   1.218   5.585  0.3321 -0.8820 -0.7026
 3513TIP3    H231955   5.208   1.324   5.500  0.8650  0.3859  1.2274
 3514TIP3   OH231956   6.691   1.359   0.678 -0.2206 -0.6588 -0.6439
 3514TIP3    H131957   6.640   1.359   0.759 -1.5273  0.9388 -1.4190
 3514TIP3    H231958   6.696   1.266   0.653  1.0763 -1.3290  1.7263
 3515TIP3   OH231959   3.157   4.685   2.478 -0.3743 -0.3494 -0.2834
 3515TIP3    H131960   3.150   4.592   2.497 -1.8821 -0.6330 -2.0209
 3515TIP3    H231961   3.104   4.728   2.545  1.0507 -0.6039  1.0811
 3516TIP3   OH231962   2.236   1.830  11.513  0.1608  0.3334 -0.0242
 3516TIP3    H131963   2.145   1.857  11.500 -0.0243  0.0691  0.7384
 3516TIP3    H231964   2.246   1.822  11.607  0.8791  0.0029 -0.1235
 3517TIP3   OH231965   5.379   1.745  15.647  0.2011 -0.8159 -0.0030
 3517TIP3    H131966   5.372   1.775  15.738  0.3554 -1.4685  0.2283
 3517TIP3    H231967   5.352   1.821  15.595 -3.4640 -1.4730  0.6714
 3518TIP3   OH231968   2.138   0.838  13.317 -0.5560  0.8327 -0.6393
 3518TIP3    H131969   2.184   0.809  13.396  0.5844  3.4827 -0.2078
 3518TIP3    H231970   2.190   0.802  13.245 -0.9839 -0.6954 -0.2229
 3519TIP3   OH231971   5.167   1.608   1.019 -0.1700  0.1009 -0.0377
 3519TIP3    H131972   5.198   1.657   0.943  1.2057  1.0911  1.1333
 3519TIP3    H231973   5.242   1.604   1.078 -0.2929 -3.2263  0.0539
 3520TIP3   OH231974   0.220   3.248   4.904 -0.2700 -0.1282  0.0345
 3520TIP3    H131975   0.314   3.232   4.905  0.3817  2.8272 -0.9655
 3520TIP3    H231976   0.200   3.266   4.812 -1.1656  2.0141  0.5667
 3521TIP3   OH231977   0.145   0.273   6.045  0.1468 -0.5345 -0.2154
 3521TIP3    H131978   0.171   0.229   6.126 -1.0036  1.6883  1.4793
 3521TIP3    H231979   0.217   0.334   6.027  0.0455 -0.4787 -0.4428
 3522TIP3   OH231980   5.812   6.047  12.835  0.2429 -1.2757  0.0080
 3522TIP3    H131981   5.821   5.984  12.763  1.0270  0.0830 -1.1325
 3522TIP3    H231982   5.738   6.101  12.810  0.4309 -0.8866  0.2905
 3523TIP3   OH231983   1.816   1.025  12.571 -0.3541  0.8145  0.0591
 3523TIP3    H131984   1.882   1.056  12.509  0.4837 -0.7452  0.1024
 3523TIP3    H231985   1.733   1.058  12.538  0.2078  0.9508 -1.2631
 3524TIP3   OH231986   1.451   3.011  14.908  0.6111  0.6400  0.5428
 3524TIP3    H131987   1.473   2.918  14.897  0.7542  0.4655  2.1148
 3524TIP3    H231988   1.534   3.057  14.900  0.4000  0.7699 -1.3047
 3525TIP3   OH231989   3.650   3.220  13.553 -0.1547  0.1537 -0.3710
 3525TIP3    H131990   3.586   3.278  13.595  0.5090  0.7091 -0.1063
 3525TIP3    H231991   3.597   3.155  13.507 -0.9087 -0.4143  1.2300
 3526TIP3   OH231992   5.107   6.541   3.766 -0.1319 -0.1198 -0.5135
 3526TIP3    H131993   5.017   6.509   3.760  0.1524 -1.3599  1.2215
 3526TIP3    H231994   5.153   6.494   3.696 -0.7173  0.2201 -1.1484
 3527TIP3   OH231995   2.328   2.644  14.275  0.9023 -1.0727 -0.0180
 3527TIP3    H131996   2.345   2.697  14.353 -0.2198  0.4877 -0.7937
 3527TIP3    H231997   2.370   2.691  14.204  1.1975 -2.0467 -0.5091
 3528TIP3   OH231998   1.469   3.773   6.032  0.1771 -0.2700  0.2753
 3528TIP3    H131999   1.528   3.719   6.086 -0.5900 -0.0728  1.3394
 3528TIP3    H232000   1.398   3.797   6.091 -0.4813  0.3074 -0.7273
 3529TIP3   OH232001   1.836   1.778   1.644 -0.3071 -0.0393  0.1556
 3529TIP3    H132002   1.849   1.716   1.716 -1.7361  0.4112  0.8269
 3529TIP3    H232003   1.820   1.722   1.568 -1.3590 -0.5140  0.7090
 3530TIP3   OH232004   4.376   6.508   0.889  0.3518  0.2225 -0.2023
 3530TIP3    H132005   4.390   6.431   0.834 -0.2985 -0.0244 -0.0266
 3530TIP3    H232006   4.288   6.537   0.868 -0.2578 -0.4039  1.3396
 3531TIP3   OH232007   1.326   1.288   0.597  0.3602  0.0855 -0.1791
 3531TIP3    H132008   1.403   1.231   0.597 -0.1606 -0.6353  0.2705
 3531TIP3    H232009   1.255   1.232   0.628 -0.4236  0.6414 -0.9509
 3532TIP3   OH232010   1.589   0.959  12.375 -0.1579  0.0340 -0.4786
 3532TIP3    H132011   1.632   0.874  12.384  1.6790  0.6970 -2.3559
 3532TIP3    H232012   1.528   0.947  12.302 -3.4963 -0.9268  2.2102
 3533TIP3   OH232013   3.430   4.664   4.604  0.3998 -0.1388  0.3223
 3533TIP3    H132014   3.517   4.622   4.602  1.2690  1.1473  3.7926
 3533TIP3    H232015   3.437   4.729   4.674 -3.2108  0.4950  0.2537
 3534TIP3   OH232016   4.225   2.541   3.698  0.5671  0.0478 -0.1779
 3534TIP3    H132017   4.274   2.492   3.632 -0.3022 -0.4782 -0.4495
 3534TIP3    H232018   4.172   2.474   3.742 -1.0342  0.7986 -0.8918
 3535TIP3   OH232019   1.323   6.278  16.570  0.3246  0.0472 -0.0506
 3535TIP3    H132020   1.293   6.254  16.657  1.3794 -1.5559 -0.0814
 3535TIP3    H232021   1.372   6.202  16.540 -0.8711  0.1165 -2.4701
 3536TIP3   OH232022   4.218   0.971  16.195 -0.1130  0.7386  0.7178
 3536TIP3    H132023   4.244   1.059  16.219  1.2327  1.4982 -2.9269
 3536TIP3    H232024   4.289   0.939  16.139 -1.6385 -1.7595  0.0430
 3537TIP3   OH232025   4.314   5.854  11.607  0.1041 -0.3046 -0.1430
 3537TIP3    H132026   4.234   5.886  11.565  0.1642  0.4303  0.2863
 3537TIP3    H232027   4.372   5.833  11.533  0.2784  1.1647 -0.4710
 3538TIP3   OH232028   5.441   1.542   3.245  0.1649 -0.5372  0.5981
 3538TIP3    H132029   5.527   1.517   3.279 -0.4794 -0.0327  2.7522
 3538TIP3    H232030   5.434   1.497   3.161  1.6673 -2.2916  1.3534
 3539TIP3   OH232031   0.771   0.170  17.265 -0.8844  0.1304  0.1493
 3539TIP3    H132032   0.836   0.238  17.247 -0.7392 -0.6508 -2.8107
 3539TIP3    H232033   0.786   0.104  17.197 -3.5612 -0.9698  0.5048
 3540TIP3   OH232034   6.401   6.595  15.137  0.7339  0.1446 -0.2033
 3540TIP3    H132035   6.481   6.646  15.125  1.6220 -0.8850  1.0418
 3540TIP3    H232036   6.370   6.578  15.048  1.9201  0.5495 -0.7108
 3541TIP3   OH232037   3.005   1.395  13.639  0.0697 -0.3366  0.2138
 3541TIP3    H132038   3.088   1.428  13.673 -1.4010  1.1624  2.6441
 3541TIP3    H232039   2.998   1.307  13.676  0.4233 -0.3268  0.3081
 3542TIP3   OH232040   4.613   5.155  13.378 -0.1325 -0.0750  0.0847
 3542TIP3    H132041   4.676   5.093  13.342 -0.3983 -0.1196 -0.3166
 3542TIP3    H232042   4.664   5.235  13.391  0.0644 -0.1832 -0.0080
 3543TIP3   OH232043   0.179   1.963  14.743 -0.5610 -0.8200  0.0982
 3543TIP3    H132044   0.163   1.949  14.836  0.6433 -0.8467  0.3189
 3543TIP3    H232045   0.103   2.013  14.712  0.4338  1.9722  1.7901
 3544TIP3   OH232046   3.472   4.978  12.837 -0.3746 -0.1363 -0.5273
 3544TIP3    H132047   3.486   5.053  12.894  0.4773 -0.9909  0.4361
 3544TIP3    H232048   3.475   5.014  12.748  1.4822  0.7839 -0.1385
 3545TIP3   OH232049   1.443   1.725   2.400  0.2565  0.5467 -0.4770
 3545TIP3    H132050   1.350   1.705   2.384  0.7246 -2.0966 -0.3242
 3545TIP3    H232051   1.489   1.682   2.328  1.5234 -0.2978  0.8001
 3546TIP3   OH232052   1.306   0.185   5.383  0.0477  0.0364 -0.3700
 3546TIP3    H132053   1.293   0.097   5.349 -0.3083  0.0171 -0.1866
 3546TIP3    H232054   1.219   0.214   5.410 -0.2746  1.3803 -2.6574
 3547TIP3   OH232055   1.645   4.490  17.050  0.1908 -0.3288  0.1229
 3547TIP3    H132056   1.734   4.471  17.081 -0.2876 -1.5281  0.8501
 3547TIP3    H232057   1.616   4.408  17.011 -0.6919 -0.0295  0.1342
 3548TIP3   OH232058   1.242   2.350  12.727 -0.2228  0.1073  0.0231
 3548TIP3    H132059   1.337   2.350  12.718 -0.2755  1.2070 -0.7024
 3548TIP3    H232060   1.226   2.348  12.821  0.4792 -1.9439  0.1468
 3549TIP3   OH232061   6.312   4.698   5.003  0.4133  0.2142 -0.0758
 3549TIP3    H132062   6.333   4.788   5.025  1.4293 -0.0437  0.0301
 3549TIP3    H232063   6.277   4.703   4.914 -1.2241  0.9215  0.5694
 3550TIP3   OH232064   1.211   5.493  13.724  0.5972  0.2032  0.1185
 3550TIP3    H132065   1.254   5.544  13.793 -1.9970  1.7172  0.7666
 3550TIP3    H232066   1.235   5.537  13.643  2.4671 -0.6927  0.1374
 3551TIP3   OH232067   1.170   5.049   4.010 -0.1826 -0.4116  0.6065
 3551TIP3    H132068   1.227   5.052   4.086 -0.9352 -0.2280  1.1684
 3551TIP3    H232069   1.091   5.005   4.041 -0.8547  0.4730  0.1785
 3552TIP3   OH232070   6.769   0.298  10.587  0.2180  0.1152 -0.8352
 3552TIP3    H132071   6.695   0.284  10.529  1.3104 -0.7204 -2.0910
 3552TIP3    H232072   6.825   0.360  10.540 -0.1749  1.6158  0.5848
 3553TIP3   OH232073   4.816   5.007  13.295 -0.2891  0.1891  0.1075
 3553TIP3    H132074   4.912   5.007  13.289 -0.2432  1.2281  0.6694
 3553TIP3    H232075   4.790   4.925  13.253  0.7392  0.7197 -1.6860
 3554TIP3   OH232076   0.111   5.469   4.992 -0.1636  0.3238 -0.6322
 3554TIP3    H132077   0.033   5.448   5.044 -0.0449  1.6199  0.1079
 3554TIP3    H232078   0.167   5.518   5.051 -0.4057  2.6440 -2.1697
 3555TIP3   OH232079   6.206   6.092  13.868  0.4881 -0.4994  0.6485
 3555TIP3    H132080   6.231   6.000  13.864  0.2932 -0.5041 -1.0625
 3555TIP3    H232081   6.285   6.137  13.898  0.6750 -1.1803  1.1952
 3556TIP3   OH232082   4.535   3.218  13.700  0.1366  0.4156 -0.1247
 3556TIP3    H132083   4.490   3.218  13.784  0.3546  0.9046 -0.0011
 3556TIP3    H232084   4.597   3.291  13.707  1.2411 -0.4848 -0.1268
 3557TIP3   OH232085   0.957   3.341  13.808 -0.9471  0.2424 -0.6016
 3557TIP3    H132086   0.999   3.414  13.762 -0.4413  0.0735 -0.4188
 3557TIP3    H232087   0.879   3.380  13.848  0.6530  1.3227  1.6621
 3558TIP3   OH232088   5.673   1.194  14.814  0.0512  0.2976  0.0386
 3558TIP3    H132089   5.675   1.284  14.780  1.9355 -0.0992 -0.9860
 3558TIP3    H232090   5.762   1.162  14.803 -0.4838 -1.5663  0.8164
 3559TIP3   OH232091   3.864   5.008   5.951  0.4868 -0.2104  0.1282
 3559TIP3    H132092   3.858   4.920   5.988  0.5560  0.5266  2.0266
 3559TIP3    H232093   3.949   5.009   5.907  0.4342 -1.1218 -0.0283
 3560TIP3   OH232094   3.697   6.185  16.752  0.3027 -0.3332 -0.1174
 3560TIP3    H132095   3.696   6.112  16.815  0.8800  0.4470  0.8167
 3560TIP3    H232096   3.743   6.255  16.797 -0.5274  0.7380 -0.8834
 3561TIP3   OH232097   3.720   2.778   4.474 -0.4541 -0.0343  0.5423
 3561TIP3    H132098   3.626   2.796   4.475 -0.9913 -2.4390 -0.6782
 3561TIP3    H232099   3.742   2.766   4.382  1.4260  1.9876  0.6547
 3562TIP3   OH232100   0.717   6.405  10.931  0.0593  0.2070 -0.3203
 3562TIP3    H132101   0.635   6.397  10.882 -0.5099 -0.7857  0.7372
 3562TIP3    H232102   0.732   6.317  10.966 -0.2070  1.1183  2.2639
 3563TIP3   OH232103   1.590   6.105  11.673  0.3007 -0.1478 -0.0624
 3563TIP3    H132104   1.587   6.195  11.639  0.3128  0.1679  0.7412
 3563TIP3    H232105   1.506   6.068  11.649 -0.0399  0.3576  0.3249
 3564TIP3   OH232106   2.778   1.881   2.274  0.0853  0.5725 -0.4023
 3564TIP3    H132107   2.690   1.870   2.237  0.9142  0.0894 -2.3711
 3564TIP3    H232108   2.836   1.878   2.198  1.9166 -0.2235  0.9553
 3565TIP3   OH232109   2.667   3.594   5.154  0.3521  0.0408 -0.2681
 3565TIP3    H132110   2.596   3.639   5.201  0.6968  0.0711  0.2328
 3565TIP3    H232111   2.726   3.566   5.223  0.0557 -1.3480 -0.5515
 3566TIP3   OH232112   1.463   5.327  15.302 -0.1668 -0.7939 -0.3319
 3566TIP3    H132113   1.494   5.252  15.353 -2.9526 -1.3702  0.6977
 3566TIP3    H232114   1.468   5.401  15.363  2.3902 -0.0429 -1.2864
 3567TIP3   OH232115   3.636   3.061  15.501 -0.1029 -0.1147 -0.0637
 3567TIP3    H132116   3.561   3.002  15.496  0.3076 -0.7125  0.5937
 3567TIP3    H232117   3.635   3.093  15.591  0.7709 -0.6041  0.1342
 3568TIP3   OH232118   3.016   5.130  16.592  0.5733 -0.4111 -0.1776
 3568TIP3    H132119   3.069   5.057  16.561  0.0840 -0.7336 -0.2795
 3568TIP3    H232120   3.039   5.203  16.535 -1.3909 -1.3727 -2.3784
 3569TIP3   OH232121   4.105   5.913  17.335  0.0797 -0.3234  0.2653
 3569TIP3    H132122   4.063   5.934  17.418 -2.5979 -1.6053 -0.6341
 3569TIP3    H232123   4.184   5.966  17.333 -0.7614  1.1689  2.7702
 3570TIP3   OH232124   2.943   4.571  17.125 -0.1037  0.4140 -0.6118
 3570TIP3    H132125   2.928   4.515  17.201  2.5483  0.6527  0.2229
 3570TIP3    H232126   2.860   4.616  17.111 -1.2984 -1.2291  0.7826
 3571TIP3   OH232127   3.005   4.895   2.177 -0.1097  0.1893  0.3156
 3571TIP3    H132128   2.914   4.869   2.166  0.1613 -0.7951  0.3443
 3571TIP3    H232129   3.038   4.906   2.088  0.1653 -0.9863  0.2585
 3572TIP3   OH232130   4.590   1.006  15.334  0.2236 -0.1514 -0.4802
 3572TIP3    H132131   4.681   1.019  15.361 -0.0059 -1.6026  1.1022
 3572TIP3    H232132   4.539   1.023  15.413 -0.7534 -0.9690 -0.9188
 3573TIP3   OH232133   4.246   3.654   4.991  0.5406  0.0217  0.0764
 3573TIP3    H132134   4.152   3.665   5.008  0.5518  1.2950 -0.5388
 3573TIP3    H232135   4.268   3.570   5.032 -1.0549 -0.7603 -0.5698
 3574TIP3   OH232136   2.679   2.300   0.074  0.0856  0.2640 -0.2356
 3574TIP3    H132137   2.696   2.287   0.167 -1.3824  2.8286  0.4831
 3574TIP3    H232138   2.730   2.377   0.050 -0.6861  0.5129 -1.1661
 3575TIP3   OH232139   6.761   0.324  16.231 -0.1689  0.6213 -0.0806
 3575TIP3    H132140   6.818   0.344  16.157 -0.2155  1.2533  0.0485
 3575TIP3    H232141   6.675   0.357  16.206  0.3889  3.5055  1.3560
 3576TIP3   OH232142   4.794   3.757  17.312  0.4278  0.3696  0.2032
 3576TIP3    H132143   4.762   3.808  17.386  2.0647  0.4349  0.8939
 3576TIP3    H232144   4.819   3.672  17.349 -1.6506 -0.7663 -0.8223
 3577TIP3   OH232145   4.028   3.727   3.921  0.0439  0.7342 -0.1290
 3577TIP3    H132146   3.951   3.752   3.973  0.8654 -0.7090  1.8792
 3577TIP3    H232147   4.012   3.635   3.898  1.8997 -0.1751  1.8692
 3578TIP3   OH232148   2.411   3.011   2.094 -0.3511  0.3711  0.3586
 3578TIP3    H132149   2.344   2.971   2.151  0.2869  1.0805  1.6584
 3578TIP3    H232150   2.417   3.102   2.125  2.4095 -0.0891  1.4693
 3579TIP3   OH232151   0.898   1.048   0.774 -0.1490 -0.1145 -0.3466
 3579TIP3    H132152   0.883   0.969   0.722 -0.8393 -0.5038  0.4252
 3579TIP3    H232153   0.955   1.019   0.845 -0.5131  0.0559  0.0130
 3580TIP3   OH232154   1.355   6.612   5.926  0.3366 -0.0183 -0.4255
 3580TIP3    H132155   1.374   6.606   6.020  0.9050  0.2253 -0.5235
 3580TIP3    H232156   1.347   6.706   5.910 -1.0879 -0.1013 -0.3677
 3581TIP3   OH232157   5.192   5.748  15.800 -0.0841  0.6290  0.2237
 3581TIP3    H132158   5.286   5.743  15.814  0.1192  0.7131 -0.9591
 3581TIP3    H232159   5.159   5.662  15.826  0.1402  0.9895  1.7634
 3582TIP3   OH232160   6.158   3.119   4.185 -0.1597 -0.5868 -0.2363
 3582TIP3    H132161   6.077   3.129   4.133 -0.3155  2.9652  0.4088
 3582TIP3    H232162   6.224   3.093   4.121 -1.1185 -0.0761 -1.4852
 3583TIP3   OH232163   2.443   5.132  11.363 -0.3668  0.2825  0.6897
 3583TIP3    H132164   2.482   5.187  11.296 -0.5164  0.0677  0.4221
 3583TIP3    H232165   2.480   5.163  11.445  0.0505  0.3476  0.4774
 3584TIP3   OH232166   5.563   4.195   0.041  0.2105  0.1204 -0.0302
 3584TIP3    H132167   5.654   4.197   0.012 -0.2611 -0.1969 -1.5975
 3584TIP3    H232168   5.566   4.153   0.127  1.5112 -0.1217 -0.1792
 3585TIP3   OH232169   0.956   1.920  11.372  0.4273 -0.4408 -0.0614
 3585TIP3    H132170   0.902   1.981  11.422 -0.7852 -0.2189 -1.5576
 3585TIP3    H232171   1.001   1.974  11.307 -0.9467 -1.1093 -1.6480
 3586TIP3   OH232172   5.449   6.353   3.041  0.5242  0.7453  0.1510
 3586TIP3    H132173   5.499   6.350   3.122  1.2814  0.8878 -0.3029
 3586TIP3    H232174   5.398   6.434   3.047  0.2731  0.5523  0.6569
 3587TIP3   OH232175   3.575   0.021  11.644 -0.1698  0.5457  0.2892
 3587TIP3    H132176   3.548  -0.070  11.628 -0.4443  0.4636  1.1683
 3587TIP3    H232177   3.495   0.063  11.676  0.5952  0.4014  2.5596
 3588TIP3   OH232178   5.093   2.222   1.686  0.2536  0.3953  0.6524
 3588TIP3    H132179   5.130   2.241   1.772 -2.9797  2.0039  1.8494
 3588TIP3    H232180   5.123   2.294   1.631 -0.3220  1.2015  1.3645
 3589TIP3   OH232181   0.464   6.420   1.490  0.5400 -0.2776  0.0408
 3589TIP3    H132182   0.472   6.475   1.568  0.9080 -0.7895  0.3737
 3589TIP3    H232183   0.370   6.415   1.473  0.5530  3.1023 -1.9241
 3590TIP3   OH232184   4.580   3.264  12.065 -0.1392  0.2251  0.1763
 3590TIP3    H132185   4.617   3.189  12.110 -0.2127 -0.4587 -0.8498
 3590TIP3    H232186   4.641   3.336  12.082  1.1856 -0.6393 -0.7228
 3591TIP3   OH232187   5.242   0.262  15.911  0.5576  0.0488 -0.0463
 3591TIP3    H132188   5.274   0.307  15.833 -0.3199  0.4598 -0.1860
 3591TIP3    H232189   5.188   0.191  15.877  1.0319 -0.4295  0.1858
 3592TIP3   OH232190   0.421   2.219   4.320 -0.0530 -0.1734 -1.2657
 3592TIP3    H132191   0.329   2.227   4.344 -0.1025 -0.5705 -1.3173
 3592TIP3    H232192   0.447   2.133   4.354 -0.0706 -0.6656 -2.4500
 3593TIP3   OH232193   1.363   2.062  13.827  0.1867 -0.0809  0.5114
 3593TIP3    H132194   1.364   2.105  13.741  3.3477 -0.0425  0.4631
 3593TIP3    H232195   1.419   2.116  13.882 -0.1076 -1.2412  2.0219
 3594TIP3   OH232196   1.926   1.958  15.201  0.7217  0.0052 -0.0627
 3594TIP3    H132197   1.853   1.949  15.140  0.8097 -1.6115  0.0399
 3594TIP3    H232198   1.916   2.046  15.237 -0.4572  0.2647 -0.9584
 3595TIP3   OH232199   4.167   6.442   3.811  0.0281 -0.3776  0.0761
 3595TIP3    H132200   4.102   6.477   3.750 -2.0970 -3.5431  0.2838
 3595TIP3    H232201   4.229   6.395   3.755 -0.0495 -0.5493  0.1342
 3596TIP3   OH232202   1.786   5.841   4.690 -0.0223  0.5119  0.0322
 3596TIP3    H132203   1.747   5.858   4.604  1.2272  0.6932 -0.5222
 3596TIP3    H232204   1.835   5.921   4.710  1.4693 -0.3471 -0.1004
 3597TIP3   OH232205   3.259   5.067   5.231 -0.2376  0.0695 -0.1388
 3597TIP3    H132206   3.171   5.086   5.263  0.2213  0.7094  0.7723
 3597TIP3    H232207   3.301   5.152   5.224 -0.1807 -0.0620 -2.1364
 3598TIP3   OH232208   2.497   1.632  15.704 -0.2387  0.2136  0.1466
 3598TIP3    H132209   2.496   1.727  15.692  1.6543  0.5646  2.2460
 3598TIP3    H232210   2.441   1.617  15.781 -1.0272 -0.4818 -0.5373
 3599TIP3   OH232211   2.058   3.373  14.348  0.0267  0.5786 -0.1847
 3599TIP3    H132212   1.971   3.343  14.375 -0.7876  0.2879 -2.8442
 3599TIP3    H232213   2.096   3.299  14.302  1.6339  0.7933  0.7156
 3600TIP3   OH232214   2.773   5.350   0.028 -0.5752 -0.1880 -0.0963
 3600TIP3    H132215   2.867   5.334   0.018 -0.1186  1.8904  0.3816
 3600TIP3    H232216   2.735   5.320  -0.055  0.4725 -1.2106 -0.2323
 3601TIP3   OH232217   4.235   6.529   4.528 -0.5457  0.5674  0.2914
 3601TIP3    H132218   4.203   6.535   4.438  1.2286  1.7630 -0.2969
 3601TIP3    H232219   4.219   6.438   4.553 -0.3053  0.0020 -1.5173
 3602TIP3   OH232220   0.933   6.284   3.155  0.3312 -0.0343 -0.1802
 3602TIP3    H132221   0.846   6.324   3.157  0.7808  0.9715  0.2682
 3602TIP3    H232222   0.920   6.197   3.193 -0.1576  0.8287  1.7563
 3603TIP3   OH232223   1.647   6.432   2.858 -0.4231 -0.3633  0.1813
 3603TIP3    H132224   1.617   6.523   2.865 -1.1303 -0.6178  0.5905
 3603TIP3    H232225   1.685   6.413   2.944 -0.6202 -0.5680  0.2242
 3604TIP3   OH232226   5.536   0.912   2.835 -0.1201  0.3333 -0.3668
 3604TIP3    H132227   5.495   0.938   2.918 -0.2080  0.7898 -0.5512
 3604TIP3    H232228   5.541   0.816   2.840  0.6471  0.4074  0.5262
 3605TIP3   OH232229   2.443   0.614   2.846  0.6549  0.3401 -0.3411
 3605TIP3    H132230   2.434   0.619   2.942  0.0092 -0.4300 -0.3577
 3605TIP3    H232231   2.515   0.553   2.832 -0.1706 -0.6402 -0.3645
 3606TIP3   OH232232   5.780   1.636  11.071 -0.3795  0.1646  0.3786
 3606TIP3    H132233   5.867   1.671  11.058 -0.9710  1.1573 -1.1132
 3606TIP3    H232234   5.753   1.604  10.985 -0.4669 -2.6717  1.3457
 3607TIP3   OH232235   3.882   5.226   0.488 -0.4138  0.9128 -0.1492
 3607TIP3    H132236   3.885   5.189   0.400  1.2592  0.6262 -0.0107
 3607TIP3    H232237   3.955   5.288   0.491  0.3794 -0.0160  1.4051
 3608TIP3   OH232238   1.160   4.280   2.937  0.1596 -0.3707 -0.1483
 3608TIP3    H132239   1.170   4.234   2.854  1.2374 -0.5866  0.0891
 3608TIP3    H232240   1.094   4.230   2.984  0.5902 -1.0951 -0.2944
 3609TIP3   OH232241   1.509   1.574   0.438 -0.0470  0.2188 -0.1360
 3609TIP3    H132242   1.572   1.536   0.377 -2.0757 -1.5307 -1.2734
 3609TIP3    H232243   1.519   1.523   0.518 -1.6018 -1.7911 -1.1170
 3610TIP3   OH232244   6.622   2.611  16.413 -0.7540 -0.2697 -0.2337
 3610TIP3    H132245   6.578   2.638  16.494 -1.0155  0.5164 -0.6234
 3610TIP3    H232246   6.679   2.685  16.391 -1.0395 -0.2722 -1.0096
 3611TIP3   OH232247   1.424   6.173   0.732  0.1382 -0.1299 -0.0802
 3611TIP3    H132248   1.411   6.081   0.757 -1.0881 -0.4877 -1.8707
 3611TIP3    H232249   1.402   6.176   0.639 -0.6425  2.1440  0.1300
 3612TIP3   OH232250   4.913   6.446   5.859  0.4446 -0.0502 -0.2972
 3612TIP3    H132251   4.990   6.484   5.817  0.9646  0.4683  1.0501
 3612TIP3    H232252   4.922   6.470   5.952 -0.4521 -1.4388  0.1877
 3613TIP3   OH232253   0.587   1.497  16.817 -0.4071  0.5109 -0.1283
 3613TIP3    H132254   0.493   1.514  16.817 -0.7009 -1.0018  1.0159
 3613TIP3    H232255   0.624   1.565  16.873 -1.3129 -1.1066  2.6162
 3614TIP3   OH232256   4.178   6.138  12.475  0.1555  0.3428  0.3139
 3614TIP3    H132257   4.213   6.081  12.543  0.9200  1.4535  0.8693
 3614TIP3    H232258   4.244   6.206  12.464  0.4707 -0.2675 -2.1662
 3615TIP3   OH232259   3.300   4.156   1.456  0.3960 -0.0302 -0.4045
 3615TIP3    H132260   3.239   4.184   1.525  0.3094 -2.6798  0.7298
 3615TIP3    H232261   3.383   4.143   1.502  0.3474 -1.8158 -0.7552
 3616TIP3   OH232262   5.450   5.707  12.598 -0.1086  0.4180  0.4533
 3616TIP3    H132263   5.484   5.696  12.686  0.9623  0.1695  0.0310
 3616TIP3    H232264   5.430   5.617  12.569 -0.5833  0.5106  0.4931
 3617TIP3   OH232265   3.693   2.541   2.965 -0.4787  0.1889  0.0883
 3617TIP3    H132266   3.672   2.626   2.926 -2.2759 -0.7597 -1.1493
 3617TIP3    H232267   3.757   2.502   2.905 -1.0548 -0.0826 -0.3532
 3618TIP3   OH232268   1.365   0.353  12.747 -0.0798  0.1014 -0.1174
 3618TIP3    H132269   1.398   0.341  12.836  0.9607  2.8383 -0.0216
 3618TIP3    H232270   1.439   0.391  12.700 -1.5467  1.7299 -1.2533
 3619TIP3   OH232271   1.034   0.372   1.384 -0.1122 -0.0039 -0.1716
 3619TIP3    H132272   0.940   0.383   1.372 -0.0899 -0.2269 -0.5723
 3619TIP3    H232273   1.046   0.366   1.479 -0.5446 -0.3582 -0.1367
 3620TIP3   OH232274   0.356   2.933   4.888 -0.4533 -0.7350 -0.4548
 3620TIP3    H132275   0.449   2.943   4.907 -0.2232 -2.7391 -0.3297
 3620TIP3    H232276   0.316   2.912   4.973 -1.0971  0.4228 -0.4485
 3621TIP3   OH232277   6.126   0.645   0.523  0.1525  0.5532  0.3984
 3621TIP3    H132278   6.075   0.724   0.506  0.5226  0.3226 -2.2520
 3621TIP3    H232279   6.206   0.676   0.566 -0.0017  1.5282 -0.0033
 3622TIP3   OH232280   4.318   2.320  17.380  0.0466  0.1552  0.8324
 3622TIP3    H132281   4.352   2.234  17.403 -0.3695 -0.1023  0.4848
 3622TIP3    H232282   4.276   2.308  17.295  1.0117  0.9664  0.2189
 3623TIP3   OH232283   6.603   2.384   5.905  0.1286 -0.1488 -0.1374
 3623TIP3    H132284   6.524   2.359   5.952  0.2650 -0.7388 -0.2003
 3623TIP3    H232285   6.618   2.311   5.844 -0.3489  0.8486 -1.4937
 3624TIP3   OH232286   2.328   3.408   1.753  0.0478 -0.1980 -0.2744
 3624TIP3    H132287   2.407   3.355   1.749  2.2905  2.8243 -0.0622
 3624TIP3    H232288   2.318   3.444   1.664 -1.1858 -0.6096 -0.3282
 3625TIP3   OH232289   1.622   1.940   0.814  0.2812 -0.1146 -0.9387
 3625TIP3    H132290   1.611   1.862   0.869  0.3852 -0.4050 -1.3239
 3625TIP3    H232291   1.626   2.013   0.876  0.3436 -0.4328 -0.5651
 3626TIP3   OH232292   1.080   3.272   3.815 -0.2892  0.0704 -0.1178
 3626TIP3    H132293   1.023   3.198   3.838 -0.8999  1.4788  3.5898
 3626TIP3    H232294   1.168   3.244   3.839 -0.0719 -0.3780 -1.3486
 3627TIP3   OH232295   0.314   4.581   0.023 -0.9144 -0.2084 -0.0910
 3627TIP3    H132296   0.219   4.579   0.007 -1.0184  2.2617 -0.1880
 3627TIP3    H232297   0.351   4.614  -0.059 -0.0572 -0.3260  0.2411
 3628TIP3   OH232298   2.067   6.438   0.928  0.3886  0.3106 -0.0519
 3628TIP3    H132299   2.089   6.500   0.858 -2.9097  1.3610 -0.3169
 3628TIP3    H232300   2.035   6.494   0.999  1.2040 -0.9225  1.3432
 3629TIP3   OH232301   5.335   4.401   1.501  0.7361  0.2118 -0.0956
 3629TIP3    H132302   5.303   4.380   1.413 -2.2153 -0.0143  0.9021
 3629TIP3    H232303   5.360   4.316   1.537  0.4332  0.0748 -0.1988
 3630TIP3   OH232304   0.256   0.901   2.933  0.1583 -0.5605 -0.1003
 3630TIP3    H132305   0.295   0.843   2.998  2.1221 -0.7851 -1.3649
 3630TIP3    H232306   0.162   0.895   2.947  0.4190 -2.4134  1.1665
 3631TIP3   OH232307   1.333   0.418  11.380 -0.8029 -0.2210 -0.0712
 3631TIP3    H132308   1.392   0.447  11.311 -0.7232 -1.0674 -0.3788
 3631TIP3    H232309   1.375   0.445  11.462 -1.2200  1.3770 -0.3485
 3632TIP3   OH232310   1.213   6.567  16.799  0.4969  0.4760 -0.4515
 3632TIP3    H132311   1.209   6.582  16.893  0.2162  0.7501 -0.5051
 3632TIP3    H232312   1.131   6.605  16.765  0.3409 -0.1004 -0.7360
 3633TIP3   OH232313   5.259   2.209  12.943  0.8389 -0.1550  0.1267
 3633TIP3    H132314   5.304   2.130  12.912  1.1979 -0.0139  0.2756
 3633TIP3    H232315   5.313   2.281  12.909 -0.2164  0.0716 -1.1440
 3634TIP3   OH232316   6.327   3.886  11.094  0.5791  0.2384  0.1259
 3634TIP3    H132317   6.274   3.959  11.062  3.0025  1.6636 -0.8783
 3634TIP3    H232318   6.328   3.896  11.189  0.9712  1.6104 -0.0115
 3635TIP3   OH232319   5.890   6.670  14.085 -0.0183  0.0428  0.0812
 3635TIP3    H132320   5.880   6.765  14.092  0.1861  0.2175 -1.5741
 3635TIP3    H232321   5.956   6.648  14.150 -0.5070  0.9461  0.9044
 3636TIP3   OH232322   2.842   1.714   1.305 -0.1728  0.3168  0.6329
 3636TIP3    H132323   2.908   1.673   1.361  0.1958 -1.5206 -1.0516
 3636TIP3    H232324   2.761   1.666   1.324 -0.4474  0.8688  0.8658
 3637TIP3   OH232325   2.235   5.710   0.506 -0.2903 -0.1022 -0.0940
 3637TIP3    H132326   2.183   5.634   0.480  0.4173 -0.7438  0.3121
 3637TIP3    H232327   2.255   5.695   0.598 -0.9869  1.0905  0.2640
 3638TIP3   OH232328   5.641   4.891  11.240 -0.2642  0.4216  0.0174
 3638TIP3    H132329   5.658   4.816  11.297 -0.5357 -0.0788 -0.5483
 3638TIP3    H232330   5.546   4.893  11.230 -0.1025 -1.5302 -3.0255
 3639TIP3   OH232331   1.347   2.645  16.580  0.4424  0.0165  0.1532
 3639TIP3    H132332   1.345   2.684  16.668  1.3552 -2.1393  1.2169
 3639TIP3    H232333   1.425   2.683  16.539 -0.6212  1.9152 -0.2307
 3640TIP3   OH232334   0.104   4.132   2.215 -0.0684 -0.5084 -0.2600
 3640TIP3    H132335   0.011   4.144   2.236  0.6023  0.7484  2.4161
 3640TIP3    H232336   0.122   4.201   2.150 -0.6810  0.2777  0.3727
 3641TIP3   OH232337   3.573   4.156   5.622  0.4006  0.3914  0.7043
 3641TIP3    H132338   3.581   4.064   5.599 -0.3977  0.6752 -0.7672
 3641TIP3    H232339   3.513   4.157   5.696 -0.6186 -0.1735 -0.1004
 3642TIP3   OH232340   4.792   6.503  16.206 -0.0369 -0.4526 -0.8338
 3642TIP3    H132341   4.821   6.411  16.211  0.2861 -0.3152 -0.0326
 3642TIP3    H232342   4.839   6.538  16.130 -0.7489 -1.1462 -1.6077
 3643TIP3   OH232343   5.200   2.596   5.454  0.0586  0.3872  0.1943
 3643TIP3    H132344   5.126   2.646   5.487  0.9629  1.2577  0.9410
 3643TIP3    H232345   5.271   2.659   5.445  0.4470 -0.2275 -1.4802
 3644TIP3   OH232346   5.494   2.291   5.289 -0.0871  0.0914 -0.4101
 3644TIP3    H132347   5.505   2.198   5.269  1.4272  0.0866  0.3326
 3644TIP3    H232348   5.445   2.293   5.371 -1.3687  0.0134 -1.1341
 3645TIP3   OH232349   6.592   5.363   2.591  0.2189 -0.3154  0.2632
 3645TIP3    H132350   6.649   5.360   2.514 -1.7488 -0.1104 -1.2589
 3645TIP3    H232351   6.578   5.271   2.613  1.4293 -0.3681  0.9283
 3646TIP3   OH232352   3.637   0.910  11.761  0.0710  0.2611 -0.1291
 3646TIP3    H132353   3.658   0.853  11.687 -0.0129 -0.6526  0.5444
 3646TIP3    H232354   3.700   0.982  11.754  0.1756  0.0993 -0.9840
 3647TIP3   OH232355   0.847   6.251  13.750  0.0598  0.1911  0.6710
 3647TIP3    H132356   0.751   6.247  13.744  0.1616 -1.7062 -0.2706
 3647TIP3    H232357   0.863   6.319  13.815 -1.9200  0.8045  0.5925
 3648TIP3   OH232358   2.272   0.060   1.414  0.0129  0.0750 -0.4405
 3648TIP3    H132359   2.315   0.000   1.476  0.1152 -1.1610 -1.6567
 3648TIP3    H232360   2.242   0.133   1.468  1.1527 -0.3874  0.8752
 3649TIP3   OH232361   2.867   5.328   3.643  0.1169  0.3607 -0.3101
 3649TIP3    H132362   2.772   5.323   3.635  0.1489  0.9059 -1.1251
 3649TIP3    H232363   2.882   5.372   3.726 -0.3755  1.3939 -0.7553
 3650TIP3   OH232364   6.247   2.291  11.976 -0.3600 -0.0217 -0.4195
 3650TIP3    H132365   6.188   2.346  12.028 -0.3655  0.2731 -0.7321
 3650TIP3    H232366   6.198   2.272  11.896 -0.7163 -1.2493  0.0704
 3651TIP3   OH232367   1.943   1.882  14.042 -0.4226 -0.1297 -0.6741
 3651TIP3    H132368   1.880   1.838  13.986 -1.0528 -0.5987  0.3832
 3651TIP3    H232369   1.980   1.813  14.097 -0.4775  0.4481  0.1177
 3652TIP3   OH232370   1.989   4.057   0.525 -0.6277  0.4791 -0.1885
 3652TIP3    H132371   1.950   4.118   0.588  0.6660 -0.4742  1.6179
 3652TIP3    H232372   2.025   4.114   0.457 -2.0604  1.5431 -0.0960
 3653TIP3   OH232373   5.981   1.946  17.183 -0.6471  0.4749 -0.3811
 3653TIP3    H132374   5.985   1.981  17.094  0.5033 -0.6828 -0.8093
 3653TIP3    H232375   5.971   1.852  17.172  0.4136  0.2126  0.6853
 3654TIP3   OH232376   2.046   5.861  12.126  0.3983  0.3128 -0.0979
 3654TIP3    H132377   1.980   5.863  12.057 -1.7149 -1.3687  1.7077
 3654TIP3    H232378   2.001   5.894  12.204  1.6250 -0.9239  1.2103
 3655TIP3   OH232379   5.388   0.492  11.592 -0.2037 -0.5451  0.3071
 3655TIP3    H132380   5.320   0.431  11.563  0.4898 -1.2788  0.1898
 3655TIP3    H232381   5.467   0.438  11.601  0.9393  0.6566 -1.6470
 3656TIP3   OH232382   6.248   4.689  15.823  0.1208  0.6163  0.3099
 3656TIP3    H132383   6.193   4.748  15.875 -1.6531  0.0939 -0.8896
 3656TIP3    H232384   6.203   4.605  15.826 -0.6911  0.7811 -2.8231
 3657TIP3   OH232385   0.795   3.224  14.304  1.0240 -0.6110  0.9741
 3657TIP3    H132386   0.708   3.214  14.343  0.9101 -1.3743  0.5441
 3657TIP3    H232387   0.853   3.242  14.378  0.7676 -1.7540  1.4747
 3658TIP3   OH232388   3.632   2.753  15.212  0.3776 -0.4748  0.6652
 3658TIP3    H132389   3.719   2.747  15.252  0.2311  0.8055  1.2111
 3658TIP3    H232390   3.592   2.831  15.252  0.0049  0.5364 -1.5277
 3659TIP3   OH232391   5.226   0.936   5.982  0.2658  0.4302 -0.0662
 3659TIP3    H132392   5.298   0.978   6.029  0.4996 -1.1961  1.1314
 3659TIP3    H232393   5.147   0.970   6.023  0.3239  2.0308 -1.2152
 3660TIP3   OH232394   2.130   3.745  15.895  0.1926  0.9686 -0.5018
 3660TIP3    H132395   2.150   3.790  15.977 -0.0324 -0.3036  0.2708
 3660TIP3    H232396   2.210   3.698  15.873  0.1915  1.1563 -0.9198
 3661TIP3   OH232397   3.591   6.495  14.498  0.6585 -0.1822 -0.6432
 3661TIP3    H132398   3.581   6.432  14.427 -0.2271 -0.9219  0.1123
 3661TIP3    H232399   3.579   6.444  14.578 -0.3987  0.9880 -0.0185
 3662TIP3   OH232400   0.446   0.401  13.197  0.3271 -0.1165 -0.0420
 3662TIP3    H132401   0.516   0.402  13.262  1.1044  0.2570 -0.8494
 3662TIP3    H232402   0.379   0.458  13.232  0.5401 -0.2702  0.6295
 3663TIP3   OH232403   4.961   4.083   6.021 -0.3177 -0.4394  0.5894
 3663TIP3    H132404   4.998   4.063   6.107  1.2051 -0.8259 -0.1106
 3663TIP3    H232405   4.867   4.075   6.032 -0.1671 -0.1059  2.3102
 3664TIP3   OH232406   4.729   4.068   6.148  0.3110  0.5377  0.4885
 3664TIP3    H132407   4.640   4.061   6.112  0.2960  0.3419  0.5621
 3664TIP3    H232408   4.716   4.092   6.240  0.0773 -4.4410  2.0419
 3665TIP3   OH232409   1.538   3.750   0.498 -0.5338 -0.2201 -0.0708
 3665TIP3    H132410   1.523   3.833   0.452 -0.9821  0.3755  1.1103
 3665TIP3    H232411   1.631   3.752   0.520  0.1578 -1.3756 -2.5315
 3666TIP3   OH232412   2.000   5.958   3.353  0.1626  0.0390 -0.4061
 3666TIP3    H132413   1.905   5.958   3.359  0.0653  1.4387 -1.4450
 3666TIP3    H232414   2.028   6.027   3.413  0.4096  0.6514 -1.2117
 3667TIP3   OH232415   4.447   5.682  16.343 -0.0954  0.1433 -0.2829
 3667TIP3    H132416   4.408   5.613  16.289 -0.1886  0.1787 -0.2606
 3667TIP3    H232417   4.397   5.760  16.321  0.8767  0.5007 -1.3008
 3668TIP3   OH232418   1.176   1.155  14.438 -0.5406 -0.5927  0.2147
 3668TIP3    H132419   1.111   1.134  14.371  1.1583 -1.3227 -1.2968
 3668TIP3    H232420   1.246   1.091  14.424  0.5049  0.1553  1.7797
 3669TIP3   OH232421   6.489   1.155  15.977 -0.0254 -0.1478  0.4482
 3669TIP3    H132422   6.457   1.068  15.956  0.1407 -0.1207  0.0809
 3669TIP3    H232423   6.563   1.140  16.036 -0.6087 -0.2156  1.1786
 3670TIP3   OH232424   0.154   0.540   3.996 -0.0030 -0.0377 -0.4563
 3670TIP3    H132425   0.117   0.585   3.920  2.7309  2.4102 -0.5398
 3670TIP3    H232426   0.190   0.610   4.050  1.0955 -1.9277  1.4121
 3671TIP3   OH232427   1.057   3.743   2.430  0.8076  0.1432  0.0772
 3671TIP3    H132428   1.132   3.684   2.427 -0.4044 -1.5430  1.1211
 3671TIP3    H232429   0.986   3.693   2.390 -1.1107 -0.5681  3.8870
 3672TIP3   OH232430   6.626   3.583  14.986  0.0250 -0.1411  0.6806
 3672TIP3    H132431   6.642   3.626  14.902 -2.0539  0.1923  0.4155
 3672TIP3    H232432   6.632   3.653  15.050 -0.6113  0.0316  0.5548
 3673TIP3   OH232433   2.068   1.427   4.799 -0.6336 -0.1632  0.2464
 3673TIP3    H132434   1.986   1.380   4.784 -0.7641  0.0206  0.3799
 3673TIP3    H232435   2.098   1.399   4.885 -1.1219  0.5941  0.6714
 3674TIP3   OH232436   2.821   2.567  11.550 -0.0494  0.2531  0.1060
 3674TIP3    H132437   2.816   2.663  11.546  0.4406  0.3125  0.7509
 3674TIP3    H232438   2.910   2.549  11.581 -0.4000 -0.3862  0.7757
 3675TIP3   OH232439   0.993   4.058   0.930 -0.1039  0.3271 -0.2069
 3675TIP3    H132440   1.035   4.015   1.004 -0.6405 -0.5140 -0.3708
 3675TIP3    H232441   1.019   4.150   0.937 -1.7902  0.7299  2.2317
 3676TIP3   OH232442   5.536   2.411  14.364  0.5119  0.1308 -0.4935
 3676TIP3    H132443   5.603   2.426  14.431  0.4121  0.8540 -0.5454
 3676TIP3    H232444   5.555   2.477  14.296 -0.4572  0.5853 -0.3406
 3677TIP3   OH232445   0.484   4.963  15.296 -0.0343 -0.0147 -0.0071
 3677TIP3    H132446   0.435   4.881  15.289  0.9707 -0.6100 -0.2948
 3677TIP3    H232447   0.444   5.008  15.371 -0.9574 -0.5120 -0.1894
 3678TIP3   OH232448   6.047   2.405  16.744 -0.1173 -0.3515 -0.0313
 3678TIP3    H132449   6.027   2.323  16.700 -1.1224  0.6260 -1.4953
 3678TIP3    H232450   5.981   2.467  16.712  1.7642  1.5330 -0.5362
 3679TIP3   OH232451   6.446   2.056  13.407  0.1326 -0.1502 -0.5609
 3679TIP3    H132452   6.397   2.006  13.341  0.8736 -1.7858  0.0871
 3679TIP3    H232453   6.538   2.031  13.392  0.4983  0.8313 -0.0354
 3680TIP3   OH232454   3.388   2.891  16.725 -0.0289 -0.1061  0.3811
 3680TIP3    H132455   3.339   2.972  16.740  1.7069  1.5823 -2.1011
 3680TIP3    H232456   3.430   2.873  16.809 -1.4988  0.7915  1.3643
 3681TIP3   OH232457   3.682   1.338  16.213 -0.0367  0.6137 -0.3453
 3681TIP3    H132458   3.712   1.254  16.180 -0.4404  0.3654 -0.0794
 3681TIP3    H232459   3.587   1.331  16.218 -0.2406  1.6695 -1.9356
 3682TIP3   OH232460   1.746   1.174  15.226  0.2255 -0.2664  0.1243
 3682TIP3    H132461   1.713   1.089  15.198 -0.5991  0.2441 -0.5208
 3682TIP3    H232462   1.841   1.169  15.214 -0.0870  0.1024 -3.4632
 3683TIP3   OH232463   6.264   2.483  12.333  0.0424  0.8768  0.0509
 3683TIP3    H132464   6.176   2.512  12.310 -1.0096 -0.7841  1.7605
 3683TIP3    H232465   6.254   2.390  12.355  1.6486  1.2815  2.9781
 3684TIP3   OH232466   5.910   3.449   2.890 -0.9402 -0.5075 -0.0244
 3684TIP3    H132467   5.976   3.381   2.908 -3.2557 -2.2942  2.6617
 3684TIP3    H232468   5.959   3.531   2.894  1.3881 -1.8116  0.3009
 3685TIP3   OH232469   6.568   0.009  12.601  0.2946 -0.4136 -0.3478
 3685TIP3    H132470   6.500   0.000  12.534  0.2340  0.0884 -0.3604
 3685TIP3    H232471   6.544  -0.054  12.669 -0.2135 -0.2020 -0.3274
 3686TIP3   OH232472   4.361   0.888  17.235  0.5259  0.0454  0.3114
 3686TIP3    H132473   4.271   0.860  17.216 -0.0745  2.2005 -0.3590
 3686TIP3    H232474   4.387   0.940  17.158  2.5453 -0.9076  0.2841
 3687TIP3   OH232475   3.244   3.032   1.678 -0.3455  0.1674 -0.5907
 3687TIP3    H132476   3.157   3.072   1.682 -1.7776 -2.6995 -0.2985
 3687TIP3    H232477   3.288   3.062   1.758 -1.4296  0.9445 -0.2616
 3688TIP3   OH232478   6.103   2.473   5.550  0.2771 -0.5645 -0.4566
 3688TIP3    H132479   6.118   2.406   5.484 -0.7565 -0.5345 -0.7437
 3688TIP3    H232480   6.090   2.424   5.631 -0.0040 -0.6941 -0.5774
 3689TIP3   OH232481   0.307   6.047   3.756 -0.2946  0.2317  0.4788
 3689TIP3    H132482   0.285   5.969   3.807 -1.3430  0.5922  0.6009
 3689TIP3    H232483   0.344   6.013   3.674 -1.9485 -0.4421 -0.0160
 3690TIP3   OH232484   3.315   6.682   3.781  0.2117  0.4113  0.5417
 3690TIP3    H132485   3.356   6.604   3.819 -0.5271 -1.4352 -2.1854
 3690TIP3    H232486   3.340   6.680   3.689 -1.2047  2.4960  0.0441
 3691TIP3   OH232487   2.043   1.876  12.562  0.3538 -0.1019 -0.5620
 3691TIP3    H132488   2.100   1.854  12.635  0.5425 -1.2837 -1.0284
 3691TIP3    H232489   1.988   1.947  12.594  0.1215 -0.8958  0.8803
 3692TIP3   OH232490   3.610   2.948   0.115 -0.4954 -0.3916 -0.4685
 3692TIP3    H132491   3.626   2.999   0.036 -0.2447  1.2106  0.5674
 3692TIP3    H232492   3.523   2.974   0.143 -0.6428 -1.0607 -0.2935
 3693TIP3   OH232493   5.159   3.187  15.287 -0.3806  0.1811 -0.3935
 3693TIP3    H132494   5.224   3.127  15.252  0.3053  0.6609  0.0298
 3693TIP3    H232495   5.083   3.176  15.230 -0.2229 -0.9773 -0.4039
 3694TIP3   OH232496   4.130   1.785  16.549  0.0959  0.0933  0.1274
 3694TIP3    H132497   4.180   1.723  16.497 -0.7226 -0.1533 -0.3767
 3694TIP3    H232498   4.191   1.814  16.617  0.4170 -1.4251  0.5184
 3695TIP3   OH232499   0.933   5.165   0.453 -0.1934  0.4928 -0.3277
 3695TIP3    H132500   1.001   5.103   0.478 -0.2977  0.3582 -0.3783
 3695TIP3    H232501   0.965   5.250   0.484 -0.3605  0.3166  0.3410
 3696TIP3   OH232502   6.164   5.887   3.997 -0.5527  0.3481 -0.3683
 3696TIP3    H132503   6.137   5.796   3.994 -0.7230  0.3541  0.7168
 3696TIP3    H232504   6.111   5.926   4.066  0.9904  0.7597  0.6283
 3697TIP3   OH232505   1.358   6.473  16.153 -0.3863 -0.1113  0.0514
 3697TIP3    H132506   1.426   6.521  16.106 -0.1151 -0.3470  0.1996
 3697TIP3    H232507   1.356   6.387  16.111  0.1502 -0.4638  0.7456
 3698TIP3   OH232508   5.545   2.320  11.307  0.0284 -0.4043  0.4745
 3698TIP3    H132509   5.469   2.300  11.362  0.4050 -0.5440  0.9599
 3698TIP3    H232510   5.573   2.235  11.273 -1.6079 -0.0706 -1.8662
 3699TIP3   OH232511   2.719   5.958   4.928  0.3751 -0.9772 -0.5633
 3699TIP3    H132512   2.727   5.907   5.009  0.6740 -1.1268 -0.6844
 3699TIP3    H232513   2.629   5.943   4.899 -1.5034  2.8490  2.2520
 3700TIP3   OH232514   0.422   5.310   5.404 -0.1122  0.6107 -0.2665
 3700TIP3    H132515   0.473   5.231   5.420  1.1146  1.6587  1.2768
 3700TIP3    H232516   0.484   5.371   5.364 -0.0856  1.8737  1.5541
 3701TIP3   OH232517   4.232   1.118   2.775 -0.1343  0.1501  0.2555
 3701TIP3    H132518   4.267   1.201   2.742 -0.2266  0.0436 -0.1083
 3701TIP3    H232519   4.253   1.120   2.868  1.0717 -0.0222  0.0036
 3702TIP3   OH232520   3.844   6.442  16.888  0.1549  0.0394  0.0789
 3702TIP3    H132521   3.871   6.420  16.977 -1.5007 -0.9099  0.3820
 3702TIP3    H232522   3.841   6.537  16.886  1.2114  0.1016  0.7122
 3703TIP3   OH232523   4.326   5.408  15.214 -0.1425  0.1680  0.2158
 3703TIP3    H132524   4.255   5.472  15.209  1.0174  1.4972  0.3951
 3703TIP3    H232525   4.371   5.428  15.295  1.9010  0.9459 -1.0370
 3704TIP3   OH232526   1.623   0.916  11.780 -0.0229  0.1275  0.2238
 3704TIP3    H132527   1.602   0.945  11.691  0.0430 -0.8084 -0.1095
 3704TIP3    H232528   1.665   0.991  11.821 -0.0133  0.5529 -0.5549
 3705TIP3   OH232529   1.428   1.292  11.537 -0.1988  0.4167 -0.3858
 3705TIP3    H132530   1.460   1.340  11.460  1.0612 -0.1896 -0.2671
 3705TIP3    H232531   1.504   1.286  11.594 -1.0381  0.5607  0.7764
 3706TIP3   OH232532   3.466   2.252  13.080 -0.1728 -0.2015  0.0489
 3706TIP3    H132533   3.481   2.331  13.027  0.2055  0.3110  0.9012
 3706TIP3    H232534   3.517   2.267  13.159 -0.4779 -1.1073  0.4202
 3707TIP3   OH232535   2.524   2.587   3.787 -0.3740  0.5525 -0.0095
 3707TIP3    H132536   2.435   2.608   3.760 -0.0913  1.6425 -0.1057
 3707TIP3    H232537   2.574   2.667   3.773  0.1096  0.7332  2.3714
 3708TIP3   OH232538   2.850   2.051  15.745  0.0694 -0.1817 -0.2020
 3708TIP3    H132539   2.875   1.961  15.728  2.1262  0.3764 -0.3924
 3708TIP3    H232540   2.782   2.045  15.813 -0.1954 -1.8653 -0.5793
 3709TIP3   OH232541   4.037   4.993   0.324 -0.8955 -0.2149  0.3905
 3709TIP3    H132542   4.047   5.080   0.285  1.9213  1.0872  3.5819
 3709TIP3    H232543   4.125   4.956   0.323 -1.5289 -1.8705  1.6326
 3710TIP3   OH232544   0.359   4.173   4.472  0.4825 -0.3134  0.6064
 3710TIP3    H132545   0.293   4.224   4.519  0.3817 -0.0422  0.1740
 3710TIP3    H232546   0.434   4.169   4.531 -0.3737 -1.7237  1.6519
 3711TIP3   OH232547   1.052   0.972  14.884 -0.4062 -0.3258 -0.2954
 3711TIP3    H132548   1.062   1.016  14.969  1.5046  0.2852 -0.7846
 3711TIP3    H232549   1.084   0.883  14.899 -1.5205 -0.6942 -0.0223
 3712TIP3   OH232550   0.885   3.824   5.012  0.0508  0.2651 -0.4086
 3712TIP3    H132551   0.914   3.881   5.084 -0.2596  1.4091 -1.1620
 3712TIP3    H232552   0.795   3.851   4.995 -0.3907 -1.0293 -0.2602
 3713TIP3   OH232553   2.899   5.311   4.782  0.2749  0.6191 -0.2820
 3713TIP3    H132554   2.938   5.310   4.694 -0.5770  1.3872 -0.6872
 3713TIP3    H232555   2.855   5.396   4.787  0.3139  0.5786  0.8942
 3714TIP3   OH232556   5.025   4.564   4.108 -0.0353  0.0961  0.4081
 3714TIP3    H132557   4.931   4.580   4.101  0.3533  2.1087 -0.6896
 3714TIP3    H232558   5.044   4.500   4.039 -0.3425  0.9299 -0.4606
 3715TIP3   OH232559   6.290   5.704  12.307  0.1372 -0.1721  0.3173
 3715TIP3    H132560   6.324   5.737  12.390 -0.7906  0.0190  0.6375
 3715TIP3    H232561   6.361   5.717  12.244  0.4199  0.8113  0.8200
 3716TIP3   OH232562   3.508   1.264   6.049 -0.6262 -0.2698  0.2238
 3716TIP3    H132563   3.500   1.212   5.969  1.8061 -1.8590  0.9187
 3716TIP3    H232564   3.499   1.200   6.120 -0.6803  0.7832  1.1919
 3717TIP3   OH232565   1.387   2.384  14.514  0.6094 -1.3792 -0.2951
 3717TIP3    H132566   1.399   2.416  14.603 -1.0177  2.1848 -1.1600
 3717TIP3    H232567   1.456   2.427  14.463 -0.7744 -0.1761 -1.2799
 3718TIP3   OH232568   1.480   4.947   6.389  0.9031  0.3777  0.6323
 3718TIP3    H132569   1.541   5.017   6.409  1.2493  0.4947 -0.7648
 3718TIP3    H232570   1.446   4.920   6.475  0.7403  2.2422  1.2074
 3719TIP3   OH232571   1.762   3.692   5.868  0.3275  0.2070  0.1579
 3719TIP3    H132572   1.821   3.662   5.937  0.8178 -1.3630 -0.8737
 3719TIP3    H232573   1.815   3.685   5.788 -1.8743 -3.7262 -1.2195
 3720TIP3   OH232574   1.157   4.596  11.504  0.3374 -0.8520 -0.4985
 3720TIP3    H132575   1.110   4.631  11.579  0.9396  0.2124 -0.6005
 3720TIP3    H232576   1.218   4.531  11.541  2.3227  1.3232  0.2831
 3721TIP3   OH232577   2.042   3.501  14.660  0.0581  0.2464  0.5096
 3721TIP3    H132578   2.043   3.506  14.565 -0.1244  0.5235  0.5228
 3721TIP3    H232579   1.961   3.544  14.686 -1.2806 -2.1573  0.6415
 3722TIP3   OH232580   2.810   2.767   1.873  0.0761 -0.1367  0.1051
 3722TIP3    H132581   2.753   2.774   1.797 -0.6737 -0.5830  0.6119
 3722TIP3    H232582   2.792   2.845   1.925  1.8778  1.0924 -0.9990
 3723TIP3   OH232583   5.554   0.395  15.303 -0.5109  0.1716  0.6474
 3723TIP3    H132584   5.560   0.468  15.243  1.6123 -0.8221 -0.4475
 3723TIP3    H232585   5.547   0.435  15.390  0.1240  1.6582  0.0414
 3724TIP3   OH232586   0.088   1.807  11.208  0.4010  0.3987  0.0032
 3724TIP3    H132587   0.057   1.893  11.238 -1.0433  0.3540 -1.2508
 3724TIP3    H232588   0.174   1.825  11.170  0.2147  1.2470 -0.0430
 3725TIP3   OH232589   1.022   4.173   5.611  0.6828  0.1853  0.9062
 3725TIP3    H132590   0.955   4.140   5.551  0.3353 -0.3696  1.5804
 3725TIP3    H232591   1.023   4.109   5.683  0.2761  1.4235  2.0549
 3726TIP3   OH232592   6.651   2.365  12.167  0.7160  0.1013  0.4284
 3726TIP3    H132593   6.666   2.283  12.119  1.0874  0.5690 -0.2762
 3726TIP3    H232594   6.557   2.365  12.185  0.6727 -0.3657  0.2110
 3727TIP3   OH232595   3.725   6.741  17.092  0.2277 -0.0555 -0.5047
 3727TIP3    H132596   3.685   6.691  17.163  0.3507  0.9278  0.2850
 3727TIP3    H232597   3.815   6.708  17.088  0.2929  0.0503 -0.0302
 3728TIP3   OH232598   3.711   2.584  12.476  0.1721 -0.4228  0.1567
 3728TIP3    H132599   3.671   2.507  12.516  0.4888 -0.8879 -0.4131
 3728TIP3    H232600   3.805   2.570  12.485  0.2314 -0.1314  0.0012
 3729TIP3   OH232601   0.512   2.903  10.685  0.0696 -0.2110  0.0727
 3729TIP3    H132602   0.528   2.830  10.746  0.5265 -0.2500 -0.0913
 3729TIP3    H232603   0.430   2.879  10.641 -0.9069  0.3784  1.4920
 3730TIP3   OH232604   2.290   4.343  11.652  0.1401  0.1917  0.1988
 3730TIP3    H132605   2.216   4.401  11.670 -0.6172 -1.0611  1.2812
 3730TIP3    H232606   2.254   4.275  11.594 -0.0762 -1.3692  2.0409
 3731TIP3   OH232607   6.564   5.675  11.088  0.6528  0.1901  0.5522
 3731TIP3    H132608   6.654   5.696  11.109  0.7984  0.2488 -0.1233
 3731TIP3    H232609   6.553   5.702  10.997  0.0247 -0.0293  0.5570
 3732TIP3   OH232610   6.401   2.439  14.978 -0.1341  0.3021  0.2799
 3732TIP3    H132611   6.428   2.407  15.064  1.1339 -2.8467 -1.1013
 3732TIP3    H232612   6.314   2.402  14.966 -0.4427  1.0071  0.3172
 3733TIP3   OH232613   5.331   3.763   4.930 -0.6093  0.7379 -0.5448
 3733TIP3    H132614   5.334   3.773   5.025  2.3161  2.1038 -0.6489
 3733TIP3    H232615   5.380   3.682   4.914 -1.4772  0.2775 -0.8781
 3734TIP3   OH232616   1.101   3.967   1.475  0.8737 -0.4142  0.0105
 3734TIP3    H132617   1.143   4.006   1.552 -0.8064  0.6915  0.4206
 3734TIP3    H232618   1.058   3.888   1.508  4.8065 -3.2427 -0.9360
 3735TIP3   OH232619   0.267   6.121  15.828 -0.3448 -0.3858  0.3763
 3735TIP3    H132620   0.270   6.062  15.753 -1.2549  0.3805 -0.2899
 3735TIP3    H232621   0.294   6.206  15.793  0.9566 -0.3661  1.3229
 3736TIP3   OH232622   4.023   0.428  11.616 -1.1879 -0.3183 -0.9903
 3736TIP3    H132623   4.049   0.456  11.528  1.1976  0.0730 -0.2479
 3736TIP3    H232624   4.086   0.360  11.639 -1.7826 -0.4341  0.4035
 3737TIP3   OH232625   2.123   6.545  11.090  0.3108  0.1258  0.6818
 3737TIP3    H132626   2.100   6.627  11.134  0.6627  0.0088  1.0840
 3737TIP3    H232627   2.038   6.506  11.067  0.1496  0.9050 -0.0816
 3738TIP3   OH232628   1.346   3.686   1.470  0.1360  0.1751 -0.1275
 3738TIP3    H132629   1.302   3.713   1.550 -0.8864 -3.4370  0.7025
 3738TIP3    H232630   1.439   3.695   1.490  0.0049 -2.6484  2.4321
 3739TIP3   OH232631   2.894   4.686   4.655  0.3085 -0.0175  0.3247
 3739TIP3    H132632   2.827   4.749   4.679 -1.6487 -1.8052 -0.1266
 3739TIP3    H232633   2.967   4.703   4.715 -0.0950  2.6342  0.1717
 3740TIP3   OH232634   4.248   0.231  11.663  0.1568  0.1275  0.1235
 3740TIP3    H132635   4.327   0.278  11.691  0.5415  1.1174 -2.3686
 3740TIP3    H232636   4.279   0.170  11.596 -1.2499  0.8488 -1.2257
 3741TIP3   OH232637   5.007   1.460  14.163  0.6291 -0.4740 -0.5415
 3741TIP3    H132638   5.053   1.500  14.237  1.3250 -0.4231 -0.9862
 3741TIP3    H232639   4.940   1.524  14.139  0.9226 -0.1348 -0.4637
 3742TIP3   OH232640   2.575   2.927  12.570 -0.0041  0.2459 -0.3140
 3742TIP3    H132641   2.659   2.933  12.614 -0.0766  0.8296 -0.2385
 3742TIP3    H232642   2.583   2.853  12.511 -0.0682 -0.8610  1.0226
 3743TIP3   OH232643   4.751   5.352  16.838 -0.1404 -0.1640  0.4269
 3743TIP3    H132644   4.832   5.360  16.889  0.1146 -1.1698  0.2076
 3743TIP3    H232645   4.730   5.258  16.842 -0.8035 -0.0519 -0.2685
 3744TIP3   OH232646   4.178   2.278   1.556 -0.3192  0.2210  0.8294
 3744TIP3    H132647   4.263   2.281   1.511  0.6264  0.7487  2.5667
 3744TIP3    H232648   4.118   2.324   1.497  0.7661  0.5018 -0.0854
 3745TIP3   OH232649   5.818   2.835  14.148 -0.1740  0.0095 -0.1534
 3745TIP3    H132650   5.764   2.872  14.078 -2.0700 -0.9202  0.7482
 3745TIP3    H232651   5.859   2.911  14.190 -1.6624  0.8558 -0.1795
 3746TIP3   OH232652   4.208   3.809  11.541 -0.3299 -0.2361  0.0482
 3746TIP3    H132653   4.193   3.903  11.527 -0.4510 -0.3376 -0.4984
 3746TIP3    H232654   4.121   3.774  11.558 -0.1042  0.0355  2.0591
 3747TIP3   OH232655   0.662   4.437  11.805  0.0819 -0.4989  0.5390
 3747TIP3    H132656   0.632   4.431  11.895  0.0539  0.5621  0.6137
 3747TIP3    H232657   0.637   4.525  11.777 -1.0813 -1.2660 -0.9399
 3748TIP3   OH232658   6.485   4.339  17.020  0.2849 -0.1560 -0.0796
 3748TIP3    H132659   6.475   4.273  17.088  0.6436 -1.1415 -0.9546
 3748TIP3    H232660   6.580   4.348  17.008  0.2181 -0.6473 -1.0516
 3749TIP3   OH232661   3.427   6.692  16.058 -0.2539  1.2778 -0.1686
 3749TIP3    H132662   3.385   6.774  16.081 -1.6118  0.5289  0.1264
 3749TIP3    H232663   3.367   6.651  15.995 -0.0556  0.1195  0.3717
 3750TIP3   OH232664   0.976   5.424  13.455  0.6292 -0.3859 -0.4145
 3750TIP3    H132665   0.890   5.383  13.446  0.2826  0.1591  0.3148
 3750TIP3    H232666   1.027   5.362  13.507 -0.1125  0.3691  1.2974
 3751TIP3   OH232667   6.626   6.733   5.286  0.2595 -0.6099 -0.1660
 3751TIP3    H132668   6.670   6.676   5.223 -1.6379 -0.7836 -1.4019
 3751TIP3    H232669   6.539   6.695   5.297 -0.9744  1.8163 -0.7873
 3752TIP3   OH232670   5.800   0.192  14.635  0.1855 -0.1543 -1.0914
 3752TIP3    H132671   5.722   0.212  14.687 -0.9384 -0.0070 -2.7706
 3752TIP3    H232672   5.796   0.098  14.621  0.8646 -0.3012 -0.3549
 3753TIP3   OH232673   6.731   1.613  11.330  0.1999  0.4248  0.7114
 3753TIP3    H132674   6.775   1.683  11.280 -0.7003  0.5001  0.0057
 3753TIP3    H232675   6.769   1.532  11.296  2.7422  0.5573  2.9292
 3754TIP3   OH232676   2.722   5.873   6.076 -0.6239  0.3678  0.1922
 3754TIP3    H132677   2.795   5.912   6.123 -0.3218 -2.5071  2.3754
 3754TIP3    H232678   2.762   5.806   6.021 -1.2330  2.0882 -2.5910
 3755TIP3   OH232679   5.682   0.545  13.757  0.2716 -0.0949  0.3762
 3755TIP3    H132680   5.678   0.505  13.844  1.6357  1.6294  1.2793
 3755TIP3    H232681   5.770   0.528  13.726 -0.1016 -0.4055 -0.5540
 3756TIP3   OH232682   1.051   4.697   5.827  0.0345  0.5592 -0.3331
 3756TIP3    H132683   0.990   4.770   5.821  0.6370  1.2400  1.2826
 3756TIP3    H232684   1.021   4.635   5.760 -1.9481  1.2070 -0.1099
 3757TIP3   OH232685   0.560   4.984  16.731  0.1192  0.2163 -0.0647
 3757TIP3    H132686   0.585   4.968  16.640  0.9224 -0.3122  0.2329
 3757TIP3    H232687   0.465   4.974  16.732 -0.1646  2.2588 -1.2299
 3758TIP3   OH232688   4.719   5.741   3.478  0.2079 -0.1825  0.5117
 3758TIP3    H132689   4.773   5.717   3.554  1.4854  2.4836  0.5452
 3758TIP3    H232690   4.668   5.816   3.508  0.6304  0.8334 -1.2218
 3759TIP3   OH232691   5.090   0.943   4.482  0.0260 -0.1039 -0.1799
 3759TIP3    H132692   5.176   0.976   4.507 -0.5430  0.0044  1.8045
 3759TIP3    H232693   5.083   0.858   4.525 -0.4288 -0.6444 -1.2783
 3760TIP3   OH232694   0.447   6.253   0.786 -0.3544  0.4749 -0.1322
 3760TIP3    H132695   0.520   6.191   0.794  0.5905  1.5196 -0.4254
 3760TIP3    H232696   0.459   6.292   0.700 -0.9679  1.0329  0.0350
 3761TIP3   OH232697   0.101   2.114  11.608 -0.3779 -0.3882  0.0562
 3761TIP3    H132698   0.033   2.170  11.570 -0.8101 -1.0235 -0.1300
 3761TIP3    H232699   0.056   2.031  11.625 -0.9819  0.5954  4.4380
 3762TIP3   OH232700   2.858   4.423   4.050 -0.2317  0.7465  0.2515
 3762TIP3    H132701   2.941   4.463   4.026  0.5154 -1.3519 -0.8601
 3762TIP3    H232702   2.807   4.422   3.969 -0.4386 -0.0383  0.3826
 3763TIP3   OH232703   5.897   5.006  15.404  0.1795  0.2599  0.2428
 3763TIP3    H132704   5.990   4.991  15.388  0.0128  0.5565 -1.1779
 3763TIP3    H232705   5.885   5.099  15.383 -0.6266 -0.0316 -0.6399
 3764TIP3   OH232706   1.212   0.223   0.541  0.6154 -0.3297  0.4332
 3764TIP3    H132707   1.200   0.146   0.597  2.2056 -0.9274  0.0368
 3764TIP3    H232708   1.295   0.206   0.495 -0.4911  0.2378 -1.9295
 3765TIP3   OH232709   5.593   2.694   2.462 -0.2989  0.1583 -0.7282
 3765TIP3    H132710   5.546   2.682   2.545  1.5210  0.6045  0.4346
 3765TIP3    H232711   5.625   2.607   2.440 -0.4186  0.1146 -0.7308
 3766TIP3   OH232712   1.432   2.725  14.362  0.2230  0.0293 -0.5271
 3766TIP3    H132713   1.484   2.784  14.417 -1.0691 -0.3578  1.1979
 3766TIP3    H232714   1.487   2.647  14.354 -0.7056 -1.2147  3.0097
 3767TIP3   OH232715   0.882   1.464   5.261  0.8294 -0.1981 -0.3254
 3767TIP3    H132716   0.838   1.547   5.244 -0.8868 -0.9321  0.3397
 3767TIP3    H232717   0.826   1.398   5.220  1.7085 -1.1189 -0.0992
 3768TIP3   OH232718   4.709   5.246  11.426  0.0748 -0.1035 -0.5286
 3768TIP3    H132719   4.673   5.159  11.443  1.9129 -0.9840 -0.8548
 3768TIP3    H232720   4.748   5.239  11.339  0.2511  1.0601 -0.5597
 3769TIP3   OH232721   6.003   4.554  12.547 -0.1672  0.2487  0.2661
 3769TIP3    H132722   6.043   4.470  12.569  0.5731  0.3070 -0.7949
 3769TIP3    H232723   6.012   4.607  12.627  0.1810 -0.3737  0.6429
 3770TIP3   OH232724   0.327   1.098   0.917  0.6487  0.0079 -0.4441
 3770TIP3    H132725   0.268   1.048   0.973  2.4437 -0.5014  1.0804
 3770TIP3    H232726   0.274   1.121   0.841 -2.1252  1.3842  1.7631
 3771TIP3   OH232727   4.949   3.071  17.088 -0.5856 -0.0884 -0.4883
 3771TIP3    H132728   4.976   3.133  17.021 -1.7609  0.7609 -0.2126
 3771TIP3    H232729   4.900   3.004  17.041  0.7392 -0.8799 -0.7955
 3772TIP3   OH232730   0.100   5.206   3.115  0.2310  0.5339 -0.3417
 3772TIP3    H132731   0.147   5.224   3.033  0.6599  0.9668 -0.0070
 3772TIP3    H232732   0.136   5.270   3.177 -1.2142  1.2738 -0.2260
 3773TIP3   OH232733   0.887   4.096  11.121 -0.6905  0.2758 -0.1429
 3773TIP3    H132734   0.799   4.097  11.157 -0.8390  0.3799 -0.5039
 3773TIP3    H232735   0.944   4.100  11.198 -0.8844 -3.5851  0.4011
 3774TIP3   OH232736   4.605   0.437   5.099  0.1790 -0.2973  0.1761
 3774TIP3    H132737   4.581   0.498   5.169  0.9818  0.6755 -0.3751
 3774TIP3    H232738   4.524   0.388   5.081  0.0544 -0.8834  2.0560
 3775TIP3   OH232739   2.041   3.138   1.985 -0.7290  0.1300  0.6193
 3775TIP3    H132740   2.017   3.078   2.056 -2.2318 -1.3151 -0.9999
 3775TIP3    H232741   2.027   3.087   1.906 -1.7906  2.5326 -0.8521
 3776TIP3   OH232742   1.290   0.342  14.986 -0.2343  0.4648 -0.2326
 3776TIP3    H132743   1.381   0.365  15.003  0.4092 -1.1565 -1.2301
 3776TIP3    H232744   1.253   0.322  15.072  0.0535  2.0367  0.2870
 3777TIP3   OH232745   1.422   4.175  13.661 -0.0240  0.1001  0.1215
 3777TIP3    H132746   1.403   4.160  13.569 -0.6100 -1.0416  0.3940
 3777TIP3    H232747   1.514   4.149  13.671 -0.8098 -3.0882  0.4303
 3778TIP3   OH232748   5.205   4.065   3.672 -0.0280  0.0752 -0.1462
 3778TIP3    H132749   5.150   4.128   3.719  0.2247 -0.1924  0.5266
 3778TIP3    H232750   5.263   4.120   3.618 -0.8674  0.3590 -0.7712
 3779TIP3   OH232751   5.634   4.927   1.243 -0.5802 -0.1644  0.0313
 3779TIP3    H132752   5.570   4.998   1.232 -0.3004 -0.0036 -0.6258
 3779TIP3    H232753   5.606   4.882   1.322 -1.3783  0.0406 -0.1215
 3780TIP3   OH232754   3.965   1.007  14.096 -0.1729  0.2175  0.1364
 3780TIP3    H132755   4.048   1.048  14.121 -0.4310  0.6632  0.2871
 3780TIP3    H232756   3.966   1.009  14.000  0.8930 -1.6517  0.0664
 3781TIP3   OH232757   4.752   5.387   0.892  0.3050 -0.2110  0.1608
 3781TIP3    H132758   4.753   5.456   0.827 -2.6758 -0.1720 -0.0190
 3781TIP3    H232759   4.808   5.418   0.963  1.4636  0.9503 -1.2258
 3782TIP3   OH232760   0.241   2.902   2.007  0.0562 -0.4595  0.1008
 3782TIP3    H132761   0.313   2.895   1.943 -0.9546 -0.7711 -1.0310
 3782TIP3    H232762   0.233   2.996   2.024  0.7579 -0.4255  0.2797
 3783TIP3   OH232763   1.859   1.432   3.662  0.2392 -0.2596  0.0501
 3783TIP3    H132764   1.900   1.379   3.594 -1.5029  0.3804 -1.5568
 3783TIP3    H232765   1.802   1.371   3.709  0.7513 -0.5003  0.3722
 3784TIP3   OH232766   2.608   0.791   4.631 -0.0141  0.2389 -0.0908
 3784TIP3    H132767   2.542   0.857   4.652  0.2122  0.4717 -0.1016
 3784TIP3    H232768   2.582   0.713   4.681 -1.3893 -0.3187 -1.5890
 3785TIP3   OH232769   4.560   5.726  12.153 -0.1867 -0.2656  0.3228
 3785TIP3    H132770   4.627   5.676  12.105  0.7226  0.7990  0.4377
 3785TIP3    H232771   4.513   5.660  12.204 -0.4268 -1.2679 -1.1421
 3786TIP3   OH232772   0.769   6.305   0.297 -0.6880 -0.3998 -0.1232
 3786TIP3    H132773   0.696   6.245   0.282  0.0012 -1.3082  0.0842
 3786TIP3    H232774   0.845   6.248   0.307 -0.1792  0.4425  1.0908
 3787TIP3   OH232775   4.621   6.236  13.731  0.3627 -0.0057 -0.2849
 3787TIP3    H132776   4.532   6.267  13.747  0.4961  0.8286 -1.0641
 3787TIP3    H232777   4.677   6.307  13.764  0.6919  0.2447 -1.3411
 3788TIP3   OH232778   2.329   3.809   3.687  0.2341  0.1477  0.0181
 3788TIP3    H132779   2.257   3.757   3.651  2.6432 -2.1772 -1.9665
 3788TIP3    H232780   2.339   3.881   3.625 -1.6009  1.7210  1.4544
 3789TIP3   OH232781   4.292   6.139  12.002 -0.3503  0.2023  1.0155
 3789TIP3    H132782   4.332   6.106  12.082 -0.2650  0.3004  1.0133
 3789TIP3    H232783   4.333   6.224  11.987 -0.9489  0.5508  1.3083
 3790TIP3   OH232784   4.431   0.154   1.458 -0.4115  0.5018 -0.6112
 3790TIP3    H132785   4.466   0.164   1.369 -3.1915  0.3250 -1.8406
 3790TIP3    H232786   4.467   0.071   1.489  0.0823  0.2302 -1.8464
 3791TIP3   OH232787   4.966   5.977  17.125 -0.1193  0.1673  0.2877
 3791TIP3    H132788   4.974   5.884  17.146  0.5486  0.4808  1.5031
 3791TIP3    H232789   5.056   6.010  17.129 -0.1700  0.6265 -1.3979
 3792TIP3   OH232790   0.981   4.646  17.158 -0.2772 -0.9188  0.6534
 3792TIP3    H132791   1.064   4.601  17.175  0.5675  1.2505  2.8920
 3792TIP3    H232792   0.930   4.633  17.237 -1.0801 -0.1969  0.2726
 3793TIP3   OH232793   0.174   4.846  10.844  0.4139 -0.1452  0.0712
 3793TIP3    H132794   0.222   4.923  10.814 -0.7838  0.0214 -1.5080
 3793TIP3    H232795   0.087   4.879  10.866  0.9269 -0.4192  3.0025
 3794TIP3   OH232796   5.427   2.524  13.846  0.1104  0.0258  0.0339
 3794TIP3    H132797   5.387   2.514  13.759  0.5979 -1.7507 -0.0281
 3794TIP3    H232798   5.491   2.595  13.835 -1.7431  1.7557 -0.2915
 3795TIP3   OH232799   5.732   0.068   1.012  0.3989  0.3833  0.8094
 3795TIP3    H132800   5.692   0.155   1.007 -0.9743 -0.2557  0.3438
 3795TIP3    H232801   5.734   0.037   0.922 -0.9453 -0.8476  1.1689
 3796TIP3   OH232802   1.710   0.434   5.855  0.1317  0.4401 -0.1256
 3796TIP3    H132803   1.786   0.428   5.912 -1.2954  0.1916  1.8687
 3796TIP3    H232804   1.725   0.369   5.786  1.1520 -0.4424  0.9070
 3797TIP3   OH232805   4.299   4.421   3.747  0.1581  0.2739 -0.4222
 3797TIP3    H132806   4.272   4.356   3.682  0.1022  0.9898 -1.1426
 3797TIP3    H232807   4.374   4.382   3.791  0.1614 -0.2519 -0.8805
 3798TIP3   OH232808   0.200   5.177   0.092 -0.0583 -0.4303  0.4709
 3798TIP3    H132809   0.132   5.141   0.149  0.4405 -2.1328  0.0299
 3798TIP3    H232810   0.268   5.110   0.091  2.1539  1.6488  1.7312
 3799TIP3   OH232811   3.324   4.169  12.484 -0.1031  0.1557 -0.5701
 3799TIP3    H132812   3.343   4.151  12.392 -0.8873  1.3011 -0.9838
 3799TIP3    H232813   3.228   4.166  12.489 -0.1235  1.2658 -0.0546
 3800TIP3   OH232814   1.845   1.924   6.617 -0.4092  0.2498 -0.0061
 3800TIP3    H132815   1.904   1.849   6.616 -1.2985 -0.4665 -0.6052
 3800TIP3    H232816   1.878   1.980   6.687  1.0508 -0.0541 -0.4190
 3801TIP3   OH232817   1.788   3.149  15.024  0.3122 -0.3261 -0.0590
 3801TIP3    H132818   1.762   3.163  14.933 -0.7401 -0.4276  0.2154
 3801TIP3    H232819   1.801   3.237  15.060 -1.0912 -0.2163  0.2001
 3802TIP3   OH232820   4.183   3.737  10.974  0.2211 -0.3089  0.4355
 3802TIP3    H132821   4.229   3.663  10.934  0.4878 -0.3444  0.8087
 3802TIP3    H232822   4.159   3.793  10.899  0.3000 -0.6077  0.1836
 3803TIP3   OH232823   0.498   6.525   5.082 -0.5395  0.2264  0.2280
 3803TIP3    H132824   0.477   6.581   5.157  0.7470 -1.5751  2.0510
 3803TIP3    H232825   0.571   6.569   5.038 -0.5070  0.7076  0.7552
 3804TIP3   OH232826   3.556   3.453  12.478 -0.8039  0.8935 -0.4101
 3804TIP3    H132827   3.608   3.379  12.510  1.2640  3.6803  3.5390
 3804TIP3    H232828   3.465   3.427  12.495 -0.0417  0.0123  3.1196
 3805TIP3   OH232829   0.858   3.369   1.341  0.0383 -0.3454  0.8456
 3805TIP3    H132830   0.815   3.286   1.320 -1.4656  0.4805  0.5109
 3805TIP3    H232831   0.877   3.408   1.256  2.9413 -1.3580  0.9258
 3806TIP3   OH232832   4.848   2.966   5.255 -0.1730 -0.2840 -0.4794
 3806TIP3    H132833   4.875   3.000   5.341 -1.0995  0.6904 -0.5532
 3806TIP3    H232834   4.889   3.027   5.192 -0.4686 -0.2923 -0.6800
 3807TIP3   OH232835   4.394   1.179   5.524  0.4160 -0.3648 -0.8371
 3807TIP3    H132836   4.430   1.209   5.440 -0.9523  1.5871 -0.8103
 3807TIP3    H232837   4.469   1.151   5.575  1.3258 -1.1859 -2.5485
 3808TIP3   OH232838   2.416   4.242   0.293 -0.7818 -0.5368 -0.0783
 3808TIP3    H132839   2.504   4.276   0.273 -1.1885  0.6800  0.1177
 3808TIP3    H232840   2.384   4.299   0.363 -1.5354 -1.2955  0.2089
 3809TIP3   OH232841   0.188   2.982  16.747  0.2122 -0.0319 -0.8162
 3809TIP3    H132842   0.131   3.001  16.822 -0.8791 -0.6620 -1.4498
 3809TIP3    H232843   0.159   3.044  16.680  1.3934  0.7425 -0.6474
 3810TIP3   OH232844   5.632   4.881  17.181 -0.1223  0.3700 -0.0787
 3810TIP3    H132845   5.690   4.935  17.235 -0.9303 -0.6013  1.8803
 3810TIP3    H232846   5.683   4.802  17.162  0.4071  1.0045 -1.3687
 3811TIP3   OH232847   6.665   4.195  15.282 -0.5098  0.1161  0.7304
 3811TIP3    H132848   6.613   4.199  15.202  0.4273 -0.8659  0.0282
 3811TIP3    H232849   6.635   4.268  15.335 -2.2963 -0.1882  0.1843
 3812TIP3   OH232850   3.840   3.821  13.857  0.1270  0.2650  0.0391
 3812TIP3    H132851   3.834   3.884  13.786 -3.1312 -0.5540 -0.5915
 3812TIP3    H232852   3.792   3.862  13.930  0.0089 -0.4833  0.3990
 3813TIP3   OH232853   5.744   1.052   3.372  0.3462 -0.0717 -0.0890
 3813TIP3    H132854   5.701   0.999   3.439 -0.5914 -0.6764 -1.1260
 3813TIP3    H232855   5.837   1.050   3.394  0.2167 -1.4381  0.3861
 3814TIP3   OH232856   6.488   2.869   4.178  0.1793 -0.5197 -0.0230
 3814TIP3    H132857   6.461   2.833   4.094  0.7814  1.3072 -1.0530
 3814TIP3    H232858   6.547   2.803   4.215  2.5197 -0.0272 -2.5625
 3815TIP3   OH232859   1.528   2.637  11.195  0.1485  0.3482 -0.2296
 3815TIP3    H132860   1.591   2.702  11.228 -0.3710  0.7987 -0.0998
 3815TIP3    H232861   1.507   2.667  11.107  0.2881  0.0666 -0.3595
 3816TIP3   OH232862   0.406   0.101  14.640  0.0222 -0.4750  0.1190
 3816TIP3    H132863   0.408   0.042  14.716 -1.1060 -1.3742 -0.5137
 3816TIP3    H232864   0.496   0.130  14.630  0.0134  0.6175  2.5127
 3817TIP3   OH232865   3.180   3.060   2.803 -0.5646 -0.0670  0.2499
 3817TIP3    H132866   3.217   3.081   2.717 -0.0433 -0.4231  0.3827
 3817TIP3    H232867   3.236   2.990   2.837 -0.9850 -0.1806  0.7273
 3818TIP3   OH232868   6.348   2.184   1.613  0.7511  0.1521  0.5602
 3818TIP3    H132869   6.378   2.261   1.662  1.4524  0.1934  0.0956
 3818TIP3    H232870   6.312   2.221   1.532  0.5524  0.0289  0.5947
 3819TIP3   OH232871   3.919   2.405  12.913  0.0400  0.0524  0.5452
 3819TIP3    H132872   4.007   2.381  12.942 -0.1384 -1.4082 -0.0302
 3819TIP3    H232873   3.863   2.335  12.945 -0.8432  0.7203  0.4880
 3820TIP3   OH232874   5.210   4.018  13.187 -0.4894 -0.2997 -0.1552
 3820TIP3    H132875   5.221   4.086  13.120 -1.1977 -0.0913 -0.0676
 3820TIP3    H232876   5.299   4.000  13.218 -0.3438  1.0314  0.2610
 3821TIP3   OH232877   5.126   5.032   3.655 -0.1587 -0.2359  0.2950
 3821TIP3    H132878   5.062   5.092   3.695  0.5231 -0.5496  1.9303
 3821TIP3    H232879   5.202   5.087   3.638  0.1768 -0.4422  1.0636
 3822TIP3   OH232880   5.210   1.070  14.819  0.1567  0.4610  0.4678
 3822TIP3    H132881   5.191   0.977  14.823 -0.1705  0.5103  0.0190
 3822TIP3    H232882   5.155   1.109  14.887  1.4888  0.1378  1.7829
 3823TIP3   OH232883   2.993   5.416   4.211  0.2577  0.4196  0.0073
 3823TIP3    H132884   3.082   5.452   4.217 -0.4245  2.0065  1.3143
 3823TIP3    H232885   2.994   5.340   4.269  1.2566 -0.7367 -1.4679
 3824TIP3   OH232886   2.178   2.045  16.947 -0.0484  0.1269 -0.0898
 3824TIP3    H132887   2.257   2.059  17.000 -0.3454  0.1434  0.3517
 3824TIP3    H232888   2.211   2.014  16.863  0.3391 -1.9512  0.7655
 3825TIP3   OH232889   1.183   1.482  16.498 -0.5521  0.0629 -0.6259
 3825TIP3    H132890   1.150   1.459  16.411 -0.5043  0.2359 -0.6897
 3825TIP3    H232891   1.161   1.575  16.508 -1.7771 -0.2862  0.0986
 3826TIP3   OH232892   2.195   4.142  15.761 -0.4214  0.0021  0.0511
 3826TIP3    H132893   2.137   4.068  15.742  0.2587 -0.3903 -0.5417
 3826TIP3    H232894   2.251   4.111  15.832 -0.1707 -0.0466 -0.1633
 3827TIP3   OH232895   6.762   1.039   5.689 -0.2433  0.2279  0.0416
 3827TIP3    H132896   6.714   0.999   5.616 -1.1529  0.2679  0.5993
 3827TIP3    H232897   6.727   0.996   5.767 -1.5295  2.3306  0.7082
 3828TIP3   OH232898   3.626   3.628   3.507  0.1641  0.1278 -0.0420
 3828TIP3    H132899   3.709   3.638   3.460 -0.3661  3.8758 -0.4233
 3828TIP3    H232900   3.564   3.599   3.440  0.7385 -0.8604 -0.1637
 3829TIP3   OH232901   5.921   0.957  14.792 -0.1353  0.4819 -0.0758
 3829TIP3    H132902   5.925   0.865  14.817 -0.0273  0.5170  0.0357
 3829TIP3    H232903   6.012   0.986  14.793 -0.1775  0.6134 -0.0254
 3830TIP3   OH232904   5.879   5.121   4.483  0.0689 -0.0091 -0.0485
 3830TIP3    H132905   5.932   5.194   4.514 -1.3470  0.2120  2.1095
 3830TIP3    H232906   5.802   5.162   4.443  0.2992 -0.3187 -0.8146
 3831TIP3   OH232907   4.956   2.286   5.588 -0.0800  0.3140  0.1428
 3831TIP3    H132908   4.864   2.263   5.598 -0.4070  1.4249 -0.1718
 3831TIP3    H232909   4.964   2.372   5.630  0.7385  0.3870 -0.1405
 3832TIP3   OH232910   6.711   5.723  15.323  0.4388 -0.0019  0.7002
 3832TIP3    H132911   6.693   5.631  15.344 -0.0712 -1.0002 -3.3170
 3832TIP3    H232912   6.775   5.719  15.252  1.4886  2.9016  1.3373
 3833TIP3   OH232913   1.811   5.000   4.272 -0.9230  0.2877 -0.2787
 3833TIP3    H132914   1.716   4.995   4.261 -1.0504 -2.6752  1.3451
 3833TIP3    H232915   1.847   4.944   4.203 -0.3724  0.6840 -0.3241
 3834TIP3   OH232916   1.587   6.695   2.892 -0.3672 -0.3754 -0.5212
 3834TIP3    H132917   1.569   6.785   2.865 -1.9683 -1.0748 -1.9603
 3834TIP3    H232918   1.638   6.704   2.973 -0.1078  1.8043 -0.8632
 3835TIP3   OH232919   0.956   3.975  16.097 -0.2778  0.1876 -0.1115
 3835TIP3    H132920   0.874   4.008  16.133  0.0001  0.3099  0.4137
 3835TIP3    H232921   0.999   3.930  16.170  1.1817  2.0860  0.2642
 3836TIP3   OH232922   4.980   5.508   3.388 -0.5408  0.1047  0.3460
 3836TIP3    H132923   4.975   5.604   3.395 -1.7899  0.0810  0.0020
 3836TIP3    H232924   4.923   5.476   3.457  0.9200 -0.4407  1.3387
 3837TIP3   OH232925   0.322   1.493  10.704  0.2210 -0.2238 -0.0846
 3837TIP3    H132926   0.350   1.517  10.616  1.1205  0.2140  0.3005
 3837TIP3    H232927   0.227   1.488  10.699  0.0862  1.8114 -0.6015
 3838TIP3   OH232928   1.583   0.418  11.651 -0.6412 -0.2711 -0.1621
 3838TIP3    H132929   1.661   0.458  11.690 -1.0946  0.3550  0.1006
 3838TIP3    H232930   1.509   0.463  11.691 -1.1926 -1.7187  0.5487
 3839TIP3   OH232931   4.016   4.151   5.933 -0.3286 -0.4242 -0.1982
 3839TIP3    H132932   4.084   4.151   6.000  0.7161 -0.7357 -1.2365
 3839TIP3    H232933   3.951   4.088   5.964 -0.6955  0.6265  1.3089
 3840TIP3   OH232934   6.325   0.665  12.210  0.3020 -0.7570 -0.0007
 3840TIP3    H132935   6.344   0.613  12.289  2.0180  1.1830  0.9434
 3840TIP3    H232936   6.405   0.661  12.159  0.1507  0.2487 -0.3301
 3841TIP3   OH232937   4.590   2.939   5.213  0.1126 -0.1643  0.4780
 3841TIP3    H132938   4.591   2.922   5.119 -0.1563  1.4216  0.1621
 3841TIP3    H232939   4.678   2.969   5.234 -0.2110  0.8707  0.4314
 3842TIP3   OH232940   2.885   5.971   4.156 -0.4084 -0.0668  0.2182
 3842TIP3    H132941   2.920   6.042   4.208  0.6572 -0.0970 -0.4254
 3842TIP3    H232942   2.832   6.014   4.089  0.8276  0.2161 -0.6285
 3843TIP3   OH232943   6.406   6.255   5.014 -0.1265  1.2493  0.3487
 3843TIP3    H132944   6.464   6.328   5.035  0.7818  0.0910  2.1002
 3843TIP3    H232945   6.456   6.203   4.950  0.2313  0.9425  0.8704
 3844TIP3   OH232946   1.629   0.682   6.103 -0.3686 -0.1174 -0.5589
 3844TIP3    H132947   1.701   0.705   6.161  0.5348 -0.8027 -1.3808
 3844TIP3    H232948   1.561   0.746   6.122 -0.0175 -0.2126  1.1018
 3845TIP3   OH232949   2.654   0.672  12.362 -0.3051  0.4417  0.0898
 3845TIP3    H132950   2.585   0.646  12.423  1.0951  0.2558  1.6863
 3845TIP3    H232951   2.702   0.740  12.409  1.2097 -0.1458 -0.5596
 3846TIP3   OH232952   4.682   4.832   0.531  0.6741  0.1806 -0.2081
 3846TIP3    H132953   4.665   4.837   0.437  0.5452 -0.9663 -0.2592
 3846TIP3    H232954   4.774   4.808   0.537 -0.1404 -3.4297 -0.1710
 3847TIP3   OH232955   2.598   0.323   3.737  0.2567 -0.2853  0.4020
 3847TIP3    H132956   2.508   0.299   3.715 -1.1558  0.5885  4.2291
 3847TIP3    H232957   2.604   0.416   3.713 -1.0935  0.5401  2.8666
 3848TIP3   OH232958   3.150   0.534   3.241 -0.1688  0.2883 -0.0546
 3848TIP3    H132959   3.217   0.473   3.272 -0.3610  0.5122  0.8292
 3848TIP3    H232960   3.163   0.613   3.294  0.9984  1.6033 -2.1249
 3849TIP3   OH232961   2.583   5.038   0.460 -0.2823  0.1125  0.5777
 3849TIP3    H132962   2.576   5.000   0.373  1.4005  0.3046  0.3275
 3849TIP3    H232963   2.573   5.132   0.446  0.0363  0.1475  0.5854
 3850TIP3   OH232964   1.731   4.121   0.375 -0.1794 -0.0974 -0.3413
 3850TIP3    H132965   1.798   4.088   0.436 -0.4815 -1.5098 -0.7303
 3850TIP3    H232966   1.777   4.126   0.291 -0.3291 -0.2451 -0.4324
 3851TIP3   OH232967   5.901   6.098  13.241 -0.9403 -0.0017  0.4135
 3851TIP3    H132968   5.982   6.121  13.287 -0.9275 -2.3072  1.6786
 3851TIP3    H232969   5.930   6.059  13.158 -0.8466  0.7247  0.0944
 3852TIP3   OH232970   6.712   0.788  14.965 -0.2410 -0.4478  0.2317
 3852TIP3    H132971   6.630   0.829  14.994 -0.9626 -1.9386  0.4051
 3852TIP3    H232972   6.777   0.818  15.029 -1.4137 -2.1119  2.3556
 3853TIP3   OH232973   2.977   5.945   6.376  1.0189  0.3436 -0.0120
 3853TIP3    H132974   2.967   5.963   6.283 -0.5866 -1.8220 -0.3403
 3853TIP3    H232975   3.040   5.872   6.380 -0.7556 -1.2322  0.3489
 3854TIP3   OH232976   6.640   2.138   3.660  0.8007 -0.5559  0.2627
 3854TIP3    H132977   6.693   2.206   3.701  1.6124 -0.3564 -1.0638
 3854TIP3    H232978   6.681   2.124   3.574 -0.9901 -0.7649 -0.5994
 3855TIP3   OH232979   0.252   3.486   1.752 -0.0067 -0.3628  0.2210
 3855TIP3    H132980   0.346   3.468   1.751  0.0538 -0.1401 -1.9220
 3855TIP3    H232981   0.233   3.520   1.665 -1.8410  0.9379  1.0743
 3856TIP3   OH232982   2.158   1.516  13.618 -0.2189  0.2878  0.5548
 3856TIP3    H132983   2.218   1.514  13.543 -2.5634 -1.6371 -1.4474
 3856TIP3    H232984   2.180   1.438  13.668 -1.1425 -0.5769 -0.3373
 3857TIP3   OH232985   5.090   4.561  12.480 -0.6287  0.0349 -0.1125
 3857TIP3    H132986   5.163   4.591  12.427  0.2652 -0.9999  0.4846
 3857TIP3    H232987   5.129   4.541  12.565 -1.7040 -0.0409  0.3810
 3858TIP3   OH232988   6.099   3.329  13.978 -0.0508 -0.1905  0.0194
 3858TIP3    H132989   6.092   3.402  14.040  0.6068 -0.3937  0.3462
 3858TIP3    H232990   6.192   3.324  13.957  0.0458 -1.4612  0.6607
 3859TIP3   OH232991   6.064   4.516  15.836 -0.2646  0.3922  0.1304
 3859TIP3    H132992   6.003   4.442  15.834 -0.5309  0.5261  1.9329
 3859TIP3    H232993   6.021   4.583  15.782 -2.2863  0.8598  2.1562
 3860TIP3   OH232994   3.903   5.913   2.390  0.2594 -0.2680  0.1800
 3860TIP3    H132995   3.812   5.925   2.415  0.3602 -1.6422  1.3007
 3860TIP3    H232996   3.951   5.976   2.445  0.0778 -0.2364  0.3049
 3861TIP3   OH232997   5.781   4.163  16.691  0.8077 -0.0062 -0.5498
 3861TIP3    H132998   5.828   4.114  16.623  1.4909  0.3843 -0.3643
 3861TIP3    H232999   5.758   4.246  16.650  0.5816 -0.0558 -0.5281
 3862TIP3   OH233000   2.419   2.661  13.251  0.0515  0.1362  0.1663
 3862TIP3    H133001   2.482   2.592  13.231 -0.4007 -0.1797 -0.1591
 3862TIP3    H233002   2.335   2.626  13.224 -0.0349  1.2691 -1.1687
 3863TIP3   OH233003   0.488   3.801  12.343 -0.2818  0.0769  0.7133
 3863TIP3    H133004   0.433   3.844  12.409 -1.4282 -1.1296  0.5742
 3863TIP3    H233005   0.528   3.873  12.294 -2.9668  1.0489 -0.2076
 3864TIP3   OH233006   3.941   3.131   3.573  0.0549  0.0779 -0.4166
 3864TIP3    H133007   3.925   3.037   3.570  1.3815 -0.2873  1.7812
 3864TIP3    H233008   3.944   3.152   3.666  2.0666  1.8548 -0.8096
 3865TIP3   OH233009   5.705   5.967   2.840 -0.0343  0.1396  0.0189
 3865TIP3    H133010   5.695   5.891   2.782 -0.4446  0.2818 -0.1031
 3865TIP3    H233011   5.778   5.945   2.897 -0.8557 -0.8088  0.7164
 3866TIP3   OH233012   0.172   2.702   1.126  0.3759 -0.2607  0.6620
 3866TIP3    H133013   0.102   2.738   1.071  0.8350  0.6337  0.6442
 3866TIP3    H233014   0.134   2.697   1.213 -0.4119 -1.8347  0.2681
 3867TIP3   OH233015   2.374   0.575   5.008  0.4644 -0.3657 -0.4478
 3867TIP3    H133016   2.409   0.488   5.027 -1.7870 -1.0491  1.0567
 3867TIP3    H233017   2.394   0.626   5.086 -3.0450 -1.2719  1.2913
 3868TIP3   OH233018   1.364   5.437  16.073  0.1133 -0.1872  0.0120
 3868TIP3    H133019   1.430   5.369  16.086  1.2347  0.2678 -2.5074
 3868TIP3    H233020   1.314   5.407  15.997  0.3234  1.5225 -0.8541
 3869TIP3   OH233021   0.164   2.465   6.086  0.0647 -0.0037 -0.1626
 3869TIP3    H133022   0.243   2.519   6.076  0.6192  0.0326  3.1639
 3869TIP3    H233023   0.195   2.375   6.076  0.2165  0.0754 -0.4111
 3870TIP3   OH233024   4.078   2.206  13.190 -0.1352  0.5269  0.1951
 3870TIP3    H133025   4.093   2.295  13.159 -0.2218  0.7678  0.8276
 3870TIP3    H233026   4.139   2.196  13.264  0.4043 -0.1931 -0.3342
 3871TIP3   OH233027   6.465   0.821  13.933  0.1269 -0.7850 -0.6946
 3871TIP3    H133028   6.440   0.803  13.843  0.0700 -2.4390 -0.3876
 3871TIP3    H233029   6.493   0.736  13.967 -0.3199 -0.3020  0.9864
 3872TIP3   OH233030   0.175   2.777   2.774 -0.3194  0.1178  0.1152
 3872TIP3    H133031   0.157   2.773   2.868  0.8207 -1.7373  0.3018
 3872TIP3    H233032   0.225   2.697   2.756 -1.1661  0.0435 -2.2181
 3873TIP3   OH233033   0.080   6.119  10.967 -0.2103 -0.1140 -0.2615
 3873TIP3    H133034   0.158   6.090  11.015 -1.4727  0.1890  2.0895
 3873TIP3    H233035   0.100   6.098  10.876  1.8488 -1.7828  0.4799
 3874TIP3   OH233036   0.204   1.018  15.038  0.4008 -0.2286  1.0730
 3874TIP3    H133037   0.258   1.048  15.111  0.2977 -0.9902  1.4625
 3874TIP3    H233038   0.132   0.971  15.079  0.9869 -1.7220  0.4382
 3875TIP3   OH233039   2.030   5.970  15.591 -0.7855  0.8573 -0.1102
 3875TIP3    H133040   1.941   6.002  15.596 -0.4991  1.6386  0.0539
 3875TIP3    H233041   2.085   6.045  15.612 -0.1379 -0.0564  1.7371
 3876TIP3   OH233042   0.173   1.569  13.652  0.0312  0.2397 -0.0559
 3876TIP3    H133043   0.250   1.524  13.617  0.3860  1.1941 -0.5422
 3876TIP3    H233044   0.145   1.515  13.726  2.1498  0.7078  1.1859
 3877TIP3   OH233045   4.340   5.422   0.250  0.0093 -0.1259  0.1746
 3877TIP3    H133046   4.284   5.352   0.282  0.7999 -0.9531 -0.2026
 3877TIP3    H233047   4.354   5.402   0.158  0.2520  0.5205  0.0656
 3878TIP3   OH233048   3.008   5.714  15.526  0.8205 -0.1668  0.1834
 3878TIP3    H133049   2.998   5.683  15.436 -1.4469 -0.7065  0.5538
 3878TIP3    H233050   2.939   5.781  15.536 -0.7346 -1.9198  2.1968
 3879TIP3   OH233051   6.472   6.766  13.004  0.2153 -0.0260  0.4279
 3879TIP3    H133052   6.564   6.791  12.996  0.3455 -0.4260  0.6433
 3879TIP3    H233053   6.431   6.840  13.049  0.1210  0.8263 -1.0183
 3880TIP3   OH233054   0.466   2.963  15.876  0.1485 -0.1373 -0.0414
 3880TIP3    H133055   0.556   2.966  15.907  0.0314 -0.5645  0.3376
 3880TIP3    H233056   0.471   2.916  15.792 -0.0483 -2.5579  1.2085
 3881TIP3   OH233057   1.001   5.809  15.100 -0.3293  0.0003 -0.0152
 3881TIP3    H133058   1.077   5.830  15.045 -1.0674 -1.8517 -1.8583
 3881TIP3    H233059   0.944   5.885  15.089  1.2073  1.4618  1.4642
 3882TIP3   OH233060   2.786   0.029   0.181  0.2664  0.6305  0.0506
 3882TIP3    H133061   2.771  -0.062   0.209  1.7770  1.1971  3.0584
 3882TIP3    H233062   2.706   0.075   0.206 -0.3237  0.2765 -1.0835
 3883TIP3   OH233063   2.809   0.500   4.430  0.7773 -0.4653 -0.0733
 3883TIP3    H133064   2.830   0.522   4.521 -0.4369  0.7210 -0.0367
 3883TIP3    H233065   2.787   0.407   4.431 -0.3590 -0.1998  1.0769
 3884TIP3   OH233066   5.326   4.975  13.711  0.6164 -0.4510  0.6831
 3884TIP3    H133067   5.349   5.060  13.748  1.0017 -0.6129  0.8199
 3884TIP3    H233068   5.231   4.968  13.721  0.6670 -0.3073  1.2418
 3885TIP3   OH233069   5.958   3.037   0.210  0.0921  0.1019  0.2800
 3885TIP3    H133070   5.870   3.073   0.196 -0.1229 -0.3844  0.3656
 3885TIP3    H233071   6.014   3.087   0.150 -0.4603 -0.4556 -0.7189
 3886TIP3   OH233072   3.210   6.235  15.773  0.2171  0.2409  0.1734
 3886TIP3    H133073   3.253   6.287  15.706 -0.2437 -0.1837 -0.4707
 3886TIP3    H233074   3.281   6.206  15.831  1.0343 -1.5009 -1.5780
 3887TIP3   OH233075   1.283   6.279   2.055 -0.3555 -0.2865  0.3031
 3887TIP3    H133076   1.376   6.269   2.075 -0.1294  0.7250 -0.1773
 3887TIP3    H233077   1.264   6.206   1.996 -0.2419 -1.3638  1.5520
 3888TIP3   OH233078   3.271   3.462   4.371  0.0546  0.1152 -0.4235
 3888TIP3    H133079   3.220   3.524   4.424  0.7984  0.9260 -0.6309
 3888TIP3    H233080   3.272   3.381   4.422 -0.5560  0.4091  0.0623
 3889TIP3   OH233081   3.042   2.075  11.671 -0.5166 -0.0977  0.1414
 3889TIP3    H133082   3.102   2.024  11.616  0.7522  1.4959 -0.0157
 3889TIP3    H233083   3.034   2.023  11.751  0.8860 -0.4921  0.0650
 3890TIP3   OH233084   1.291   4.865  13.859  0.0551 -0.1349  0.7982
 3890TIP3    H133085   1.201   4.864  13.893 -0.7807  0.7563 -1.2127
 3890TIP3    H233086   1.304   4.955  13.829  1.5817 -0.3023  0.8914
 3891TIP3   OH233087   0.606   0.193   4.414  0.1170 -0.3124  0.7234
 3891TIP3    H133088   0.676   0.241   4.372 -1.0904  0.1889 -0.7786
 3891TIP3    H233089   0.622   0.204   4.508  3.2557 -2.0247  0.5036
 3892TIP3   OH233090   1.046   5.556  14.982  0.4666  0.0685  0.4576
 3892TIP3    H133091   1.052   5.619  15.054  1.1113  1.5878 -0.8678
 3892TIP3    H233092   1.011   5.606  14.909  2.5673 -0.6530 -1.1415
 3893TIP3   OH233093   3.580   5.861   0.607  0.0730 -0.0512  0.2248
 3893TIP3    H133094   3.598   5.857   0.513 -1.2231  1.7361 -0.1484
 3893TIP3    H233095   3.609   5.949   0.633  1.2280 -0.8275  1.7153
 3894TIP3   OH233096   1.470   1.755  12.104 -0.1617 -0.3447 -0.4064
 3894TIP3    H133097   1.437   1.665  12.092 -1.6655  0.1757 -0.4540
 3894TIP3    H233098   1.391   1.809  12.103  0.5418  0.8076  1.5807
 3895TIP3   OH233099   0.896   4.991  12.498  0.0141 -0.6383 -0.0329
 3895TIP3    H133100   0.823   5.029  12.547  1.0893 -0.5240  1.5559
 3895TIP3    H233101   0.889   5.030  12.411 -1.0789  0.3549  0.4668
 3896TIP3   OH233102   0.641   0.719  16.851  0.2820 -0.2972 -0.5077
 3896TIP3    H133103   0.610   0.635  16.817 -0.5680  0.2002 -0.9846
 3896TIP3    H233104   0.647   0.706  16.946 -1.0134 -0.5419 -0.4418
 3897TIP3   OH233105   5.170   4.133  12.285  0.6494  0.1845  0.2159
 3897TIP3    H133106   5.170   4.075  12.209  0.5030  1.7740 -1.0299
 3897TIP3    H233107   5.253   4.181  12.280  0.9487 -0.1443  1.4504
 3898TIP3   OH233108   0.915   1.248  11.374  0.4370 -0.2038  0.7202
 3898TIP3    H133109   0.988   1.263  11.435  0.5776  0.5374  0.3753
 3898TIP3    H233110   0.892   1.156  11.388  1.3460 -0.4145  0.9297
 3899TIP3   OH233111   4.951   1.454  11.753  0.4928  0.3485 -0.5346
 3899TIP3    H133112   4.858   1.456  11.727  0.2025 -2.3039  0.0268
 3899TIP3    H233113   4.998   1.475  11.672 -0.5644 -1.9140 -1.8561
 3900TIP3   OH233114   4.082   2.099   0.671 -0.0021 -0.4238  0.1329
 3900TIP3    H133115   4.000   2.148   0.682  0.5501  0.6270 -0.2570
 3900TIP3    H233116   4.149   2.157   0.707  0.7937 -0.4467 -1.2595
 3901TIP3   OH233117   1.175   2.129  12.433 -0.0920 -0.5303 -0.1618
 3901TIP3    H133118   1.238   2.129  12.506  0.0217 -2.7338 -0.1890
 3901TIP3    H233119   1.191   2.212  12.387  2.3082 -0.6985  0.2403
 3902TIP3   OH233120   1.693   5.086  11.342 -0.1159 -0.4617 -0.4860
 3902TIP3    H133121   1.706   5.005  11.292 -0.7096 -0.1768 -1.1165
 3902TIP3    H233122   1.779   5.128  11.342  0.0811 -0.8553 -0.5678
 3903TIP3   OH233123   2.359   6.111   6.552 -0.5499 -0.2342 -0.5009
 3903TIP3    H133124   2.343   6.041   6.488  0.7237 -0.0707 -1.0099
 3903TIP3    H233125   2.451   6.102   6.575 -0.3632  1.2972 -0.5863
 3904TIP3   OH233126   0.262   0.617   6.817  0.3376  0.2505  0.5876
 3904TIP3    H133127   0.326   0.644   6.883  1.9110  2.8301 -1.7649
 3904TIP3    H233128   0.315   0.583   6.744 -1.3243 -2.4677  0.4979
 3905TIP3   OH233129   0.791   4.747   5.250  0.3918  0.1730 -0.2428
 3905TIP3    H133130   0.728   4.675   5.242  1.4080 -0.6723 -0.8988
 3905TIP3    H233131   0.752   4.818   5.198 -0.3745 -0.0711 -0.0172
 3906TIP3   OH233132   0.765   1.738   6.450 -0.1460 -0.3529 -0.4931
 3906TIP3    H133133   0.686   1.743   6.503 -0.0607 -0.2907 -0.3713
 3906TIP3    H233134   0.835   1.719   6.513  0.1602  1.0179 -0.4024
 3907TIP3   OH233135   5.329   6.706   0.696 -0.0019 -0.5156 -0.2710
 3907TIP3    H133136   5.319   6.733   0.787 -1.5603  0.7278 -0.7601
 3907TIP3    H233137   5.274   6.767   0.647  0.1444 -1.6760 -1.9641
 3908TIP3   OH233138   5.214   5.743   2.759  0.5313  0.2141 -0.2475
 3908TIP3    H133139   5.165   5.688   2.820 -1.2848  0.7190 -1.1721
 3908TIP3    H233140   5.306   5.733   2.786 -0.0349 -0.9043  1.4575
 3909TIP3   OH233141   0.313   0.746   2.106 -0.7831 -0.5818 -0.9407
 3909TIP3    H133142   0.375   0.707   2.045  0.7146 -1.0171  0.7666
 3909TIP3    H233143   0.279   0.823   2.061  0.5467 -0.6725 -2.1564
 3910TIP3   OH233144   2.599   2.259   1.608 -0.0700  0.0519  0.6524
 3910TIP3    H133145   2.619   2.345   1.645  3.3574 -0.7729  1.0396
 3910TIP3    H233146   2.577   2.205   1.683 -2.3253  0.5233  0.3993
 3911TIP3   OH233147   5.728   5.130  14.095  0.4786 -0.2705 -0.3957
 3911TIP3    H133148   5.739   5.061  14.030  0.0515 -0.8681  0.1595
 3911TIP3    H233149   5.703   5.207  14.044  1.9043 -0.2599 -1.1249
 3912TIP3   OH233150   0.149   4.686   2.192  0.3149 -0.9783 -0.0580
 3912TIP3    H133151   0.216   4.746   2.156 -0.2022 -1.1069 -1.2896
 3912TIP3    H233152   0.182   4.599   2.171 -1.0022 -1.0259 -2.2179
 3913TIP3   OH233153   2.559   6.702   4.189  0.9713 -0.4788  0.5150
 3913TIP3    H133154   2.519   6.618   4.212  0.4048  0.1689  2.0033
 3913TIP3    H233155   2.651   6.681   4.173  0.3297 -1.8248 -1.9647
 3914TIP3   OH233156   1.567   1.887  15.359 -0.0444 -0.1424  0.1159
 3914TIP3    H133157   1.534   1.973  15.333  0.1969 -0.0129  0.2318
 3914TIP3    H233158   1.609   1.852  15.280  2.0952  0.9188  0.6930
 3915TIP3   OH233159   2.913   3.211   2.090 -0.1987  0.0299 -0.1746
 3915TIP3    H133160   2.897   3.226   2.183  0.8338  1.6054 -0.2059
 3915TIP3    H233161   2.999   3.249   2.074  0.4723 -1.8706 -1.4240
 3916TIP3   OH233162   2.229   0.548   3.842  0.4944 -1.0872  0.1019
 3916TIP3    H133163   2.222   0.461   3.803 -0.1279 -1.8277  1.7446
 3916TIP3    H233164   2.305   0.542   3.900  0.2171 -0.6819  0.5205
 3917TIP3   OH233165   3.966   4.444  11.353 -0.1073 -0.7101 -0.1737
 3917TIP3    H133166   3.925   4.405  11.276 -0.6515  1.2651 -0.9409
 3917TIP3    H233167   3.898   4.497  11.393  0.5487 -0.6627  0.9257
 3918TIP3   OH233168   2.918   4.908  17.279  0.8010 -0.7960  0.2399
 3918TIP3    H133169   2.886   4.842  17.340  1.0300 -1.9453 -0.8331
 3918TIP3    H233170   3.012   4.892  17.274  0.6842 -1.2531 -0.9729
 3919TIP3   OH233171   2.586   1.767   4.965 -0.1306  0.2490  0.4778
 3919TIP3    H133172   2.666   1.719   4.984  0.0274 -0.1018 -0.9500
 3919TIP3    H233173   2.607   1.859   4.984 -0.0143 -0.0581  1.9399
 3920TIP3   OH233174   3.184   1.658  15.758 -0.4564  0.7998  0.4883
 3920TIP3    H133175   3.120   1.587  15.744  0.5844 -0.0277 -0.2497
 3920TIP3    H233176   3.209   1.649  15.850 -0.0231 -0.0953  0.3011
 3921TIP3   OH233177   0.656   1.195   2.714  0.5573  0.0309 -0.3061
 3921TIP3    H133178   0.601   1.184   2.791  2.0690  1.7196  1.1183
 3921TIP3    H233179   0.716   1.120   2.717 -1.5272 -1.8436 -1.8956
 3922TIP3   OH233180   4.942   0.535  14.187  0.1529  0.1393 -0.0287
 3922TIP3    H133181   4.854   0.512  14.219  0.1552  0.6869  0.3798
 3922TIP3    H233182   4.971   0.606  14.244  1.3438 -0.8042  0.5952
 3923TIP3   OH233183   0.387   0.956  12.097 -0.2041 -0.6624  0.2782
 3923TIP3    H133184   0.480   0.942  12.079 -0.3165 -0.2216 -0.7222
 3923TIP3    H233185   0.378   1.051  12.105 -0.9251 -0.4769 -1.9474
 3924TIP3   OH233186   2.910   0.728  11.742 -0.1949 -0.6700 -0.4807
 3924TIP3    H133187   2.892   0.691  11.656  2.6329  1.1997 -2.0124
 3924TIP3    H233188   2.853   0.679  11.801 -2.0718 -2.2062 -3.3260
 3925TIP3   OH233189   4.085   0.432  11.339  0.4432  0.4093  0.5261
 3925TIP3    H133190   4.068   0.433  11.244  1.6263  2.6997  0.2729
 3925TIP3    H233191   4.163   0.378  11.349 -0.7583 -1.4437  0.4881
 3926TIP3   OH233192   2.205   6.510  15.198 -0.3377  0.0795  0.2936
 3926TIP3    H133193   2.160   6.568  15.136 -0.4858  0.4971  0.7928
 3926TIP3    H233194   2.190   6.422  15.162 -2.2182  0.1280  0.8352
 3927TIP3   OH233195   1.927   4.712  15.332 -0.4365 -0.0327  0.5201
 3927TIP3    H133196   1.884   4.731  15.415 -0.4052  0.2804  0.4665
 3927TIP3    H233197   1.975   4.631  15.347  0.4121  0.5756  1.1195
 3928TIP3   OH233198   0.147   5.567   2.123 -0.3179  0.2184 -0.4675
 3928TIP3    H133199   0.052   5.575   2.118 -0.5210 -1.1775  0.5016
 3928TIP3    H233200   0.164   5.473   2.126  1.0262  0.4459  0.2501
 3929TIP3   OH233201   4.429   5.436   2.898 -0.2138  0.4134 -0.3222
 3929TIP3    H133202   4.421   5.365   2.835 -0.0844  0.6743 -0.6363
 3929TIP3    H233203   4.452   5.513   2.845  0.1847  0.5741  0.0768
 3930TIP3   OH233204   2.526   5.237   4.291 -0.0662 -0.7820 -0.3831
 3930TIP3    H133205   2.506   5.329   4.272  1.4935 -0.4598 -0.5928
 3930TIP3    H233206   2.535   5.196   4.205 -1.4983 -1.3335 -0.2993
 3931TIP3   OH233207   4.946   1.796   0.356  0.6495 -0.2169 -0.3389
 3931TIP3    H133208   5.001   1.870   0.331  1.2573 -0.4919  0.1515
 3931TIP3    H233209   4.937   1.744   0.276  1.0390 -0.1294 -0.4410
 3932TIP3   OH233210   3.793   4.056  14.110 -0.1234 -0.0850  0.4607
 3932TIP3    H133211   3.759   4.124  14.167 -0.4262  0.0584  0.1062
 3932TIP3    H233212   3.740   3.979  14.129  0.1908 -0.2151  0.8291
 3933TIP3   OH233213   5.885   5.064   1.108  0.1614 -0.5740  0.1046
 3933TIP3    H133214   5.857   5.086   1.197 -0.5421 -3.5790  0.7401
 3933TIP3    H233215   5.807   5.079   1.054  0.8970  2.3080 -0.3026
 3934TIP3   OH233216   2.969   5.012  13.578 -0.2029 -0.0027  0.3733
 3934TIP3    H133217   3.004   4.987  13.492  0.4462 -0.3808  0.7362
 3934TIP3    H233218   3.043   5.055  13.622 -0.6061  0.4135  0.6511
 3935TIP3   OH233219   4.328   1.372  12.497  0.0696 -0.0916 -0.0137
 3935TIP3    H133220   4.415   1.388  12.459  0.3166 -1.2760  0.0146
 3935TIP3    H233221   4.303   1.285  12.464 -0.9903  0.1169  0.1963
 3936TIP3   OH233222   1.533   0.252   1.441 -0.5335 -0.6320 -0.2475
 3936TIP3    H133223   1.448   0.229   1.478 -0.1204  1.3096  2.1688
 3936TIP3    H233224   1.529   0.348   1.430  2.1942 -0.0269  2.6331
 3937TIP3   OH233225   6.417   5.901   0.996  0.1427  0.0281  0.1624
 3937TIP3    H133226   6.476   5.826   0.985  2.7868  2.0306 -0.3205
 3937TIP3    H233227   6.420   5.946   0.911 -1.8538  0.4342  0.2498
 3938TIP3   OH233228   2.783   4.772  12.862 -0.3618  0.1643  0.2448
 3938TIP3    H133229   2.760   4.681  12.881 -2.9469  0.4102 -1.3214
 3938TIP3    H233230   2.870   4.766  12.821 -0.6953 -1.6498 -0.3071
 3939TIP3   OH233231   6.380   3.105   3.989 -0.0714 -0.1894  0.2166
 3939TIP3    H133232   6.385   3.201   3.989 -1.2226 -0.0300 -2.6689
 3939TIP3    H233233   6.458   3.076   3.943 -0.8823 -0.4409 -1.0680
 3940TIP3   OH233234   5.889   2.938   0.697  0.3612  0.1318  0.0464
 3940TIP3    H133235   5.808   2.974   0.660  0.3430 -0.9109 -0.9614
 3940TIP3    H233236   5.875   2.844   0.700  2.0874 -0.2162 -1.5300
 3941TIP3   OH233237   2.759   3.307  15.529 -0.1746  0.0807  0.8020
 3941TIP3    H133238   2.821   3.249  15.486 -0.5881 -1.2597  1.9455
 3941TIP3    H233239   2.677   3.295  15.482 -0.6465 -1.4408  1.9277
 3942TIP3   OH233240   1.063   4.071  12.284  0.1048  0.4102  0.1030
 3942TIP3    H133241   0.997   4.123  12.330 -0.2036  0.4638 -0.3976
 3942TIP3    H233242   1.072   4.114  12.199  1.8793  1.3216  0.6884
 3943TIP3   OH233243   2.715   4.645   0.973  0.0072 -0.4638  0.0609
 3943TIP3    H133244   2.792   4.694   0.942  0.3181 -0.6713  0.4942
 3943TIP3    H233245   2.697   4.583   0.902  1.2873 -1.5708  0.6616
 3944TIP3   OH233246   2.752   0.991  16.898 -0.2606 -0.3179 -0.3691
 3944TIP3    H133247   2.837   1.033  16.891  1.6055 -2.3265  5.1776
 3944TIP3    H233248   2.762   0.909  16.849  0.3675  0.1133 -0.9932
 3945TIP3   OH233249   4.134   4.908   2.734 -0.2113 -0.5603  0.0673
 3945TIP3    H133250   4.170   4.959   2.807 -0.5126 -1.4515  0.8586
 3945TIP3    H233251   4.061   4.960   2.702 -0.1438 -0.2079  0.4771
 3946TIP3   OH233252   5.189   1.997  15.180 -0.2181  0.5413 -0.3349
 3946TIP3    H133253   5.241   2.045  15.116 -0.6620  1.2389 -0.1744
 3946TIP3    H233254   5.138   2.064  15.225 -0.9726 -0.0939 -0.2263
 3947TIP3   OH233255   0.462   2.742   2.880 -0.3920 -0.6293  0.2626
 3947TIP3    H133256   0.447   2.706   2.967 -0.5304 -1.1370  0.0378
 3947TIP3    H233257   0.436   2.671   2.820 -2.8252  0.6291 -0.2678
 3948TIP3   OH233258   2.856   3.785   1.523 -0.1601  0.1743  0.2748
 3948TIP3    H133259   2.795   3.763   1.452 -1.1484  1.1595  0.7787
 3948TIP3    H233260   2.896   3.701   1.548  1.8341  0.0580 -2.8268
 3949TIP3   OH233261   3.240   6.534   1.985 -0.0441 -0.3546  0.1457
 3949TIP3    H133262   3.170   6.596   1.967  0.6819  0.1084 -1.2365
 3949TIP3    H233263   3.202   6.472   2.048 -1.9588 -0.6044 -1.1731
 3950TIP3   OH233264   1.142   4.748   2.023 -0.0622 -0.3231 -0.0844
 3950TIP3    H133265   1.199   4.822   2.005 -0.1263 -0.6898 -1.9729
 3950TIP3    H233266   1.054   4.778   2.000  0.0079 -1.1670 -1.6371
 3951TIP3   OH233267   3.586   6.027  12.237 -0.5083  0.5321 -0.1647
 3951TIP3    H133268   3.630   6.062  12.314  0.4875  0.3802 -0.6510
 3951TIP3    H233269   3.507   5.985  12.272  0.9936 -1.4545  1.0762
 3952TIP3   OH233270   4.672   6.002  17.203  0.0773 -0.0364 -0.0337
 3952TIP3    H133271   4.664   6.054  17.283 -0.1264 -1.7471  1.0971
 3952TIP3    H233272   4.766   5.987  17.194 -0.0110 -1.2998  0.8908
 3953TIP3   OH233273   0.323   1.445   2.838  0.1332  0.4321  0.5113
 3953TIP3    H133274   0.363   1.359   2.823 -0.4055 -0.3028  2.7896
 3953TIP3    H233275   0.286   1.470   2.754 -0.2240 -1.8577 -0.0802
 3954TIP3   OH233276   3.157   4.715  12.524 -0.0528  0.0114 -0.0707
 3954TIP3    H133277   3.091   4.686  12.461 -0.5606  2.1991 -0.6414
 3954TIP3    H233278   3.240   4.703  12.478 -0.1010 -1.6616  0.2117
 3955TIP3   OH233279   4.479   6.438   3.945 -0.7690 -0.3873 -0.2762
 3955TIP3    H133280   4.394   6.422   3.986 -0.1889  0.5459  1.3880
 3955TIP3    H233281   4.493   6.532   3.956 -0.0856 -0.3046 -1.6939
 3956TIP3   OH233282   6.384   2.429   4.168  0.8264 -1.0264  0.1014
 3956TIP3    H133283   6.403   2.511   4.214  1.0244 -0.8913 -0.2215
 3956TIP3    H233284   6.293   2.409   4.193  0.0216  0.3962 -1.4501
 3957TIP3   OH233285   0.479   2.115  11.002  0.2582  0.1799 -0.2124
 3957TIP3    H133286   0.511   2.196  11.041  1.1113 -0.4727  0.4675
 3957TIP3    H233287   0.558   2.070  10.973 -0.1300 -0.9312  0.4375
 3958TIP3   OH233288   3.130   5.329  12.411 -0.0851 -0.0007 -0.2001
 3958TIP3    H133289   3.151   5.342  12.504  0.4504 -0.7945 -0.2000
 3958TIP3    H233290   3.215   5.322  12.368 -0.3239 -1.2142 -0.5124
 3959TIP3   OH233291   3.751   1.648  13.821 -0.1696 -0.0036  0.5151
 3959TIP3    H133292   3.670   1.598  13.813 -1.5715  2.0550  0.9411
 3959TIP3    H233293   3.755   1.673  13.913  0.7408  0.2845  0.4156
 3960TIP3   OH233294   4.492   1.606  13.103  0.3618 -0.2116 -0.5088
 3960TIP3    H133295   4.455   1.518  13.089  1.5262 -0.5305 -1.9061
 3960TIP3    H233296   4.584   1.596  13.079  0.7622  1.1579  0.3866
 3961TIP3   OH233297   5.601   0.860   3.614  0.7431 -0.5036  0.1110
 3961TIP3    H133298   5.509   0.855   3.585  0.1664  0.1244  1.7060
 3961TIP3    H233299   5.601   0.930   3.680  2.6515  0.4227 -0.7894
 3962TIP3   OH233300   5.849   6.404  16.277 -0.2448  0.2188  0.1906
 3962TIP3    H133301   5.843   6.340  16.206 -0.2687 -0.6913  0.9966
 3962TIP3    H233302   5.929   6.453  16.259  1.0590 -1.6080  0.8326
 3963TIP3   OH233303   4.329   1.973  12.480  0.3468  0.0107 -0.4136
 3963TIP3    H133304   4.253   1.962  12.423 -0.8021  1.9608  0.6110
 3963TIP3    H233305   4.335   1.891  12.529 -1.3378 -0.0545 -0.2595
 3964TIP3   OH233306   4.718   1.319   2.792  0.1798  0.8620 -0.0530
 3964TIP3    H133307   4.630   1.349   2.769 -0.0798 -0.8560 -1.5758
 3964TIP3    H233308   4.743   1.372   2.867 -2.9301  0.1483  1.6759
 3965TIP3   OH233309   2.140   4.246  13.342 -0.3207  0.4839 -0.1183
 3965TIP3    H133310   2.211   4.205  13.392  0.6373 -0.1484 -1.8968
 3965TIP3    H233311   2.185   4.304  13.280 -1.2390 -0.7392 -2.0142
 3966TIP3   OH233312   3.573   4.438   5.605  0.6450 -0.0705 -0.1827
 3966TIP3    H133313   3.581   4.343   5.599  1.0841 -0.1439  1.1947
 3966TIP3    H233314   3.513   4.452   5.678  0.3328  0.7267 -0.5777
 3967TIP3   OH233315   2.510   0.358  15.349  0.5128  0.0561 -0.2307
 3967TIP3    H133316   2.481   0.399  15.267  1.2014  1.5495  0.2567
 3967TIP3    H233317   2.429   0.327  15.390  0.1721 -0.8560 -1.5311
 3968TIP3   OH233318   5.395   3.734  14.083  0.1117  0.5458  0.1131
 3968TIP3    H133319   5.455   3.802  14.114 -0.4705  0.4628  1.4898
 3968TIP3    H233320   5.442   3.652  14.100  0.5625  0.5569 -0.9893
 3969TIP3   OH233321   0.093   6.753   5.415  0.3622 -0.5802 -0.3832
 3969TIP3    H133322   0.010   6.745   5.368 -0.4247 -0.3183  0.9117
 3969TIP3    H233323   0.079   6.706   5.497  1.2007  0.1983  0.2286
 3970TIP3   OH233324   2.133   4.864  12.161  0.0969 -0.4681  0.5244
 3970TIP3    H133325   2.051   4.882  12.207  0.9122  0.2195  1.7762
 3970TIP3    H233326   2.169   4.951  12.143 -0.7163 -0.6627 -2.4735
 3971TIP3   OH233327   0.687   1.162   4.306 -0.3345 -0.1284 -0.4458
 3971TIP3    H133328   0.698   1.071   4.279 -0.5469 -0.7387  1.3993
 3971TIP3    H233329   0.601   1.164   4.349  0.0681  0.7365  0.3397
 3972TIP3   OH233330   3.554   5.272  12.812  0.4095 -0.0429 -0.2563
 3972TIP3    H133331   3.615   5.236  12.877  2.4099  0.9743 -1.4481
 3972TIP3    H233332   3.491   5.323  12.864  0.2461 -1.5043  1.0619
 3973TIP3   OH233333   1.580   3.581  13.779  0.7730  0.1822  0.1935
 3973TIP3    H133334   1.505   3.637  13.800  0.0439 -0.4375 -0.6741
 3973TIP3    H233335   1.611   3.612  13.694  0.4096 -0.6476 -0.2608
 3974TIP3   OH233336   6.344   3.782   1.940 -0.1236 -0.0420 -0.4521
 3974TIP3    H133337   6.309   3.846   1.878  0.0578  0.6840  0.1878
 3974TIP3    H233338   6.372   3.709   1.885 -0.9736  0.1246 -1.1291
 3975TIP3   OH233339   4.827   6.660  14.064  0.2074 -0.7216  0.4583
 3975TIP3    H133340   4.825   6.755  14.072 -2.5635 -0.5417 -1.2446
 3975TIP3    H233341   4.885   6.631  14.135  0.7850  2.1778  1.2772
 3976TIP3   OH233342   2.333   1.329  13.747 -0.2820 -0.1232  0.2535
 3976TIP3    H133343   2.366   1.418  13.759  1.5770 -0.8269  0.8151
 3976TIP3    H233344   2.292   1.307  13.831  2.5467 -1.0175  1.5379
 3977TIP3   OH233345   6.433   4.364  14.404  0.5026  0.3070 -0.1510
 3977TIP3    H133346   6.383   4.445  14.415 -1.9584 -0.9640 -1.1169
 3977TIP3    H233347   6.457   4.338  14.493  2.4096  2.6396  0.1120
 3978TIP3   OH233348   0.944   4.066   4.634  0.0287  0.1216 -0.0612
 3978TIP3    H133349   1.013   4.001   4.617 -0.0971 -0.2563  0.8078
 3978TIP3    H233350   0.895   4.070   4.552  1.9185  1.4588 -1.2039
 3979TIP3   OH233351   1.457   4.441  15.225 -0.4245 -0.2018  0.2073
 3979TIP3    H133352   1.524   4.413  15.163 -1.1329 -1.0611 -0.1909
 3979TIP3    H233353   1.505   4.451  15.308  0.2524 -0.4960 -0.1352
 3980TIP3   OH233354   1.382   0.200  15.311 -0.5757 -0.0996 -0.1993
 3980TIP3    H133355   1.302   0.248  15.288 -0.6304  0.4769  1.1296
 3980TIP3    H233356   1.450   0.241  15.257 -1.0676 -0.2466 -0.9557
 3981TIP3   OH233357   0.432   6.735   4.786  0.7401 -0.3303 -0.3879
 3981TIP3    H133358   0.467   6.742   4.697  0.1585  2.7355 -0.5040
 3981TIP3    H233359   0.510   6.735   4.842  1.0949  1.4069 -0.8183
 3982TIP3   OH233360   5.542   2.594  11.272 -0.1273  0.5433 -0.2849
 3982TIP3    H133361   5.528   2.499  11.274 -0.8939  0.6633  0.9373
 3982TIP3    H233362   5.528   2.618  11.180 -2.1819 -0.2240 -0.2276
 3983TIP3   OH233363   3.393   6.478   0.635  0.1297  0.4304 -0.1825
 3983TIP3    H133364   3.462   6.506   0.575  1.2332 -3.2648 -0.8629
 3983TIP3    H233365   3.319   6.457   0.578 -0.6449  1.6817  0.3054
 3984TIP3   OH233366   6.266   3.135   4.822 -0.1110  0.3317  0.6914
 3984TIP3    H133367   6.287   3.042   4.826  1.6500  0.6060 -0.9170
 3984TIP3    H233368   6.216   3.152   4.903  1.5791 -1.4958  2.2153
 3985TIP3   OH233369   3.222   3.854  14.036  0.0226 -0.0372  0.2554
 3985TIP3    H133370   3.317   3.844  14.023 -0.3806 -1.8261 -2.0087
 3985TIP3    H233371   3.212   3.942  14.072  2.4222  1.0415 -1.3980
 3986TIP3   OH233372   0.925   3.169  13.598 -0.2028 -0.3695 -0.3291
 3986TIP3    H133373   0.872   3.199  13.524  0.3711  0.6623 -0.3379
 3986TIP3    H233374   0.901   3.228  13.669  1.3868  0.5406 -0.5112
 3987TIP3   OH233375   1.762   0.210   2.912  0.3105 -0.4534  0.4707
 3987TIP3    H133376   1.820   0.140   2.941  0.3192 -0.1651  1.1965
 3987TIP3    H233377   1.799   0.289   2.952  1.6559  0.3790 -2.2063
 3988TIP3   OH233378   3.483   2.153   1.988  0.3502  0.1158 -0.5504
 3988TIP3    H133379   3.497   2.120   1.900  0.9142  1.4871 -1.0059
 3988TIP3    H233380   3.462   2.246   1.976 -0.4128  0.1328  0.7064
 3989TIP3   OH233381   1.646   0.415   0.848 -0.2565 -0.0568 -0.7692
 3989TIP3    H133382   1.689   0.397   0.765  1.2256  1.0251 -0.2853
 3989TIP3    H233383   1.668   0.339   0.903  0.4297  0.1325 -0.7681
 3990TIP3   OH233384   2.465   4.603   4.878 -0.5749 -0.3055  0.3547
 3990TIP3    H133385   2.491   4.618   4.787 -0.5158  0.2875  0.4667
 3990TIP3    H233386   2.420   4.683   4.904  1.7744  0.6680  1.6952
 3991TIP3   OH233387   0.808   0.068   5.172  0.2795 -0.1794 -0.4452
 3991TIP3    H133388   0.729   0.102   5.216 -1.2014 -2.8013 -0.8675
 3991TIP3    H233389   0.874   0.136   5.186 -1.9846  2.0997  0.0574
 3992TIP3   OH233390   3.035   1.564   3.962  0.1276 -0.3923  0.0541
 3992TIP3    H133391   3.041   1.484   3.910  1.3252  0.9300 -1.9946
 3992TIP3    H233392   3.082   1.544   4.043 -0.4049 -2.0127  0.0093
 3993TIP3   OH233393   2.226   6.029  12.781  0.4530 -0.7410 -0.3736
 3993TIP3    H133394   2.279   5.952  12.761 -0.6812 -1.8368  0.6582
 3993TIP3    H233395   2.140   5.993  12.805 -0.0020  0.8262  0.4916
 3994TIP3   OH233396   5.453   5.960  11.283  0.0176 -0.0295  0.2672
 3994TIP3    H133397   5.371   5.992  11.245 -0.6354 -1.9361 -0.0482
 3994TIP3    H233398   5.520   5.980  11.217 -0.1933  1.4074  0.4659
 3995TIP3   OH233399   3.951   0.547   2.949 -0.5680 -0.1523  0.2098
 3995TIP3    H133400   3.998   0.479   2.998  1.1722  1.2324  0.5607
 3995TIP3    H233401   3.910   0.601   3.016  1.6474  1.6241  0.2667
 3996TIP3   OH233402   0.726   3.101   4.309 -0.0503  0.2181  0.6260
 3996TIP3    H133403   0.767   3.073   4.227 -0.7091 -0.5520  0.5354
 3996TIP3    H233404   0.744   3.194   4.315  0.5254  0.1611 -0.0927
 3997TIP3   OH233405   4.504   3.538  11.094 -0.3291 -0.1249  0.2231
 3997TIP3    H133406   4.573   3.539  11.028  0.9181  0.5440  1.4539
 3997TIP3    H233407   4.531   3.470  11.156  0.2217  1.3048  1.6455
 3998TIP3   OH233408   4.991   4.816   1.024 -0.5665  0.2480  0.3675
 3998TIP3    H133409   5.064   4.775   0.976 -1.0916  1.5572 -1.6392
 3998TIP3    H233410   4.919   4.817   0.962 -1.5284  1.3417  1.4599
 3999TIP3   OH233411   4.506   6.126   6.667  0.5041 -0.0784  0.7344
 3999TIP3    H133412   4.500   6.180   6.746  1.1513 -0.6165  1.1695
 3999TIP3    H233413   4.600   6.109   6.657  0.3469 -0.8188  0.4113
 4000TIP3   OH233414   3.166   2.741  13.535 -0.2148 -0.0955 -0.2892
 4000TIP3    H133415   3.230   2.686  13.489 -1.1340 -1.1707 -0.3407
 4000TIP3    H233416   3.199   2.830  13.526  1.6338 -0.6722  0.2596
 4001TIP3   OH233417   1.047   5.835   4.903 -0.5801  0.4276  0.2039
 4001TIP3    H133418   1.068   5.745   4.929  0.8582  0.8706  0.6852
 4001TIP3    H233419   1.050   5.833   4.807  1.7350  0.4044  0.2089
 4002TIP3   OH233420   2.257   6.748   3.428  0.2238  0.1983  0.3707
 4002TIP3    H133421   2.251   6.719   3.519  1.7520  0.8079  0.6956
 4002TIP3    H233422   2.351   6.753   3.410  0.2506 -4.9647 -2.9517
 4003TIP3   OH233423   6.538   2.776   3.909  0.7159 -0.1695  1.2699
 4003TIP3    H133424   6.591   2.850   3.881  1.9413 -0.7841  1.8727
 4003TIP3    H233425   6.568   2.703   3.855 -2.0182  0.1454 -0.9261
 4004TIP3   OH233426   5.229   0.133   0.096 -0.2338 -0.3799 -0.3344
 4004TIP3    H133427   5.154   0.141   0.155  0.8324  0.1481  0.9958
 4004TIP3    H233428   5.232   0.040   0.074 -1.5328 -0.3314 -0.7600
 4005TIP3   OH233429   6.516   2.367   6.680  0.0777 -0.0755 -0.1692
 4005TIP3    H133430   6.570   2.407   6.748 -2.2235  1.2041  1.0201
 4005TIP3    H233431   6.561   2.285   6.660  1.6228  0.1881  1.8343
 4006TIP3   OH233432   1.489   1.269  15.650 -0.7043 -0.0383 -0.2628
 4006TIP3    H133433   1.420   1.204  15.633 -0.9405  0.3117 -0.6732
 4006TIP3    H233434   1.445   1.338  15.700 -1.1201  1.0181 -1.9795
 4007TIP3   OH233435   0.807   6.618  11.427  0.1393 -0.0027  0.1995
 4007TIP3    H133436   0.803   6.560  11.351  0.3781  1.8602 -1.2896
 4007TIP3    H233437   0.715   6.634  11.450 -0.0175  1.2713 -1.1968
 4008TIP3   OH233438   3.251   1.286   0.817  0.4831 -0.2046  0.2205
 4008TIP3    H133439   3.173   1.237   0.792  1.3282 -1.3867 -0.1652
 4008TIP3    H233440   3.266   1.346   0.744  0.3468 -0.4870 -0.0446
 4009TIP3   OH233441   1.360   2.944  17.309 -0.5754  0.3443 -0.7469
 4009TIP3    H133442   1.385   2.927  17.219  0.3487  2.2864 -0.9220
 4009TIP3    H233443   1.283   3.000  17.303 -1.3986 -0.7187 -0.2899
 4010TIP3   OH233444   3.783   3.906  14.418 -0.7289 -0.3564 -0.3555
 4010TIP3    H133445   3.718   3.844  14.385  1.2470 -2.3193 -0.8431
 4010TIP3    H233446   3.863   3.886  14.369  1.4781 -1.1352  3.1351
 4011TIP3   OH233447   1.149   1.535   2.453 -0.5360  0.7002  0.9897
 4011TIP3    H133448   1.182   1.456   2.410 -2.8922 -0.3426  0.8983
 4011TIP3    H233449   1.126   1.506   2.542  1.5053  2.1180  2.0715
 4012TIP3   OH233450   3.177   4.098  12.107 -0.2370  0.3770  0.2512
 4012TIP3    H133451   3.125   4.136  12.178  0.4018 -0.4526  1.1949
 4012TIP3    H233452   3.268   4.119  12.129 -0.1105  1.5326 -1.2147
 4013TIP3   OH233453   2.265   5.991  17.351 -0.3564 -0.9687 -0.0462
 4013TIP3    H133454   2.260   6.070  17.405  1.6682  0.1315 -1.3403
 4013TIP3    H233455   2.181   5.988  17.305 -1.5431 -1.1433  2.0111
 4014TIP3   OH233456   4.136   2.590   6.863 -0.2040 -0.0052  0.2908
 4014TIP3    H133457   4.196   2.623   6.796 -1.1381  0.0254 -0.5444
 4014TIP3    H233458   4.085   2.667   6.889 -1.3418 -0.4449 -0.5584
 4015TIP3   OH233459   3.811   1.059   5.966 -0.2763 -0.3782  0.8250
 4015TIP3    H133460   3.735   1.058   5.907  0.6434  0.6133 -0.4044
 4015TIP3    H233461   3.772   1.063   6.054 -1.7065  2.7552  0.1910
 4016TIP3   OH233462   3.924   6.766  13.703  0.0687 -0.9844  0.2360
 4016TIP3    H133463   3.893   6.675  13.705 -3.2589  0.0691  1.2544
 4016TIP3    H233464   3.899   6.802  13.788  0.0111  1.2919 -0.6841
 4017TIP3   OH233465   5.787   5.777  12.731 -0.2618  0.0389  0.5197
 4017TIP3    H133466   5.712   5.777  12.791 -0.1537  0.3197  0.6589
 4017TIP3    H233467   5.748   5.775  12.644 -0.4224 -0.3911  0.5952
 4018TIP3   OH233468   5.400   4.838  14.424 -0.1097 -0.2813  0.6913
 4018TIP3    H133469   5.358   4.904  14.368  1.0864 -1.1225 -1.3034
 4018TIP3    H233470   5.493   4.847  14.406  0.0793 -2.5402  0.3010
 4019TIP3   OH233471   4.756   3.150  11.193  0.5565  0.2544  0.7235
 4019TIP3    H133472   4.783   3.077  11.137  0.5574  0.7309  0.1051
 4019TIP3    H233473   4.831   3.164  11.251  0.9759  0.4617  0.1336
 4020TIP3   OH233474   3.964   3.236   5.397  0.4524 -0.1307 -0.3583
 4020TIP3    H133475   4.031   3.168   5.412  0.3159 -0.5520 -1.5596
 4020TIP3    H233476   4.003   3.293   5.330 -0.4189 -0.4452 -1.1534
 4021TIP3   OH233477   3.151   4.952   5.961  0.0913  0.3904  0.0259
 4021TIP3    H133478   3.090   5.018   5.995 -2.8184 -0.1429 -3.5395
 4021TIP3    H233479   3.139   4.876   6.018 -2.1831  0.5341 -0.1949
 4022TIP3   OH233480   4.018   1.245   1.087 -0.9063 -0.5039  0.5302
 4022TIP3    H133481   3.970   1.166   1.064  1.9959 -2.7615  1.6748
 4022TIP3    H233482   4.039   1.286   1.002 -0.6565 -2.1300 -0.2260
 4023TIP3   OH233483   6.492   1.165   1.268 -0.2257  0.6872 -0.4495
 4023TIP3    H133484   6.425   1.204   1.213  1.5344 -2.8250 -6.0043
 4023TIP3    H233485   6.560   1.232   1.276 -1.2430  1.8516 -1.3118
 4024TIP3   OH233486   1.771   1.815   1.265  0.2937  0.3700  0.4573
 4024TIP3    H133487   1.795   1.788   1.176  1.0006 -0.8062  0.9800
 4024TIP3    H233488   1.769   1.733   1.315  0.9958  1.1176  1.7744
 4025TIP3   OH233489   4.514   1.835   4.614  0.0692 -0.4020 -0.2350
 4025TIP3    H133490   4.603   1.861   4.590  0.1098 -1.3366 -1.1504
 4025TIP3    H233491   4.525   1.788   4.697  0.5525 -1.1951 -0.7316
 4026TIP3   OH233492   2.686   1.301   4.590 -0.2584  0.0818 -0.2373
 4026TIP3    H133493   2.682   1.386   4.545  0.1172 -0.1076 -0.6350
 4026TIP3    H233494   2.695   1.323   4.682  1.6920  0.4928 -0.4893
 4027TIP3   OH233495   0.989   4.149   4.322 -0.0885  0.5688 -0.7116
 4027TIP3    H133496   1.052   4.087   4.285  2.4430  2.8849 -0.6700
 4027TIP3    H233497   0.958   4.199   4.246 -0.7722  0.3741 -0.5615
 4028TIP3   OH233498   5.418   4.095  14.419 -0.6926 -0.0979 -0.1152
 4028TIP3    H133499   5.337   4.045  14.420 -1.4970  1.1342  2.0843
 4028TIP3    H233500   5.394   4.182  14.449  1.2301  0.6837 -0.6777
 4029TIP3   OH233501   4.625   5.702   3.936  0.0195  0.0631 -0.1408
 4029TIP3    H133502   4.531   5.721   3.936  0.0756  0.4080 -1.2718
 4029TIP3    H233503   4.666   5.787   3.923  0.4395 -0.2489 -0.8830
 4030TIP3   OH233504   6.236   1.676   4.364  0.4646 -0.1840  0.4454
 4030TIP3    H133505   6.176   1.667   4.438 -0.3696  1.3327 -0.0102
 4030TIP3    H233506   6.305   1.735   4.397 -0.3342  1.1548 -0.1915
 4031TIP3   OH233507   5.664   0.778   4.253 -0.6963 -0.1785  0.2490
 4031TIP3    H133508   5.683   0.688   4.278  0.5747  0.1565  0.5352
 4031TIP3    H233509   5.718   0.832   4.311 -0.5250  0.7245 -0.7113
 4032TIP3   OH233510   5.134   2.214   3.593  0.8277 -0.6615  0.5403
 4032TIP3    H133511   5.093   2.213   3.680  0.2650 -0.0429  0.2825
 4032TIP3    H233512   5.155   2.122   3.576 -2.3199 -1.3455 -0.2099
 4033TIP3   OH233513   4.235   4.763   5.700 -0.3145 -0.5715  0.4325
 4033TIP3    H133514   4.220   4.810   5.618 -1.4676  0.2694  1.1006
 4033TIP3    H233515   4.291   4.689   5.675 -0.0670  0.0607 -0.9783
 4034TIP3   OH233516   2.795   3.404  14.530 -0.5939  0.0818  0.3743
 4034TIP3    H133517   2.783   3.481  14.475 -2.2614 -0.2862  0.1725
 4034TIP3    H233518   2.860   3.351  14.484  0.7276  1.4397  0.6249
 4035TIP3   OH233519   2.977   3.689  11.148 -0.0798 -0.2540  0.3458
 4035TIP3    H133520   2.967   3.605  11.103 -1.1716  0.0071  0.0664
 4035TIP3    H233521   2.934   3.676  11.233  0.1596 -0.1092  0.4915
 4036TIP3   OH233522   3.820   4.589   1.806  0.2996  0.4208  0.4659
 4036TIP3    H133523   3.860   4.504   1.820  0.3361  0.0426 -1.6377
 4036TIP3    H233524   3.732   4.570   1.774  0.0601  1.1914  0.6320
 4037TIP3   OH233525   4.060   3.644  13.148  0.5088  0.0466  0.6386
 4037TIP3    H133526   4.045   3.550  13.158  1.4891 -0.2059 -0.1261
 4037TIP3    H233527   4.062   3.678  13.238 -1.9926 -0.2815  0.8697
 4038TIP3   OH233528   3.759   5.675  13.827 -0.6516 -0.1634 -0.2624
 4038TIP3    H133529   3.733   5.621  13.901  0.6281 -0.2371  0.1525
 4038TIP3    H233530   3.828   5.732  13.861  0.5660 -0.7762 -1.5641
 4039TIP3   OH233531   5.823   2.543  14.843 -0.1632 -0.0238  0.0910
 4039TIP3    H133532   5.918   2.559  14.841 -0.1695  0.0100  0.0677
 4039TIP3    H233533   5.807   2.505  14.930 -0.3234  1.1289  0.5750
 4040TIP3   OH233534   2.547   2.251  14.472 -0.2486 -0.6287 -0.3706
 4040TIP3    H133535   2.534   2.316  14.403  0.8345  2.1643  1.8928
 4040TIP3    H233536   2.626   2.204  14.445  1.1581  1.5557 -0.3250
 4041TIP3   OH233537   5.151   4.990   4.943 -0.1463 -0.0069 -0.4695
 4041TIP3    H133538   5.119   5.008   4.854 -3.1333  0.2841  0.5390
 4041TIP3    H233539   5.198   4.906   4.935 -2.9092 -1.5746 -1.8843
 4042TIP3   OH233540   6.278   1.849   5.306 -0.1935 -0.4190 -0.1620
 4042TIP3    H133541   6.317   1.912   5.245 -0.7848 -0.3654 -0.4948
 4042TIP3    H233542   6.211   1.804   5.255 -0.8333 -0.2352  0.4971
 4043TIP3   OH233543   4.754   0.096   1.379 -0.3431 -0.4848  0.3771
 4043TIP3    H133544   4.679   0.124   1.326 -0.3733  0.6079  0.9639
 4043TIP3    H233545   4.810   0.173   1.384  1.2877 -1.5185 -0.7814
 4044TIP3   OH233546   4.928   3.841   2.392  0.1451 -0.0799 -0.0550
 4044TIP3    H133547   5.017   3.814   2.374  0.4341  0.8596 -0.0667
 4044TIP3    H233548   4.933   3.885   2.477 -0.3956 -0.4485  0.1776
 4045TIP3   OH233549   2.223   5.597   4.728  0.0254  0.2297  0.0452
 4045TIP3    H133550   2.233   5.565   4.817 -0.2994  1.3597  0.4978
 4045TIP3    H233551   2.192   5.521   4.679  0.1612 -0.3900  0.9014
 4046TIP3   OH233552   5.406   4.613  15.753  0.0063  0.1887 -0.0708
 4046TIP3    H133553   5.370   4.562  15.681  3.4529  0.1783 -2.0007
 4046TIP3    H233554   5.448   4.548  15.810 -1.0289  0.3767  0.9340
 4047TIP3   OH233555   0.292   0.304   6.595  0.0269 -0.2090 -0.5888
 4047TIP3    H133556   0.293   0.391   6.555  0.0322  1.1224  2.0825
 4047TIP3    H233557   0.200   0.279   6.596  0.1568 -0.9421 -2.6532
 4048TIP3   OH233558   2.438   1.454  15.505  0.4070  0.2333  0.2238
 4048TIP3    H133559   2.405   1.535  15.466  0.2305 -0.1276 -0.3877
 4048TIP3    H233560   2.487   1.483  15.582  0.4540  0.9278 -0.0599
 4049TIP3   OH233561   0.645   3.783  16.491 -0.3291  0.2116 -0.3099
 4049TIP3    H133562   0.706   3.725  16.445  1.1748  0.3260  1.4026
 4049TIP3    H233563   0.680   3.871  16.478 -2.0116  0.7007 -2.0136
 4050TIP3   OH233564   1.729   4.415  16.331 -0.6058 -0.2709 -0.0807
 4050TIP3    H133565   1.706   4.358  16.258 -0.5409  0.0420 -0.3502
 4050TIP3    H233566   1.797   4.472  16.296  1.1518 -1.6539  0.8959
 4051TIP3   OH233567   2.552   6.139   5.757  0.0096 -0.2312  0.0217
 4051TIP3    H133568   2.565   6.046   5.739 -1.5050 -0.5227  0.2935
 4051TIP3    H233569   2.578   6.150   5.848 -1.4433 -0.7817  0.5370
 4052TIP3   OH233570   1.469   4.476   5.228  0.6168 -0.0156  0.4181
 4052TIP3    H133571   1.475   4.452   5.320  0.3189  0.7746  0.6548
 4052TIP3    H233572   1.452   4.571   5.229  0.3585 -0.0420 -0.4364
 4053TIP3   OH233573   1.125   2.771   5.572 -0.1745  0.7395 -0.0384
 4053TIP3    H133574   1.079   2.688   5.586 -0.6166  1.2259  1.7073
 4053TIP3    H233575   1.211   2.758   5.613  0.1821  0.7825 -0.7604
 4054TIP3   OH233576   1.308   4.529  10.565  0.1007 -0.2891  0.3802
 4054TIP3    H133577   1.301   4.624  10.575 -0.9293 -0.3471  0.3085
 4054TIP3    H233578   1.232   4.495  10.612  1.2489 -1.1663  1.6790
 4055TIP3   OH233579   5.722   4.622   0.279 -0.0123 -0.1653 -0.5602
 4055TIP3    H133580   5.635   4.661   0.290 -0.3668 -1.2576  1.0254
 4055TIP3    H233581   5.770   4.650   0.358  0.4461 -1.0693 -0.5108
 4056TIP3   OH233582   1.762   3.884   3.239 -0.4062 -0.3145  0.6804
 4056TIP3    H133583   1.710   3.895   3.160 -0.1880  1.6710  0.7568
 4056TIP3    H233584   1.702   3.845   3.303 -0.3391 -2.7846 -0.6623
 4057TIP3   OH233585   3.758   3.800  11.400  0.4238 -0.6351  0.1577
 4057TIP3    H133586   3.721   3.879  11.440  2.3403  0.7071 -0.5883
 4057TIP3    H233587   3.691   3.770  11.339 -0.4322  0.2678  0.6222
 4058TIP3   OH233588   3.373   4.163   2.218 -0.5779  0.6586 -0.3382
 4058TIP3    H133589   3.442   4.199   2.161  0.2636 -0.7914 -0.2748
 4058TIP3    H233590   3.376   4.218   2.296  1.7022 -0.3778  0.3902
 4059TIP3   OH233591   5.087   5.676  13.105  0.0167  0.5836  0.0030
 4059TIP3    H133592   5.111   5.742  13.169  0.2307 -0.2473  0.8035
 4059TIP3    H233593   5.161   5.616  13.103 -0.3000  0.1939 -0.4825
 4060TIP3   OH233594   5.626   5.978   3.958 -0.1902  0.4831  0.1773
 4060TIP3    H133595   5.552   5.997   4.014  0.9284  0.7490  1.6137
 4060TIP3    H233596   5.630   6.052   3.897 -2.1252 -0.3897 -1.0877
 4061TIP3   OH233597   6.044   2.224   5.223  0.0903 -0.1598 -0.1092
 4061TIP3    H133598   6.136   2.209   5.244  0.5406 -0.0078 -1.7707
 4061TIP3    H233599   6.020   2.150   5.166 -0.0496  1.0588 -1.7205
 4062TIP3   OH233600   5.327   3.844  11.849 -0.4160 -0.0444  0.0234
 4062TIP3    H133601   5.271   3.767  11.846 -0.5508  0.0358  0.5384
 4062TIP3    H233602   5.364   3.849  11.761 -0.8340 -0.3789 -0.1760
 4063TIP3   OH233603   1.986   5.667  16.654 -0.0284  0.1078  0.0703
 4063TIP3    H133604   2.055   5.676  16.588 -1.3344  1.1343 -1.2103
 4063TIP3    H233605   1.970   5.573  16.659 -0.7404  0.0720 -2.0188
 4064TIP3   OH233606   3.400   1.262   4.755  0.4142 -0.4058 -0.3242
 4064TIP3    H133607   3.368   1.172   4.755  0.2540 -0.3492 -0.4239
 4064TIP3    H233608   3.465   1.265   4.685  1.0331 -0.6583  0.2237
 4065TIP3   OH233609   5.895   2.765  16.896  0.3792  0.1643 -0.2169
 4065TIP3    H133610   5.824   2.704  16.916 -3.0270  2.7222 -3.1663
 4065TIP3    H233611   5.947   2.721  16.829 -0.6461 -0.4021 -0.6502
 4066TIP3   OH233612   6.642   5.685   5.304  0.8851 -0.0008 -0.1862
 4066TIP3    H133613   6.650   5.630   5.226  2.6084  0.4672 -0.3765
 4066TIP3    H233614   6.669   5.629   5.377  1.5009  0.2349 -0.2289
 4067TIP3   OH233615   3.183   0.742  12.990  0.4474 -0.0075 -0.0742
 4067TIP3    H133616   3.161   0.829  13.022 -1.0625 -0.0692 -0.8804
 4067TIP3    H233617   3.136   0.682  13.048 -0.0107 -0.2130 -0.6480
 4068TIP3   OH233618   0.030   3.861  11.370 -0.1894  0.5018 -0.1351
 4068TIP3    H133619   0.088   3.900  11.305  1.0074 -2.5261 -1.0661
 4068TIP3    H233620  -0.046   3.832  11.320 -0.4530  0.4731  0.2793
 4069TIP3   OH233621   4.008   6.642   4.989 -0.4263  0.3256  0.8288
 4069TIP3    H133622   4.087   6.661   4.938  0.3170  0.2056  1.8929
 4069TIP3    H233623   3.941   6.699   4.953 -0.4553 -1.0756 -1.5166
 4070TIP3   OH233624   6.496   2.063   6.051 -0.3449  0.2805  0.2031
 4070TIP3    H133625   6.563   1.998   6.028 -1.3932 -0.3368 -1.3004
 4070TIP3    H233626   6.426   2.011   6.091 -1.7374  0.2091 -2.1478
 4071TIP3   OH233627   0.144   3.747   0.289  0.2546 -0.5939  0.7342
 4071TIP3    H133628   0.157   3.661   0.248 -0.7377 -0.5384  0.2706
 4071TIP3    H233629   0.163   3.810   0.219 -2.0660 -0.5076  0.1130
 4072TIP3   OH233630   4.413   6.042   5.361 -0.2011  0.0598  0.3625
 4072TIP3    H133631   4.450   6.075   5.278 -0.4215  1.2093  0.7002
 4072TIP3    H233632   4.456   5.958   5.374  1.3216  0.7514  0.0694
 4073TIP3   OH233633   2.150   2.987  14.383 -0.1065  0.0358 -0.2471
 4073TIP3    H133634   2.169   2.935  14.304 -1.2177 -0.6881 -0.0689
 4073TIP3    H233635   2.087   2.934  14.431 -0.1029  0.8773  0.7079
 4074TIP3   OH233636   4.411   4.657   4.039 -0.3803  0.2833  0.4773
 4074TIP3    H133637   4.353   4.705   3.981 -1.8121  0.2308  1.8045
 4074TIP3    H233638   4.367   4.574   4.054  0.2019  0.1015  1.2454
 4075TIP3   OH233639   5.185   4.487  17.053 -0.4437 -0.0131  0.5761
 4075TIP3    H133640   5.278   4.464  17.045 -0.5684 -0.2013 -0.4429
 4075TIP3    H233641   5.163   4.463  17.143  1.3400  3.2109  2.0407
 4076TIP3   OH233642   5.359   6.600   5.390  0.3797  0.3488  0.2416
 4076TIP3    H133643   5.381   6.508   5.396 -1.1264 -0.1379 -1.0225
 4076TIP3    H233644   5.443   6.646   5.392  1.2198 -1.1213 -0.3764
 4077TIP3   OH233645   3.115   5.343   0.147  0.5316  0.5763  0.4366
 4077TIP3    H133646   3.090   5.435   0.153  1.1872  0.6968  1.9469
 4077TIP3    H233647   3.210   5.344   0.155  0.6171 -0.1918 -0.3482
 4078TIP3   OH233648   2.385   5.380  14.971  0.0896  0.1180  0.1038
 4078TIP3    H133649   2.445   5.367  14.897 -2.6619 -1.8022 -1.9925
 4078TIP3    H233650   2.362   5.292  14.999  1.0204  0.7912  3.4031
 4079TIP3   OH233651   3.563   2.117   4.415  0.4112 -0.9153 -0.1060
 4079TIP3    H133652   3.594   2.139   4.327  0.7334  0.5188  0.3520
 4079TIP3    H233653   3.468   2.116   4.408  0.4457 -1.7400 -0.6690
 4080TIP3   OH233654   2.185   2.289   2.506 -0.1349 -0.0226 -0.5015
 4080TIP3    H133655   2.112   2.291   2.443 -0.6507  0.9581  0.1146
 4080TIP3    H233656   2.255   2.338   2.464 -0.5337  0.7672 -0.2639
 4081TIP3   OH233657   5.319   1.829   0.542  0.2830 -0.5879  1.0750
 4081TIP3    H133658   5.350   1.908   0.497 -1.1190 -0.4249  0.3445
 4081TIP3    H233659   5.368   1.758   0.501  0.8149 -0.1984  1.0197
 4082TIP3   OH233660   4.390   1.640  16.908  0.5889 -0.8147  0.4605
 4082TIP3    H133661   4.373   1.561  16.857  3.2661 -0.9774 -0.3020
 4082TIP3    H233662   4.457   1.615  16.971 -0.0052  0.3510  1.5983
 4083TIP3   OH233663   1.582   0.216  14.178 -0.4045 -0.1205 -0.3299
 4083TIP3    H133664   1.496   0.198  14.140 -0.6067 -3.0367  1.2119
 4083TIP3    H233665   1.564   0.231  14.271  0.7690 -2.2682  0.3229
 4084TIP3   OH233666   5.340   1.541   1.459 -0.6427 -0.6213  0.0656
 4084TIP3    H133667   5.314   1.599   1.387  0.1562 -1.0552 -0.5829
 4084TIP3    H233668   5.417   1.495   1.426  0.4721  0.0287  1.6151
 4085TIP3   OH233669   0.577   5.923  15.216 -0.1376 -0.8943 -0.2092
 4085TIP3    H133670   0.580   5.912  15.121 -0.6936 -0.7131 -0.2530
 4085TIP3    H233671   0.623   6.005  15.232  1.3659 -1.7068 -0.1604
 4086TIP3   OH233672   1.326   6.059   4.504  0.0680 -0.5759 -0.4027
 4086TIP3    H133673   1.272   6.037   4.580  2.9528  0.0912  2.0210
 4086TIP3    H233674   1.331   6.155   4.504  1.3572 -0.6268 -0.4620
 4087TIP3   OH233675   5.343   3.008  14.457  0.1102  0.0744  0.1793
 4087TIP3    H133676   5.422   2.954  14.468  0.4547  0.6188  0.4003
 4087TIP3    H233677   5.315   2.990  14.367  1.2245  0.8465 -0.3440
 4088TIP3   OH233678   1.881   0.971   5.847 -0.1198  0.5770 -0.4120
 4088TIP3    H133679   1.902   0.877   5.845  2.7678  1.1594 -0.2239
 4088TIP3    H233680   1.938   1.010   5.781 -2.6565  2.0411 -1.8971
 4089TIP3   OH233681   1.592   4.081   2.181  0.0184 -0.1510  0.2643
 4089TIP3    H133682   1.597   4.020   2.107  1.1564  0.1123  0.1038
 4089TIP3    H233683   1.570   4.165   2.142  1.1326  0.0979  0.1453
 4090TIP3   OH233684   5.157   5.579  12.060  0.3299 -0.2900  0.0066
 4090TIP3    H133685   5.136   5.654  12.005  0.1393 -0.5789 -0.3136
 4090TIP3    H233686   5.148   5.503  12.002  0.7250 -0.5450  0.2705
 4091TIP3   OH233687   6.438   5.742  13.931  0.7194 -0.2905  0.2134
 4091TIP3    H133688   6.519   5.749  13.982 -0.2318  0.4059  1.7061
 4091TIP3    H233689   6.379   5.806  13.971 -0.4570 -0.5148 -1.0781
 4092TIP3   OH233690   0.886   1.545  17.003  0.5144 -0.2631 -0.1874
 4092TIP3    H133691   0.801   1.515  17.036  1.1923 -1.0776  0.9217
 4092TIP3    H233692   0.906   1.622  17.056 -0.4419  1.2179 -1.8699
 4093TIP3   OH233693   5.814   3.670   4.815  0.3395 -0.1965 -0.6391
 4093TIP3    H133694   5.823   3.742   4.878 -0.9590  2.0748 -2.8425
 4093TIP3    H233695   5.895   3.673   4.764  0.6023 -0.8270 -0.2736
 4094TIP3   OH233696   5.862   4.222   1.123 -0.4919 -0.2022  0.2024
 4094TIP3    H133697   5.845   4.247   1.033 -1.0619 -1.0077  0.0809
 4094TIP3    H233698   5.844   4.301   1.174 -1.7908 -0.2056 -0.2182
 4095TIP3   OH233699   1.384   5.018  14.303 -0.3938 -0.0176  0.3638
 4095TIP3    H133700   1.393   5.025  14.398  0.5013  0.4841  0.2490
 4095TIP3    H233701   1.468   4.983  14.273 -0.6493 -0.1117 -0.2520
 4096TIP3   OH233702   2.241   1.473   5.774 -0.4512  0.4909 -0.4981
 4096TIP3    H133703   2.189   1.437   5.702  0.7786 -1.1206 -0.6436
 4096TIP3    H233704   2.324   1.497   5.734  0.8567 -1.8843  0.5354
 4097TIP3   OH233705   5.153   3.063  11.518 -0.2139  0.6094 -0.6407
 4097TIP3    H133706   5.110   3.067  11.432  1.0458 -2.4234 -1.5853
 4097TIP3    H233707   5.083   3.079  11.581 -2.1030 -1.0225 -2.1754
 4098TIP3   OH233708   2.400   6.104  16.437  0.2327  0.3531 -0.3914
 4098TIP3    H133709   2.452   6.044  16.491  0.4856  0.5304 -0.4374
 4098TIP3    H233710   2.332   6.137  16.496  1.2630  1.5251  0.1802
 4099TIP3   OH233711   6.427   5.509  15.489 -0.2405 -0.4505  0.1360
 4099TIP3    H133712   6.402   5.515  15.581  1.3593  1.2187  0.5330
 4099TIP3    H233713   6.520   5.531  15.489 -0.1013 -0.8920 -1.8418
 4100TIP3   OH233714   5.254   5.951   4.980  0.2268  0.2009  0.1302
 4100TIP3    H133715   5.234   5.866   4.940 -1.5146 -0.1220  1.5590
 4100TIP3    H233716   5.331   5.982   4.933 -0.4281 -1.1307 -1.9548
 4101TIP3   OH233717   0.404   5.434   4.682 -0.3643  0.1700  0.2849
 4101TIP3    H133718   0.331   5.430   4.744  0.9983  2.0289  2.1958
 4101TIP3    H233719   0.481   5.409   4.734  0.6671  0.5201 -1.0049
 4102TIP3   OH233720   4.917   0.644   2.116 -0.6112  0.0906  0.1994
 4102TIP3    H133721   4.960   0.715   2.165  0.7179 -0.3506 -0.2724
 4102TIP3    H233722   4.825   0.648   2.143 -0.3243  1.2148  1.0950
 4103TIP3   OH233723   1.928   2.163  12.091 -0.2628 -0.3175  0.3683
 4103TIP3    H133724   1.886   2.174  12.005 -0.7677 -0.3737  0.6019
 4103TIP3    H233725   2.012   2.122  12.072 -0.3106 -0.1994 -0.1133
 4104TIP3   OH233726   1.745   1.568  11.853  0.6578  0.2114 -0.4303
 4104TIP3    H133727   1.840   1.564  11.860  0.7406  2.1917  0.0355
 4104TIP3    H233728   1.727   1.656  11.820 -0.9984 -0.3510 -1.1468
 4105TIP3   OH233729   5.031   3.028   2.031  0.0665 -0.0271 -0.2324
 4105TIP3    H133730   5.034   2.965   2.104 -0.0514 -0.8871 -0.9545
 4105TIP3    H233731   5.097   3.093   2.053 -0.7104  0.3320  1.1792
 4106TIP3   OH233732   5.376   1.656  14.003 -0.0108 -0.6773  0.5131
 4106TIP3    H133733   5.315   1.600  13.955  0.6363 -1.6487  0.7948
 4106TIP3    H233734   5.321   1.722  14.044 -0.7697 -0.9757 -0.0101
 4107TIP3   OH233735   5.288   2.298  13.957  0.3687  0.1576  0.4313
 4107TIP3    H133736   5.299   2.331  14.047  1.0746  0.7402  0.1455
 4107TIP3    H233737   5.334   2.362  13.903  1.4108 -1.0738 -0.1986
 4108TIP3   OH233738   1.713   3.844   0.257 -0.4347 -0.3176 -0.0085
 4108TIP3    H133739   1.783   3.797   0.302 -1.1437 -1.6384 -0.2400
 4108TIP3    H233740   1.662   3.776   0.213 -0.8997  0.7585 -1.2208
 4109TIP3   OH233741   2.308   4.388   5.928  0.5529  0.1815 -0.0991
 4109TIP3    H133742   2.248   4.459   5.952 -1.3157 -0.9640 -1.1552
 4109TIP3    H233743   2.292   4.320   5.993  1.4348  0.2043  0.1613
 4110TIP3   OH233744   1.036   3.203   6.187  0.5965  0.1464  0.1701
 4110TIP3    H133745   0.989   3.146   6.126  0.2778  0.9247 -0.3311
 4110TIP3    H233746   0.967   3.251   6.233  0.8662  0.3085  0.4078
 4111TIP3   OH233747   3.209   6.540   5.342 -0.7394 -0.8021  0.0652
 4111TIP3    H133748   3.266   6.465   5.357  0.6924 -0.4581 -2.8021
 4111TIP3    H233749   3.123   6.503   5.323  0.1537 -1.9062 -2.2243
 4112TIP3   OH233750   6.087   2.594   2.183 -0.2569  0.3501 -0.0948
 4112TIP3    H133751   6.106   2.534   2.255 -1.3853 -0.1433 -0.1970
 4112TIP3    H233752   6.077   2.680   2.226  4.0597  1.1461 -0.2055
 4113TIP3   OH233753   0.022   1.361   5.824 -0.2567  0.8058  0.7761
 4113TIP3    H133754  -0.060   1.362   5.775  0.0822  0.9850  0.1956
 4113TIP3    H233755   0.025   1.447   5.866 -0.0076  1.1035  0.1689
 4114TIP3   OH233756   6.292   5.980   3.029  0.1083 -0.3489 -0.3278
 4114TIP3    H133757   6.353   5.921   3.074 -0.8850  0.3137  2.0087
 4114TIP3    H233758   6.206   5.939   3.039 -0.0683 -0.6045 -2.4355
 4115TIP3   OH233759   5.687   6.360  16.842  0.1925  0.3011 -0.4330
 4115TIP3    H133760   5.634   6.430  16.803  0.4995  0.6584 -0.2241
 4115TIP3    H233761   5.766   6.405  16.873  0.0015  0.0159  0.5057
 4116TIP3   OH233762   1.716   1.058   2.962  0.4145 -0.4576  0.9728
 4116TIP3    H133763   1.684   0.980   2.917 -1.0769  0.5030  0.2676
 4116TIP3    H233764   1.789   1.089   2.909  1.2248 -1.5156  1.4323
 4117TIP3   OH233765   1.708   6.174  10.284  0.2956 -0.0110 -0.0081
 4117TIP3    H133766   1.632   6.134  10.242 -0.6877 -0.8972  2.4222
 4117TIP3    H233767   1.782   6.119  10.258 -0.1976 -0.2820 -0.8669
 4118TIP3   OH233768   3.426   5.275  15.288 -1.0415 -0.2540 -0.4015
 4118TIP3    H133769   3.479   5.230  15.354 -0.7657  0.9062  0.2028
 4118TIP3    H233770   3.383   5.345  15.336 -1.7228 -0.0812 -1.2502
 4119TIP3   OH233771   2.624   0.652  15.015 -0.8108  0.1563  0.0140
 4119TIP3    H133772   2.713   0.620  15.002 -0.6146  0.8920 -0.5376
 4119TIP3    H233773   2.623   0.738  14.972 -0.9790  1.4384  2.3946
 4120TIP3   OH233774   0.314   3.608  16.926  0.0773 -0.1608  0.0462
 4120TIP3    H133775   0.370   3.656  16.865 -0.6533 -0.3238 -0.7716
 4120TIP3    H233776   0.375   3.560  16.982  0.7612 -0.0730 -0.6032
 4121TIP3   OH233777   6.338   2.956   3.520  0.5871 -0.4481 -0.2776
 4121TIP3    H133778   6.309   3.040   3.484  1.7368 -0.6251 -1.7499
 4121TIP3    H233779   6.295   2.950   3.605 -0.1831  1.2416 -0.4981
 4122TIP3   OH233780   3.564   3.166  13.858 -0.0547  0.0091 -0.2746
 4122TIP3    H133781   3.576   3.073  13.836 -2.0481 -0.2141 -0.6317
 4122TIP3    H233782   3.527   3.165  13.946 -0.8975  0.3922 -0.6090
 4123TIP3   OH233783   1.577   4.195   1.368 -0.4484  0.0787  0.4091
 4123TIP3    H133784   1.486   4.194   1.338 -0.7045  0.0122  1.1468
 4123TIP3    H233785   1.627   4.161   1.295 -1.0551 -0.1655  0.0960
 4124TIP3   OH233786   4.443   5.025  12.798 -0.7211 -0.0204  0.4958
 4124TIP3    H133787   4.386   5.091  12.757 -0.1878 -1.3362 -2.6063
 4124TIP3    H233788   4.518   5.017  12.738  2.0766  0.5069  3.6160
 4125TIP3   OH233789   3.833   2.946   1.656 -0.2658  0.5806 -0.2561
 4125TIP3    H133790   3.861   2.870   1.605  0.4277 -0.3885  1.4956
 4125TIP3    H233791   3.740   2.955   1.636  0.1010  0.6559 -2.1667
 4126TIP3   OH233792   1.816   6.362   3.108 -0.0046 -0.1298  0.2646
 4126TIP3    H133793   1.873   6.378   3.184  0.5510  1.9142 -0.5250
 4126TIP3    H233794   1.856   6.411   3.037 -1.7553 -0.1515 -0.7946
 4127TIP3   OH233795   2.929   6.737  14.709 -0.0594 -0.3712  0.0766
 4127TIP3    H133796   3.015   6.775  14.693 -0.1876 -0.0778  0.0726
 4127TIP3    H233797   2.899   6.779  14.790 -0.2323 -0.4065  0.0312
 4128TIP3   OH233798   1.376   3.852  12.691  0.0178  0.2188 -0.7671
 4128TIP3    H133799   1.399   3.820  12.778  0.0605  1.9950 -0.0868
 4128TIP3    H233800   1.293   3.809  12.670  0.8150 -1.4936 -0.5923
 4129TIP3   OH233801   4.633   4.940   6.161 -0.1132 -0.3760  0.3078
 4129TIP3    H133802   4.725   4.927   6.182 -0.4914 -1.9038  1.2078
 4129TIP3    H233803   4.608   5.019   6.209  0.6534 -0.0921  0.2538
 4130TIP3   OH233804   1.037   1.543  15.276  0.1090 -0.0214  0.5995
 4130TIP3    H133805   1.104   1.579  15.218 -0.0101 -0.2829  0.2985
 4130TIP3    H233806   1.059   1.579  15.362  1.7753 -1.6209  0.8906
 4131TIP3   OH233807   0.217   1.972  12.173 -0.6939 -0.0554  0.1416
 4131TIP3    H133808   0.121   1.971  12.170 -0.6815  0.1714 -0.4320
 4131TIP3    H233809   0.240   1.896  12.226 -1.1646 -0.5384 -0.3396
 4132TIP3   OH233810   6.203   4.184   4.718 -0.0052 -0.0334 -0.2693
 4132TIP3    H133811   6.219   4.096   4.752  0.4606 -0.2524 -1.0302
 4132TIP3    H233812   6.230   4.179   4.626  1.1163  1.2171 -0.0259
 4133TIP3   OH233813   1.045   3.619  13.071 -0.1014 -0.3447  0.3393
 4133TIP3    H133814   1.020   3.648  13.159 -2.4892  0.1144 -0.4194
 4133TIP3    H233815   0.963   3.620  13.021  1.2443 -0.1673 -2.0258
 4134TIP3   OH233816   4.955   2.145   1.144  0.1072  0.2184 -0.3783
 4134TIP3    H133817   4.925   2.079   1.207  2.2695 -0.5045 -0.0274
 4134TIP3    H233818   4.897   2.134   1.068  1.2440 -3.1617 -0.9353
 4135TIP3   OH233819   6.057   5.815  14.897  0.1214 -0.1457  0.1750
 4135TIP3    H133820   5.969   5.836  14.926  0.2555 -1.2921  1.4673
 4135TIP3    H233821   6.111   5.886  14.933 -0.3443  1.1153 -1.4467
 4136TIP3   OH233822   1.392   3.022   3.431  0.2527  0.0179 -0.4156
 4136TIP3    H133823   1.405   2.935   3.393 -0.7676 -0.8169  1.0243
 4136TIP3    H233824   1.468   3.033   3.489  0.2356 -0.0581 -0.3774
 4137TIP3   OH233825   2.645   0.807  12.681  0.6243 -0.2653 -0.3039
 4137TIP3    H133826   2.725   0.755  12.674  0.0423 -1.0531 -1.4712
 4137TIP3    H233827   2.664   0.872  12.749  2.0085 -0.8574 -0.0955
 4138TIP3   OH233828   3.052   2.341   3.241  0.6770 -0.3110  0.8500
 4138TIP3    H133829   3.072   2.276   3.174  0.3755  0.0602  0.3929
 4138TIP3    H233830   3.081   2.301   3.323 -1.9849 -2.1707  0.9718
 4139TIP3   OH233831   5.636   1.904   2.873 -0.3472 -0.0885  0.6243
 4139TIP3    H133832   5.640   1.809   2.859 -0.0295 -0.2554  1.7548
 4139TIP3    H233833   5.595   1.914   2.958 -1.4198  0.8471  0.0231
 4140TIP3   OH233834   1.042   2.634   6.999  0.5767  0.0953 -0.0113
 4140TIP3    H133835   1.074   2.548   6.973  1.9523  0.2968  0.9452
 4140TIP3    H233836   1.071   2.693   6.929 -1.3264 -0.3419 -1.2425
 4141TIP3   OH233837   3.784   2.857   2.891 -0.1225  0.2981 -1.1506
 4141TIP3    H133838   3.723   2.915   2.937 -0.4142 -1.4954  0.8907
 4141TIP3    H233839   3.865   2.861   2.942  0.2397 -0.1881 -1.6750
 4142TIP3   OH233840   3.185   2.236  16.406 -0.3707 -0.3431  0.2650
 4142TIP3    H133841   3.103   2.200  16.372  0.2321 -1.2518 -0.2477
 4142TIP3    H233842   3.237   2.160  16.429  0.4113  0.2279  0.4154
 4143TIP3   OH233843   4.162   5.559  16.945 -0.4201 -0.0826  0.2432
 4143TIP3    H133844   4.183   5.545  16.853 -3.9193  2.3011 -1.1261
 4143TIP3    H233845   4.099   5.490  16.966 -0.6316  0.1600  0.4164
 4144TIP3   OH233846   5.575   5.856  13.504 -0.7608  0.0326  0.3005
 4144TIP3    H133847   5.612   5.810  13.429  0.0208  0.6386  0.3072
 4144TIP3    H233848   5.514   5.919  13.466 -1.0164 -0.2474  0.2344
 4145TIP3   OH233849   0.153   3.790  13.756 -0.3293  0.5012  0.0399
 4145TIP3    H133850   0.239   3.828  13.736  0.5678 -1.1613  0.5298
 4145TIP3    H233851   0.105   3.861  13.799  1.5591  0.8704  1.6780
 4146TIP3   OH233852   6.367   2.875   4.861 -0.3165  0.4960  0.1777
 4146TIP3    H133853   6.432   2.859   4.930 -1.6056 -0.1329  1.2924
 4146TIP3    H233854   6.419   2.885   4.781  1.1553  0.1995  1.0556
 4147TIP3   OH233855   2.815   0.019   3.933 -0.0454  0.0320 -0.5952
 4147TIP3    H133856   2.905  -0.000   3.909  0.2629  1.3204 -0.5775
 4147TIP3    H233857   2.798  -0.034   4.010  0.9250  0.2462 -0.2174
 4148TIP3   OH233858   4.697   3.621   0.292 -0.1880  0.9020 -0.3875
 4148TIP3    H133859   4.652   3.605   0.209 -1.0619 -0.8109  0.3773
 4148TIP3    H233860   4.640   3.584   0.359  2.1758 -1.2299  0.6504
 4149TIP3   OH233861   6.430   5.208   4.050 -0.0869  0.5756  0.3204
 4149TIP3    H133862   6.341   5.208   4.083  0.0630  0.7499  0.7361
 4149TIP3    H233863   6.422   5.186   3.957 -0.5761  0.8065  0.3079
 4150TIP3   OH233864   0.821   5.610   4.520 -0.2203 -0.9399  0.2456
 4150TIP3    H133865   0.791   5.661   4.596 -1.0526  1.2059 -1.4150
 4150TIP3    H233866   0.891   5.663   4.482  0.1656 -1.9722 -0.5150
 4151TIP3   OH233867   1.003   6.647  16.620 -0.0060 -0.2750  0.2766
 4151TIP3    H133868   0.941   6.589  16.576 -0.6625  2.2940 -2.4459
 4151TIP3    H233869   1.081   6.646  16.564  0.9848 -0.4469  1.5919
 4152TIP3   OH233870   1.093   3.664  12.205  0.6352  0.1056 -0.0188
 4152TIP3    H133871   1.083   3.687  12.113  0.7018 -2.0798 -0.6140
 4152TIP3    H233872   1.096   3.569  12.206  2.8647  0.1155  2.0279
 4153TIP3   OH233873   2.373   4.727   0.362 -0.3469  0.1141  0.7797
 4153TIP3    H133874   2.464   4.730   0.393 -0.3656  1.5469  0.7323
 4153TIP3    H233875   2.364   4.803   0.305 -1.1742 -0.8230 -0.3928
 4154TIP3   OH233876   0.005   1.820  13.695  0.0321  0.1915 -0.1279
 4154TIP3    H133877   0.053   1.737  13.700  0.2121  0.0110 -3.0053
 4154TIP3    H233878  -0.087   1.795  13.693  0.0805  0.0513 -0.8203
 4155TIP3   OH233879   6.545   6.136   2.111 -0.4952 -0.0612 -0.1864
 4155TIP3    H133880   6.460   6.167   2.081 -0.1969 -0.2549 -1.2475
 4155TIP3    H233881   6.556   6.050   2.071  0.8176  0.5656 -1.2604
 4156TIP3   OH233882   2.517   6.402  15.855 -0.2599 -0.1559 -0.3312
 4156TIP3    H133883   2.484   6.414  15.766 -0.8424  1.7981  0.0892
 4156TIP3    H233884   2.455   6.450  15.910  0.3263 -0.9641  1.0899
 4157TIP3   OH233885   0.420   1.363  15.913 -0.0713  0.0402 -0.2733
 4157TIP3    H133886   0.408   1.307  15.836  0.9062 -2.1075  1.0409
 4157TIP3    H233887   0.502   1.408  15.896 -0.6046  0.7307 -1.1214
 4158TIP3   OH233888   1.118   5.397   2.939 -0.8245  0.1778  0.1188
 4158TIP3    H133889   1.157   5.311   2.923 -1.8144  0.0053 -1.8007
 4158TIP3    H233890   1.110   5.436   2.851  0.8682  2.8494  1.0391
 4159TIP3   OH233891   4.489   2.320  13.948 -0.1094 -0.7201 -0.4109
 4159TIP3    H133892   4.447   2.396  13.907 -1.3725 -2.2513 -2.0942
 4159TIP3    H233893   4.466   2.328  14.041 -0.1533  0.9617 -0.5296
 4160TIP3   OH233894   0.014   4.533   3.147 -0.4693 -0.2503  0.4459
 4160TIP3    H133895  -0.041   4.589   3.093 -1.1315  0.6649  1.9932
 4160TIP3    H233896   0.056   4.593   3.208  0.1497 -1.2533  1.0286
 4161TIP3   OH233897   6.322   6.408   2.241  0.2024 -0.1944 -0.0879
 4161TIP3    H133898   6.346   6.339   2.178 -0.3512 -1.4131  0.9890
 4161TIP3    H233899   6.259   6.366   2.300  0.0596  1.1666  0.7752
 4162TIP3   OH233900   4.131   3.320   3.478 -0.1582  0.0000 -0.6307
 4162TIP3    H133901   4.071   3.365   3.418 -0.0191  1.3561  0.1878
 4162TIP3    H233902   4.084   3.242   3.506 -1.2559  0.6694 -0.5629
 4163TIP3   OH233903   0.510   4.690  15.553  0.2726  0.6688  0.2222
 4163TIP3    H133904   0.504   4.605  15.597 -0.6549  0.3232 -0.5292
 4163TIP3    H233905   0.426   4.732  15.571 -0.6619  0.0002 -2.1704
 4164TIP3   OH233906   2.469   5.154   0.166 -0.0786 -0.7038 -0.5839
 4164TIP3    H133907   2.519   5.218   0.217 -0.2361  0.0174 -1.2948
 4164TIP3    H233908   2.508   5.070   0.188 -0.5939 -0.5106  1.2433
 4165TIP3   OH233909   1.068   6.506  15.152 -0.0311 -0.2550  0.5152
 4165TIP3    H133910   1.114   6.555  15.220  2.1596 -0.2826 -0.8349
 4165TIP3    H233911   1.018   6.571  15.103  0.9742  0.2822  0.1871
 4166TIP3   OH233912   0.893   4.953  16.392  0.2010  0.8423 -0.1243
 4166TIP3    H133913   0.938   4.869  16.391  0.6477  1.0704 -1.1509
 4166TIP3    H233914   0.952   5.012  16.440 -0.2030  0.5332  0.7644
 4167TIP3   OH233915   5.667   6.271  12.100  0.1105 -0.4853  0.3019
 4167TIP3    H133916   5.583   6.291  12.060  0.9878 -2.1356 -2.7062
 4167TIP3    H233917   5.712   6.355  12.104 -0.4175 -0.0769 -1.4026
 4168TIP3   OH233918   0.185   2.530  17.239  0.2249  0.3734 -0.3742
 4168TIP3    H133919   0.162   2.584  17.163 -1.2496  3.3058  1.9500
 4168TIP3    H233920   0.111   2.540  17.299  2.5232  0.6093  2.6573
 4169TIP3   OH233921   0.165   3.002  13.458  0.3193  0.1749  1.2196
 4169TIP3    H133922   0.229   2.955  13.512 -1.8595 -1.3631  2.6163
 4169TIP3    H233923   0.101   2.935  13.433 -1.0699  1.7557  0.3621
 4170TIP3   OH233924   4.582   6.409   4.481 -0.2735 -0.4171  0.3631
 4170TIP3    H133925   4.655   6.348   4.492 -0.0013 -0.0461  0.6360
 4170TIP3    H233926   4.563   6.407   4.387  0.1942 -0.3968  0.2665
 4171TIP3   OH233927   0.279   4.759   2.480  0.1069 -0.2845  0.2201
 4171TIP3    H133928   0.229   4.718   2.409 -0.9161  1.4422 -0.1346
 4171TIP3    H233929   0.360   4.788   2.439  0.7438 -1.6945  0.4270
 4172TIP3   OH233930   0.672   2.518  11.961 -0.1424  0.2154  0.6353
 4172TIP3    H133931   0.686   2.611  11.941 -1.7905  0.5176  0.7640
 4172TIP3    H233932   0.583   2.514  11.995 -0.9316 -1.7305 -1.4291
 4173TIP3   OH233933   6.740   2.547  13.014  0.0368  0.5822  0.3672
 4173TIP3    H133934   6.722   2.524  13.105 -1.2103 -0.0876 -0.0287
 4173TIP3    H233935   6.686   2.625  12.998  0.2037  0.6599  0.1834
 4174TIP3   OH233936   1.240   5.555   4.490  0.1748  0.5567 -0.5244
 4174TIP3    H133937   1.191   5.475   4.469  0.1883  0.0772  1.1730
 4174TIP3    H233938   1.330   5.525   4.501 -0.1477  0.3838  2.2207
 4175TIP3   OH233939   1.297   1.611   4.155  0.2067 -0.0627 -0.3797
 4175TIP3    H133940   1.372   1.640   4.102 -1.1449  1.4334 -1.5935
 4175TIP3    H233941   1.236   1.685   4.153 -0.3198 -0.2943  2.5858
 4176TIP3   OH233942   4.754   4.895   4.000 -0.7152 -0.0735  0.3381
 4176TIP3    H133943   4.725   4.962   4.062 -1.4955 -3.0123  3.4759
 4176TIP3    H233944   4.704   4.817   4.024  2.5163 -2.7050 -0.7211
 4177TIP3   OH233945   2.786   6.208   0.732  0.2756 -0.2057 -0.2632
 4177TIP3    H133946   2.729   6.234   0.804 -0.5080 -2.3697 -0.0476
 4177TIP3    H233947   2.831   6.130   0.763 -0.9674 -1.9319 -2.4724
 4178TIP3   OH233948   6.402   0.696   0.193 -0.3106 -0.0763 -0.1934
 4178TIP3    H133949   6.424   0.627   0.256  1.1648  1.9568  1.7051
 4178TIP3    H233950   6.483   0.708   0.142  0.0627  1.3382  0.6664
 4179TIP3   OH233951   1.615   6.717  16.200 -0.3075 -0.3322 -0.3435
 4179TIP3    H133952   1.653   6.754  16.280  0.0851  1.1025 -1.1571
 4179TIP3    H233953   1.670   6.641  16.180 -2.2247 -2.6136  2.3639
 4180TIP3   OH233954   4.844   1.828  15.491 -0.1428 -0.5619  0.0230
 4180TIP3    H133955   4.895   1.757  15.453  0.9341  0.1082  0.1977
 4180TIP3    H233956   4.904   1.903  15.494 -1.7092  0.8825 -1.7535
 4181TIP3   OH233957   1.482   4.373   4.457  0.2841 -0.2943  0.6608
 4181TIP3    H133958   1.530   4.455   4.452  0.0026 -0.1633  0.0359
 4181TIP3    H233959   1.517   4.329   4.534  2.9539 -1.1776 -0.9493
 4182TIP3   OH233960   0.509   4.373   5.992 -0.2438 -0.0721  0.1717
 4182TIP3    H133961   0.464   4.428   6.056  1.2341  2.4385 -0.8132
 4182TIP3    H233962   0.439   4.335   5.940 -1.3575  2.6551 -0.4938
 4183TIP3   OH233963   1.780   6.285  12.731  0.1053 -0.7204  0.1734
 4183TIP3    H133964   1.860   6.266  12.781  0.1330 -0.0756  0.3805
 4183TIP3    H233965   1.751   6.199  12.699  0.3841 -1.0739  0.8489
 4184TIP3   OH233966   2.681   5.781   1.334 -0.1383  0.1223 -0.0885
 4184TIP3    H133967   2.637   5.809   1.415 -0.4203  0.4349 -0.3484
 4184TIP3    H233968   2.773   5.776   1.359 -0.3761 -1.1305  0.6266
 4185TIP3   OH233969   1.531   6.417  12.649 -0.7264 -0.1428 -0.7877
 4185TIP3    H133970   1.610   6.362  12.654  1.4850  2.7851 -0.8650
 4185TIP3    H233971   1.489   6.405  12.734  1.0045 -0.1728  0.1204
 4186TIP3   OH233972   3.570   4.015  17.369  0.4150 -0.3805 -0.0341
 4186TIP3    H133973   3.563   4.003  17.464 -3.1206  1.2820  0.1029
 4186TIP3    H233974   3.479   4.025  17.340  1.4900  2.9837 -3.0104
 4187TIP3   OH233975   5.852   1.539   5.289 -0.6103  0.3681  0.0839
 4187TIP3    H133976   5.814   1.493   5.215  1.1238  1.0402 -1.2832
 4187TIP3    H233977   5.890   1.471   5.344  0.5037  0.0124 -1.0854
 4188TIP3   OH233978   1.326   4.299  10.916 -0.2143  0.7483 -0.3374
 4188TIP3    H133979   1.333   4.208  10.890  0.1517  1.3560 -2.5341
 4188TIP3    H233980   1.234   4.321  10.903 -0.3060  0.6993  0.2074
 4189TIP3   OH233981   2.125   6.173   2.013 -0.4820 -0.0718  0.2093
 4189TIP3    H133982   2.068   6.249   2.006  1.3284  1.4608  1.3317
 4189TIP3    H233983   2.163   6.162   1.926 -1.6822 -0.5310 -0.2920
 4190TIP3   OH233984   0.802   6.066  12.459  0.2498  0.7304 -0.5302
 4190TIP3    H133985   0.721   6.051  12.411  1.5306 -1.1382 -2.2487
 4190TIP3    H233986   0.872   6.047  12.396  2.0260  0.0622  1.5118
 4191TIP3   OH233987   1.205   2.646   7.263  0.6267  0.2094 -0.3109
 4191TIP3    H133988   1.155   2.624   7.184  0.8508  0.9601 -0.6730
 4191TIP3    H233989   1.218   2.562   7.308  0.9763 -0.3148 -1.3531
 4192TIP3   OH233990   4.192   3.136   1.658  0.1315  0.2426  0.0907
 4192TIP3    H133991   4.241   3.118   1.739 -0.4512  0.1692  0.4288
 4192TIP3    H233992   4.259   3.133   1.589  0.5847  0.0027  0.5315
 4193TIP3   OH233993   4.226   0.514  16.209 -0.2362  0.2805 -0.1443
 4193TIP3    H133994   4.168   0.491  16.137 -1.2302  0.5252  0.5548
 4193TIP3    H233995   4.219   0.441  16.271  0.5008  0.1368 -0.2132
 4194TIP3   OH233996   6.458   6.212  13.988  0.1206 -0.0219  0.5155
 4194TIP3    H133997   6.503   6.186  14.069 -0.3810 -1.3999  0.3830
 4194TIP3    H233998   6.517   6.187  13.918  0.1750  0.3733  0.4148
 4195TIP3   OH233999   6.240   3.085  11.410  0.3849  0.0860 -0.7343
 4195TIP3    H134000   6.162   3.059  11.458  0.7346  0.1354 -0.1350
 4195TIP3    H234001   6.206   3.134  11.335 -0.1089  2.7211  1.0837
 4196TIP3   OH234002   2.558   6.382  16.545 -0.1926  0.7853 -0.6106
 4196TIP3    H134003   2.480   6.329  16.530 -0.6382  0.1604  3.0272
 4196TIP3    H234004   2.626   6.339  16.493 -1.6681 -0.1649 -1.8461
 4197TIP3   OH234005   5.310   4.254   3.181 -0.5725 -0.2383  0.5012
 4197TIP3    H134006   5.242   4.321   3.185 -1.1444 -0.7652 -0.1800
 4197TIP3    H234007   5.354   4.269   3.097 -0.1123 -0.1615  0.7509
 4198TIP3   OH234008   3.461   3.551  13.409  0.0763  0.0761  0.1038
 4198TIP3    H134009   3.441   3.465  13.372 -2.7884 -0.3551  2.2641
 4198TIP3    H234010   3.419   3.613  13.348  2.0949  0.0461 -1.4236
 4199TIP3   OH234011   2.765   6.367   3.798  0.3348  0.4412  0.3603
 4199TIP3    H134012   2.676   6.378   3.766  0.1793 -1.5554 -0.0197
 4199TIP3    H234013   2.820   6.393   3.724  0.0156 -0.6256 -0.2718
 4200TIP3   OH234014   1.617   4.029   0.006  0.2146  0.0187 -0.7030
 4200TIP3    H134015   1.704   4.024   0.045  0.5698  1.8877 -1.1649
 4200TIP3    H234016   1.575   4.103   0.049 -0.0535  0.9786 -2.4788
 4201TIP3   OH234017   1.638   1.540  12.915  0.1088  1.2226 -0.7645
 4201TIP3    H134018   1.717   1.524  12.864 -0.3438 -0.1354 -1.0933
 4201TIP3    H234019   1.669   1.551  13.005  0.5788 -0.9446 -0.6101
 4202TIP3   OH234020   4.244   4.970  14.549 -0.3381 -0.0286 -0.4351
 4202TIP3    H134021   4.325   5.004  14.588  0.3855 -0.1716 -1.7608
 4202TIP3    H234022   4.242   5.007  14.461 -2.8314  1.6733  0.2440
 4203TIP3   OH234023   5.965   3.968  14.911  0.1118  0.0016 -0.0276
 4203TIP3    H134024   5.892   3.943  14.854  0.5279  1.3271 -1.1997
 4203TIP3    H234025   5.975   3.894  14.971 -2.1232 -0.2566  0.1077
 4204TIP3   OH234026   0.248   2.631   6.850 -0.3246 -0.0424  0.4726
 4204TIP3    H134027   0.227   2.672   6.766  0.9487 -0.8579 -0.2785
 4204TIP3    H234028   0.239   2.537   6.834  0.3382 -0.2273  1.1207
 4205TIP3   OH234029   0.945   1.163   1.179  0.4661  0.0734 -0.3573
 4205TIP3    H134030   0.900   1.100   1.123 -0.3425  0.5672 -0.2744
 4205TIP3    H234031   1.029   1.180   1.134  0.5395 -0.7897 -0.5508
 4206TIP3   OH234032   1.969   6.553   4.887 -0.5609  0.6408 -0.4339
 4206TIP3    H134033   1.976   6.541   4.982  0.7463 -1.7064 -0.7301
 4206TIP3    H234034   1.998   6.642   4.871  2.1651  0.1511  1.1626
 4207TIP3   OH234035   2.445   0.189   6.322 -0.4136  0.1087  0.1254
 4207TIP3    H134036   2.423   0.260   6.383 -3.7983 -1.0539  0.4829
 4207TIP3    H234037   2.434   0.109   6.373 -0.8185 -0.8077 -1.3459
 4208TIP3   OH234038   5.180   1.044  10.775 -0.5536 -0.4187 -0.6131
 4208TIP3    H134039   5.122   1.099  10.722  0.1298 -0.1476 -1.0949
 4208TIP3    H234040   5.259   1.036  10.722  0.1620 -0.1013  0.3938
 4209TIP3   OH234041   3.063   2.971   2.498  0.6299  0.5358 -0.3377
 4209TIP3    H134042   2.982   2.920   2.508 -0.1568  1.7132 -0.4952
 4209TIP3    H234043   3.035   3.062   2.506  1.5172  1.1340 -2.9114
 4210TIP3   OH234044   3.149   3.967   2.154  0.0361 -0.0534 -0.0217
 4210TIP3    H134045   3.225   4.017   2.185 -0.3031 -1.0513  2.7605
 4210TIP3    H234046   3.185   3.883   2.126  0.0458 -0.2912  0.6878
 4211TIP3   OH234047   5.039   3.345   1.054 -0.3194  0.1093 -0.1576
 4211TIP3    H134048   4.996   3.362   1.137 -0.9376 -1.2460 -0.1664
 4211TIP3    H234049   5.110   3.284   1.076 -1.0378 -0.9590 -0.7199
 4212TIP3   OH234050   4.646   5.838  14.571  0.1417  0.2297 -0.0292
 4212TIP3    H134051   4.686   5.869  14.490  2.5533 -1.0906  0.5194
 4212TIP3    H234052   4.721   5.827  14.631 -1.5593  1.4449  2.5096
 4213TIP3   OH234053   1.865   6.101  14.324 -0.1567  0.2396 -0.0467
 4213TIP3    H134054   1.805   6.040  14.366 -1.9745  1.1988 -1.1111
 4213TIP3    H234055   1.885   6.060  14.240  0.4323  0.0669  0.1778
 4214TIP3   OH234056   5.559   4.143   6.155  0.2915  0.9655 -0.5341
 4214TIP3    H134057   5.623   4.172   6.220  0.7615 -0.3885 -0.3754
 4214TIP3    H234058   5.495   4.215   6.151  0.4853  1.2576  1.0922
 4215TIP3   OH234059   3.379   2.565  13.094 -0.5869 -0.2243  0.0080
 4215TIP3    H134060   3.353   2.579  13.185  3.2644 -1.1200  1.4103
 4215TIP3    H234061   3.452   2.625  13.079 -0.5521 -0.7209 -2.2159
 4216TIP3   OH234062   5.984   4.999   3.944 -0.4711  0.6830  0.1030
 4216TIP3    H134063   6.052   4.933   3.959 -0.6989  0.1482 -1.1166
 4216TIP3    H234064   5.980   5.048   4.026  2.3160  1.6058 -0.2212
 4217TIP3   OH234065   1.886   3.235   3.718 -0.0562 -0.1562  0.2002
 4217TIP3    H134066   1.847   3.282   3.792  0.3303 -0.5196  0.6333
 4217TIP3    H234067   1.867   3.292   3.642  0.6981  0.8821  0.7621
 4218TIP3   OH234068   3.002   5.250  13.905  0.0975  0.2175  0.2413
 4218TIP3    H134069   2.932   5.185  13.899  0.4961 -0.2331  0.4082
 4218TIP3    H234070   3.049   5.228  13.986 -0.5636  1.5260  1.0028
 4219TIP3   OH234071   0.765   4.622   4.818  0.0107 -0.0650 -0.0567
 4219TIP3    H134072   0.838   4.653   4.871 -2.2988  2.1318  2.1601
 4219TIP3    H234073   0.702   4.587   4.881 -0.2961 -3.4831 -1.9975
 4220TIP3   OH234074   3.873   3.388   4.520  0.0012  0.4645  0.2511
 4220TIP3    H134075   3.906   3.472   4.487  0.0501  0.7338  0.9738
 4220TIP3    H234076   3.818   3.411   4.595  0.0237 -0.1494  0.4628
 4221TIP3   OH234077   4.529   2.111   6.527 -0.0525  0.4971 -0.0021
 4221TIP3    H134078   4.537   2.060   6.608  0.0282  1.3273  0.5227
 4221TIP3    H234079   4.532   2.045   6.458  2.5362 -0.0445  0.5271
 4222TIP3   OH234080   0.698   4.376   4.989 -0.3628 -0.0897  0.0307
 4222TIP3    H134081   0.607   4.348   5.001 -0.4512  0.2972  0.2817
 4222TIP3    H234082   0.739   4.305   4.939 -1.0760  0.2336 -1.0363
 4223TIP3   OH234083   5.343   3.587   2.873  0.2572  0.1544  0.2872
 4223TIP3    H134084   5.253   3.555   2.869  0.5112 -0.8240  1.7781
 4223TIP3    H234085   5.334   3.680   2.893 -0.4331 -0.0316  0.8889
 4224TIP3   OH234086   4.257   1.702  12.556  0.1768 -0.0191  0.4422
 4224TIP3    H134087   4.279   1.696  12.463 -2.8367 -2.0667 -0.2753
 4224TIP3    H234088   4.294   1.623  12.594  1.4478  0.8414  1.0754
 4225TIP3   OH234089   2.142   2.192  11.562 -0.5800  0.3720  0.1028
 4225TIP3    H134090   2.178   2.182  11.474 -0.5512  0.6395  0.0836
 4225TIP3    H234091   2.135   2.102  11.595 -0.8204  0.2541 -0.2618
 4226TIP3   OH234092   1.204   1.851  15.764  0.6345 -0.1247  0.2679
 4226TIP3    H134093   1.207   1.879  15.673  0.1899  0.4143  0.4080
 4226TIP3    H234094   1.117   1.879  15.795  0.4432 -1.0767  0.6111
 4227TIP3   OH234095   6.329   5.510   1.538 -0.0139 -0.6193 -0.6320
 4227TIP3    H134096   6.382   5.547   1.608  2.5794  0.3391 -2.9109
 4227TIP3    H234097   6.372   5.428   1.515  1.1140  0.5116 -2.9881
 4228TIP3   OH234098   2.220   2.496   3.971  0.6263  0.1128 -0.0067
 4228TIP3    H134099   2.132   2.481   4.006  1.3388 -1.7341  1.1571
 4228TIP3    H234100   2.247   2.580   4.007  0.4727 -0.7211  2.1604
 4229TIP3   OH234101   3.352   2.823   3.393 -0.0431  0.0989 -0.0520
 4229TIP3    H134102   3.425   2.761   3.398 -1.0432 -1.2197 -1.3030
 4229TIP3    H234103   3.317   2.812   3.305 -1.4633  1.0581  0.3656
 4230TIP3   OH234104   1.396   4.193  15.864 -0.0532  0.2769 -0.0583
 4230TIP3    H134105   1.438   4.112  15.893  0.3429  0.1162 -1.0538
 4230TIP3    H234106   1.317   4.164  15.817  0.8051  0.3698 -1.6248
 4231TIP3   OH234107   5.889   1.083  14.124 -0.5089 -0.2568  0.1908
 4231TIP3    H134108   5.934   0.999  14.116 -1.4788 -0.7945  0.2133
 4231TIP3    H234109   5.803   1.061  14.159  0.0560  0.9965  2.5964
 4232TIP3   OH234110   5.832   6.233   1.572 -0.2978 -0.0570 -0.0932
 4232TIP3    H134111   5.881   6.186   1.640 -0.6459 -0.8341 -0.3663
 4232TIP3    H234112   5.743   6.240   1.607 -0.3231  0.1152 -0.1907
 4233TIP3   OH234113   6.505   5.717   3.524 -0.1035 -0.1233 -0.6310
 4233TIP3    H134114   6.512   5.782   3.454 -1.8392 -0.2253 -0.9444
 4233TIP3    H234115   6.418   5.732   3.561  1.5512  1.4985  3.1206
 4234TIP3   OH234116   0.135   4.712   5.508  0.0067 -0.2606  0.1089
 4234TIP3    H134117   0.053   4.675   5.475 -0.2608 -0.3253  0.8195
 4234TIP3    H234118   0.133   4.693   5.602  0.8536 -0.2923  0.1253
 4235TIP3   OH234119   0.507   2.229  15.902 -0.0937  0.8777 -0.1866
 4235TIP3    H134120   0.600   2.203  15.905 -0.4185 -0.5225 -1.3410
 4235TIP3    H234121   0.500   2.298  15.968  1.2513 -0.6737  1.7085
 4236TIP3   OH234122   0.739   2.435   5.277  0.3033 -0.6445 -0.1989
 4236TIP3    H134123   0.834   2.448   5.269  0.7264 -1.3132  2.7340
 4236TIP3    H234124   0.727   2.341   5.269 -0.0968 -0.5765 -0.4194
 4237TIP3   OH234125   5.780   3.799  11.494  0.1687  0.4398 -0.1262
 4237TIP3    H134126   5.720   3.726  11.509 -0.9355  1.4902  0.6547
 4237TIP3    H234127   5.794   3.800  11.399 -0.5269 -0.2072 -0.2394
 4238TIP3   OH234128   1.531   1.852  12.942 -0.1139 -0.0615  0.0500
 4238TIP3    H134129   1.464   1.810  12.995 -1.4367  0.7935 -0.8897
 4238TIP3    H234130   1.530   1.943  12.969  1.5630 -0.2419  0.8820
 4239TIP3   OH234131   3.381   2.827  13.981  0.5635  0.4141  0.6408
 4239TIP3    H134132   3.378   2.743  14.026  1.0648  0.6084  1.0531
 4239TIP3    H234133   3.291   2.859  13.983  0.6775  0.6987  2.0509
 4240TIP3   OH234134   0.159   2.633  14.892  0.1996  0.3457 -0.2188
 4240TIP3    H134135   0.227   2.594  14.839 -0.3787  0.3188 -0.9500
 4240TIP3    H234136   0.160   2.726  14.869  1.6949  0.8560  1.6429
 4241TIP3   OH234137   0.049   1.185   4.470  0.4120  0.0924 -0.1811
 4241TIP3    H134138   0.074   1.109   4.418  0.8252  2.2620 -3.4607
 4241TIP3    H234139   0.001   1.241   4.409 -1.0094  1.9242  2.4249
 4242TIP3   OH234140   5.037   2.584  11.982  1.2275  0.2064 -0.2993
 4242TIP3    H134141   4.974   2.654  11.968  0.1545 -0.5321  0.6648
 4242TIP3    H234142   4.995   2.526  12.046  1.4794 -2.0415 -2.0408
 4243TIP3   OH234143   2.276   4.102  14.470 -0.1882 -0.6017  0.2457
 4243TIP3    H134144   2.255   4.048  14.394 -2.1067 -1.8170  1.5449
 4243TIP3    H234145   2.212   4.173  14.467 -0.7027 -1.0098  1.0148
 4244TIP3   OH234146   0.583   6.451  13.299 -0.4518  0.1755 -0.4058
 4244TIP3    H134147   0.513   6.395  13.331 -0.2067 -0.9659 -1.7868
 4244TIP3    H234148   0.545   6.496  13.223  0.6490 -1.3966 -1.9420
 4245TIP3   OH234149   1.451   4.017  17.055 -0.0743  0.2510 -0.1913
 4245TIP3    H134150   1.427   4.090  16.997  1.7362  0.7138 -0.4066
 4245TIP3    H234151   1.500   3.957  16.998 -0.5148 -0.5612  0.2741
 4246TIP3   OH234152   2.152   6.634   0.719 -1.3323 -0.1064  0.1354
 4246TIP3    H134153   2.166   6.723   0.687  0.5438 -0.1770  0.6346
 4246TIP3    H234154   2.135   6.582   0.640 -2.1525  0.6253 -0.1824
 4247TIP3   OH234155   3.603   6.053  10.501  0.3293  0.3428  0.0388
 4247TIP3    H134156   3.516   6.046  10.540  0.8365  0.1478  1.1859
 4247TIP3    H234157   3.618   5.966  10.463 -0.1810  0.5397 -0.6240
 4248TIP3   OH234158   6.170   4.483   5.889 -0.0520  0.4325 -0.6871
 4248TIP3    H134159   6.200   4.392   5.881  0.1845  0.3560  0.8796
 4248TIP3    H234160   6.200   4.511   5.975  1.4614  2.6089 -1.8150
 4249TIP3   OH234161   1.664   1.986   0.288  0.3773 -0.3578 -0.0184
 4249TIP3    H134162   1.648   1.983   0.382  0.2687 -0.2481 -0.0330
 4249TIP3    H234163   1.657   1.895   0.259 -0.4610 -0.2907 -0.0644
 4250TIP3   OH234164   5.214   2.665   0.324 -0.1347 -0.7327  0.0474
 4250TIP3    H134165   5.191   2.691   0.413 -1.4079  0.1085 -0.5004
 4250TIP3    H234166   5.294   2.613   0.334  0.6190  0.6269  1.5281
 4251TIP3   OH234167   6.023   0.139  13.252 -0.5407 -0.2958 -0.3098
 4251TIP3    H134168   5.989   0.200  13.187 -1.4614 -1.5556 -1.0558
 4251TIP3    H234169   6.092   0.187  13.297 -0.7175  1.0157 -1.3953
 4252TIP3   OH234170   1.863   2.335   5.020 -0.1825 -0.4149 -0.1041
 4252TIP3    H134171   1.803   2.279   5.069 -0.8135  0.9648  0.7508
 4252TIP3    H234172   1.850   2.422   5.058 -0.4197  0.6379 -2.4744
 4253TIP3   OH234173   2.037   2.523  12.611 -0.4313 -0.0844  0.7545
 4253TIP3    H134174   2.027   2.507  12.705 -0.0633  0.2265  0.8523
 4253TIP3    H234175   1.956   2.493  12.572 -0.5349 -0.3346  1.1614
 4254TIP3   OH234176   3.470   5.656  14.186  0.1531  0.0059  0.2301
 4254TIP3    H134177   3.403   5.591  14.207  0.1214 -0.4374 -1.2032
 4254TIP3    H234178   3.472   5.659  14.091  0.2819  1.9862  0.2584
 4255TIP3   OH234179   1.697   0.107   3.453  0.2045 -0.0604 -0.3822
 4255TIP3    H134180   1.743   0.168   3.395 -0.2116 -0.3316 -1.0138
 4255TIP3    H234181   1.726   0.021   3.423  3.0142 -0.2185  2.3118
 4256TIP3   OH234182   3.212   3.141  12.836  0.2089 -0.1863 -0.2503
 4256TIP3    H134183   3.142   3.156  12.773 -0.0459 -2.7676 -0.6559
 4256TIP3    H234184   3.246   3.229  12.854 -2.5575  1.0772 -0.6472
 4257TIP3   OH234185   0.964   6.340  10.725  0.5333 -0.5208  0.4280
 4257TIP3    H134186   1.047   6.349  10.678 -0.5229 -0.2604 -1.5089
 4257TIP3    H234187   0.967   6.253  10.765  1.7096 -0.5233  0.3481
 4258TIP3   OH234188   2.668   1.220   3.840  0.2455  0.4503  0.5451
 4258TIP3    H134189   2.586   1.191   3.880  1.0873 -1.0148  1.3236
 4258TIP3    H234190   2.675   1.313   3.861  0.2203 -0.0644  3.1151
 4259TIP3   OH234191   4.917   2.430   6.038  0.3096  0.0212  0.0875
 4259TIP3    H134192   4.836   2.408   6.082  0.2451 -1.4838 -0.7187
 4259TIP3    H234193   4.940   2.516   6.072 -1.1149  0.0634  1.0321
 4260TIP3   OH234194   6.071   6.350   4.182  0.3729  0.3499  0.0237
 4260TIP3    H134195   6.129   6.288   4.226  1.6761  0.5894 -1.2492
 4260TIP3    H234196   6.046   6.307   4.100 -1.2610  0.2696  0.5341
 4261TIP3   OH234197   1.642   3.636   1.447 -0.0822 -0.0994 -0.7814
 4261TIP3    H134198   1.673   3.699   1.382 -2.3374  1.3936 -0.5218
 4261TIP3    H234199   1.640   3.552   1.400  2.9117 -0.0845 -1.1563
 4262TIP3   OH234200   6.494   5.603   6.226  0.1649  0.6420  0.3633
 4262TIP3    H134201   6.527   5.679   6.274 -1.2765  1.9326 -0.6063
 4262TIP3    H234202   6.524   5.528   6.277  1.5860  1.8406  1.3825
 4263TIP3   OH234203   5.163   0.230   4.004 -0.1097  0.8009  0.1873
 4263TIP3    H134204   5.235   0.252   3.945 -0.7396 -0.3742 -1.0808
 4263TIP3    H234205   5.194   0.255   4.091  1.9810 -0.0687 -0.2623
 4264TIP3   OH234206   1.408   1.473   3.147  0.5223 -0.5990  0.3802
 4264TIP3    H134207   1.446   1.422   3.076  0.6100  0.7460 -0.5773
 4264TIP3    H234208   1.461   1.554   3.150 -2.1538  1.3530 -1.0093
 4265TIP3   OH234209   0.414   4.069   5.607 -0.3373  0.7520 -0.4838
 4265TIP3    H134210   0.395   3.975   5.606  1.1189  0.4146 -2.1766
 4265TIP3    H234211   0.481   4.079   5.674 -0.6831  0.6337 -0.1173
 4266TIP3   OH234212   0.585   3.575  15.714  0.4872 -0.6688  0.0381
 4266TIP3    H134213   0.497   3.552  15.684  0.9010 -0.2828 -1.6226
 4266TIP3    H234214   0.644   3.530  15.652  1.4289 -0.2342  0.5923
 4267TIP3   OH234215   0.224   0.222  13.010 -0.5085  0.0266  0.2804
 4267TIP3    H134216   0.257   0.186  13.093 -0.8519  0.8351  0.7748
 4267TIP3    H234217   0.143   0.267  13.034 -1.7749 -1.5490 -0.8423
 4268TIP3   OH234218   0.471   4.371  16.397 -0.4917  0.4601 -0.5726
 4268TIP3    H134219   0.453   4.445  16.455  0.1874  1.2336 -1.3211
 4268TIP3    H234220   0.413   4.383  16.323  0.3037  0.8077 -1.1586
 4269TIP3   OH234221   6.535   1.423  12.807 -0.4435 -0.0568 -0.2781
 4269TIP3    H134222   6.477   1.499  12.815  1.2327  1.3763 -1.0726
 4269TIP3    H234223   6.486   1.362  12.751  0.2924  2.8524 -4.6144
 4270TIP3   OH234224   3.040   2.261  16.940  0.4249 -0.0200  0.7008
 4270TIP3    H134225   2.946   2.274  16.955  0.2495 -0.7968  0.3620
 4270TIP3    H234226   3.052   2.278  16.847  0.8699  1.3516  0.9867
 4271TIP3   OH234227   3.160   1.497  16.917 -0.6387  0.1770  0.0771
 4271TIP3    H134228   3.111   1.520  16.837 -2.1920  0.5971  1.1009
 4271TIP3    H234229   3.203   1.578  16.943 -2.0412  0.6950  0.9149
 4272TIP3   OH234230   2.455   4.407  16.253 -0.0267  0.0277  0.6266
 4272TIP3    H134231   2.492   4.357  16.326  1.8952  1.0085  0.3892
 4272TIP3    H234232   2.417   4.484  16.294  0.3237  0.1758  0.6789
 4273TIP3   OH234233   0.758   0.280   4.151 -0.0468 -0.5533  0.0949
 4273TIP3    H134234   0.668   0.304   4.131 -0.0406  1.0904  1.7867
 4273TIP3    H234235   0.799   0.265   4.066 -1.2593  1.1973 -0.8501
 4274TIP3   OH234236   5.248   2.025   4.020 -0.1352 -0.0649  0.2439
 4274TIP3    H134237   5.173   2.082   4.032 -0.8819 -0.9150 -0.2437
 4274TIP3    H234238   5.311   2.054   4.086 -0.9565  0.5443  0.7833
 4275TIP3   OH234239   1.667   0.707  12.448 -0.0974 -0.6018 -0.0668
 4275TIP3    H134240   1.576   0.717  12.420 -0.1324 -0.6493  0.0271
 4275TIP3    H234241   1.701   0.635  12.395 -0.5132 -1.4877  0.8334
 4276TIP3   OH234242   2.036   3.522   0.501  0.0138  0.0449 -0.1071
 4276TIP3    H134243   2.083   3.479   0.430 -0.8329 -1.7971  0.3761
 4276TIP3    H234244   1.972   3.457   0.530 -1.5927  1.7931  0.4599
 4277TIP3   OH234245   5.054   4.471  14.900 -0.0279 -0.2072 -0.2002
 4277TIP3    H134246   5.098   4.551  14.874  0.3187 -0.3460 -0.0505
 4277TIP3    H234247   5.121   4.420  14.946 -0.0317 -0.9021 -0.9314
 4278TIP3   OH234248   6.123   3.064  13.698  0.4037  0.3018 -0.0402
 4278TIP3    H134249   6.034   3.098  13.708 -0.3482 -1.0457 -1.5787
 4278TIP3    H234250   6.119   3.011  13.618  3.0351  1.5706 -1.1284
 4279TIP3   OH234251   4.592   6.462   1.132 -0.2325  0.4459  0.1929
 4279TIP3    H134252   4.539   6.439   1.056 -3.3938  0.2417  2.2977
 4279TIP3    H234253   4.626   6.550   1.112 -1.7485  0.7855 -1.0663
 4280TIP3   OH234254   3.198   1.917  12.701 -0.0284 -0.2506 -0.6183
 4280TIP3    H134255   3.282   1.955  12.677 -0.2984  0.1547 -0.9352
 4280TIP3    H234256   3.218   1.827  12.728  0.5334 -0.0786 -0.4620
 4281TIP3   OH234257   4.093   1.007  14.605  0.1061  0.3878 -0.0939
 4281TIP3    H134258   4.180   0.986  14.570 -0.5753 -1.9822 -0.5687
 4281TIP3    H234259   4.110   1.044  14.691  1.6309  1.3284 -0.7631
 4282TIP3   OH234260   0.953   3.051   2.030 -0.6075  0.2048  0.2313
 4282TIP3    H134261   0.974   3.136   1.992  0.0755  0.4436  1.1253
 4282TIP3    H234262   0.935   2.995   1.955 -1.5907  1.2598 -0.3545
 4283TIP3   OH234263   1.483   1.932   4.731  0.0163 -0.2024  0.6811
 4283TIP3    H134264   1.430   1.986   4.672  0.2978 -0.1896  0.4389
 4283TIP3    H234265   1.567   1.977   4.736 -0.4621  0.5839  2.2503
 4284TIP3   OH234266   3.610   6.350  15.613  0.0727  0.0029  0.0099
 4284TIP3    H134267   3.705   6.346  15.607 -0.0108 -0.1917 -1.5746
 4284TIP3    H234268   3.579   6.302  15.536 -1.3236 -0.6026  0.9094
 4285TIP3   OH234269   3.653   1.831   1.171  0.1997 -0.1304  0.3401
 4285TIP3    H134270   3.611   1.868   1.093  0.5855 -0.9393 -0.2666
 4285TIP3    H234271   3.667   1.739   1.149  0.6620 -0.2810  1.2273
 4286TIP3   OH234272   0.540   3.682  16.745  0.1267  0.0293 -0.1343
 4286TIP3    H134273   0.586   3.745  16.689  0.7691  0.4139  0.8136
 4286TIP3    H234274   0.492   3.626  16.683  0.9111  0.3681 -1.0740
 4287TIP3   OH234275   3.599   5.669   2.425  0.4344  0.5099 -0.0320
 4287TIP3    H134276   3.537   5.692   2.494  0.5688  1.8115 -0.3173
 4287TIP3    H234277   3.593   5.742   2.362  0.3006 -0.6457 -1.4100
 4288TIP3   OH234278   4.847   2.997  14.214  1.3331 -0.3440  0.3189
 4288TIP3    H134279   4.787   2.939  14.261  1.1314  0.1015  0.6312
 4288TIP3    H234280   4.916   2.940  14.181 -0.9646 -1.4828 -3.0333
 4289TIP3   OH234281   4.636   1.843   3.956 -0.1769  0.0278 -0.4097
 4289TIP3    H134282   4.655   1.904   4.027 -0.7916  0.0454 -0.2572
 4289TIP3    H234283   4.690   1.766   3.975  3.1306  1.6490 -2.2976
 4290TIP3   OH234284   1.227   2.875   7.410  0.4724 -0.5322  0.5300
 4290TIP3    H134285   1.168   2.867   7.485 -0.9922  0.5162 -0.4695
 4290TIP3    H234286   1.212   2.796   7.358  1.5083 -1.2727  1.3141
 4291TIP3   OH234287   6.391   0.211  12.349  0.1776  0.5375  0.0137
 4291TIP3    H134288   6.439   0.245  12.274 -0.1967  1.7615  0.2962
 4291TIP3    H234289   6.302   0.195  12.317 -0.2784  2.0833  0.4104
 4292TIP3   OH234290   5.052   2.846  11.286  0.9312 -0.0556 -0.1404
 4292TIP3    H134291   5.012   2.787  11.350  0.1854  1.0806  0.4827
 4292TIP3    H234292   5.066   2.791  11.208 -0.7630 -0.8097  0.0239
 4293TIP3   OH234293   0.092   3.356   4.677  0.1475 -0.6130  0.1775
 4293TIP3    H134294   0.011   3.306   4.682 -1.4737  1.8177  0.2750
 4293TIP3    H234295   0.096   3.387   4.587 -0.2205  1.0164  0.6801
 4294TIP3   OH234296   4.367   1.687  16.040 -0.5094  0.4511 -0.4812
 4294TIP3    H134297   4.287   1.693  15.987 -0.5697 -1.3747 -0.6722
 4294TIP3    H234298   4.410   1.607  16.010  0.1709  0.1050  1.2593
 4295TIP3   OH234299   5.870   6.101   2.625 -0.0317 -0.4200 -0.3888
 4295TIP3    H134300   5.788   6.102   2.674 -0.2867 -1.0218 -0.8038
 4295TIP3    H234301   5.921   6.030   2.664  0.6486  0.4768  0.4247
 4296TIP3   OH234302   3.157   2.202   4.132  0.3333 -0.3944  0.0252
 4296TIP3    H134303   3.187   2.156   4.054 -0.1963 -0.3019 -0.2364
 4296TIP3    H234304   3.082   2.151   4.162  0.6669 -0.5564  0.6055
 4297TIP3   OH234305   5.449   3.168  17.204 -0.7863 -0.7385  0.0595
 4297TIP3    H134306   5.481   3.080  17.222 -0.8953 -0.7251  0.3254
 4297TIP3    H234307   5.354   3.160  17.205 -0.8207 -1.0541 -2.0999
 4298TIP3   OH234308   6.163   0.890   3.615 -0.1181 -0.0537 -0.2473
 4298TIP3    H134309   6.191   0.924   3.700  1.1083 -0.5473 -0.4350
 4298TIP3    H234310   6.068   0.897   3.616 -0.1226 -0.1313  1.1990
 4299TIP3   OH234311   0.287   6.102  14.379  0.1619 -0.0069 -0.2784
 4299TIP3    H134312   0.378   6.078  14.363 -0.0211  0.3379 -2.0463
 4299TIP3    H234313   0.291   6.195  14.401  0.2359  0.0469 -0.5105
 4300TIP3   OH234314   6.093   5.723   5.651  0.5522 -0.2509 -0.1886
 4300TIP3    H134315   6.169   5.665   5.663  0.4914 -0.4072 -0.5458
 4300TIP3    H234316   6.022   5.679   5.697  0.4548 -0.5676 -0.6380
 4301TIP3   OH234317   0.062   2.682   4.719 -0.4230 -0.3334  0.2387
 4301TIP3    H134318   0.075   2.649   4.808 -0.0577  0.6547  0.5758
 4301TIP3    H234319   0.098   2.771   4.722 -1.4101  0.1126 -0.5986
 4302TIP3   OH234320   4.347   2.553  14.652  0.1559  0.0963  0.1799
 4302TIP3    H134321   4.304   2.542  14.736  0.8511 -1.0916  0.4089
 4302TIP3    H234322   4.412   2.483  14.649  0.2629  0.2157 -1.2680
 4303TIP3   OH234323   0.269   6.163   2.806  0.3212  0.2672  0.2311
 4303TIP3    H134324   0.180   6.131   2.823  0.3097  0.3086  0.2503
 4303TIP3    H234325   0.255   6.247   2.762  0.3267 -0.7970 -1.9081
 4304TIP3   OH234326   1.482   3.467  15.836 -0.0514  0.0221  0.8565
 4304TIP3    H134327   1.444   3.540  15.788 -0.3454 -0.4429  0.3748
 4304TIP3    H234328   1.426   3.392  15.815  0.3197 -0.3701  1.2388
 4305TIP3   OH234329   2.686   4.348  11.581  1.2914  0.2487 -0.9178
 4305TIP3    H134330   2.702   4.357  11.487  1.0212  1.0108 -0.8974
 4305TIP3    H234331   2.596   4.378  11.593  0.7363 -1.4305 -0.6490
 4306TIP3   OH234332   6.393   0.975   4.563  0.4042 -0.3260 -0.2034
 4306TIP3    H134333   6.387   1.056   4.613  0.2260  0.6533 -1.7381
 4306TIP3    H234334   6.381   1.002   4.472 -1.2976 -2.2633 -0.6424
 4307TIP3   OH234335   6.707   6.404  17.127  0.3613 -0.7157 -0.1088
 4307TIP3    H134336   6.648   6.398  17.203  1.5588  0.3125  0.9660
 4307TIP3    H234337   6.712   6.498  17.109 -0.1397 -0.9695 -1.6989
 4308TIP3   OH234338   1.914   1.921  16.023 -0.5819 -0.6895 -0.4148
 4308TIP3    H134339   1.824   1.942  15.995 -0.7409 -3.3914 -2.3045
 4308TIP3    H234340   1.966   1.935  15.944  0.8851  1.5119  0.8391
 4309TIP3   OH234341   4.282   0.125  12.842  0.4774 -0.2485 -0.1159
 4309TIP3    H134342   4.309   0.157  12.929  0.1953 -1.1970  0.3313
 4309TIP3    H234343   4.206   0.179  12.819 -0.3609 -0.9597  0.8964
 4310TIP3   OH234344   3.277   0.093  15.363  0.6223  0.0056 -0.0286
 4310TIP3    H134345   3.281   0.010  15.410  0.4768 -0.2809 -0.5067
 4310TIP3    H234346   3.338   0.150  15.409  0.4772 -0.2633  0.5069
 4311TIP3   OH234347   6.087   2.743  17.126  0.3519  0.5419  0.6710
 4311TIP3    H134348   6.040   2.786  17.054  1.2993 -1.6300 -1.3725
 4311TIP3    H234349   6.172   2.787  17.128  0.5958  0.1209 -0.0731
 4312TIP3   OH234350   6.370   0.953   2.551  0.2733  0.4653  1.1777
 4312TIP3    H134351   6.303   0.894   2.586  0.3015 -1.2527 -1.3317
 4312TIP3    H234352   6.350   0.957   2.457  1.5860  2.8070  0.9376
 4313TIP3   OH234353   0.052   0.338  16.996  0.7004  0.6121 -0.4320
 4313TIP3    H134354   0.094   0.337  17.083 -0.3476  0.4533  0.0891
 4313TIP3    H234355   0.123   0.360  16.936  1.2689  1.6436  0.5621
 4314TIP3   OH234356   6.125   5.163   3.145 -0.5341 -0.1909 -0.4710
 4314TIP3    H134357   6.213   5.149   3.110 -0.3298  1.0283 -0.5072
 4314TIP3    H234358   6.071   5.180   3.068 -0.4166  0.8704 -0.3344
 4315TIP3   OH234359   5.981   5.481   5.766 -0.2648 -0.2893  0.5624
 4315TIP3    H134360   5.939   5.395   5.761 -2.0646  0.5749 -0.3143
 4315TIP3    H234361   6.069   5.467   5.731  0.5364 -2.3204  3.1302
 4316TIP3   OH234362   0.840   0.583   1.721 -0.0102 -0.7504 -0.0001
 4316TIP3    H134363   0.926   0.601   1.759  0.4024  0.4474 -1.3835
 4316TIP3    H234364   0.778   0.631   1.776  0.3213 -0.7988  0.4154
 4317TIP3   OH234365   5.165   5.252  13.998 -0.3072 -0.4501  0.3921
 4317TIP3    H134366   5.225   5.216  13.932 -0.1214 -0.2683  0.4586
 4317TIP3    H234367   5.090   5.284  13.948  0.1428  0.3230  0.1911
 4318TIP3   OH234368   2.398   1.128   2.445 -0.3381  0.5893  0.5564
 4318TIP3    H134369   2.468   1.109   2.382 -0.1124  2.5108  0.1572
 4318TIP3    H234370   2.436   1.192   2.505 -1.3700  0.7522  1.0597
 4319TIP3   OH234371   1.512   1.349   1.044 -0.0221 -0.1152  0.3052
 4319TIP3    H134372   1.435   1.366   1.098 -1.2496 -3.1993 -0.2513
 4319TIP3    H234373   1.565   1.289   1.096 -0.2497 -1.5579 -1.0698
 4320TIP3   OH234374   3.410   1.835   1.027  0.4981 -0.1548 -0.7178
 4320TIP3    H134375   3.389   1.777   0.954 -1.1212  1.6110 -1.7338
 4320TIP3    H234376   3.366   1.795   1.102 -0.4727 -0.3390 -1.3667
 4321TIP3   OH234377   3.432   1.799   5.749  0.1229  0.3983 -0.2232
 4321TIP3    H134378   3.466   1.875   5.701  0.3451  0.0879 -0.5635
 4321TIP3    H234379   3.348   1.828   5.783 -0.7332  0.1859 -2.0223
 4322TIP3   OH234380   6.762   2.156   3.165  0.2967 -0.3952 -0.3785
 4322TIP3    H134381   6.768   2.241   3.120  2.4010  0.0786  0.7119
 4322TIP3    H234382   6.837   2.106   3.132 -0.2665 -1.4276 -0.1343
 4323TIP3   OH234383   1.109   3.758  12.666  0.0539 -0.5284  0.9402
 4323TIP3    H134384   1.109   3.835  12.723 -0.2650  0.9299 -0.9573
 4323TIP3    H234385   1.070   3.788  12.584 -1.3945 -3.0691  0.5856
 4324TIP3   OH234386   2.814   6.709  14.042  0.5997 -0.5273  0.3335
 4324TIP3    H134387   2.757   6.777  14.007  1.5206  0.6721  1.0923
 4324TIP3    H234388   2.759   6.659  14.102  0.0310 -0.1602  0.1170
 4325TIP3   OH234389   5.660   2.607   0.091 -0.9249  0.0813 -0.2468
 4325TIP3    H134390   5.618   2.692   0.079 -0.5064  0.4165  0.5796
 4325TIP3    H234391   5.650   2.588   0.184  1.7273  0.7090  0.2525
 4326TIP3   OH234392   0.588   4.614   1.115  0.2736  0.1724  0.4736
 4326TIP3    H134393   0.629   4.529   1.129  1.9234  0.6212 -1.1836
 4326TIP3    H234394   0.515   4.597   1.056 -0.2732 -0.2651  1.2628
 4327TIP3   OH234395   2.573   4.430   5.887 -0.3160 -0.4786 -0.4472
 4327TIP3    H134396   2.621   4.451   5.967  0.3146 -1.1448 -0.6484
 4327TIP3    H234397   2.481   4.431   5.914 -0.0699 -1.6341  0.5255
 4328TIP3   OH234398   5.207   5.260   5.273 -0.0671  1.1265  0.2341
 4328TIP3    H134399   5.115   5.260   5.300 -1.0222 -2.5714 -2.2132
 4328TIP3    H234400   5.254   5.221   5.347 -0.9557  0.5436  0.5101
 4329TIP3   OH234401   5.154   1.866   2.713  0.1444 -0.2199  0.5404
 4329TIP3    H134402   5.156   1.819   2.630 -0.8316 -0.2447  0.5191
 4329TIP3    H234403   5.063   1.859   2.742 -0.2234  2.1835  0.2191
 4330TIP3   OH234404   3.958   1.237   5.780  0.4114 -0.2994 -0.1050
 4330TIP3    H134405   3.906   1.188   5.844 -0.5232 -0.8081 -1.2151
 4330TIP3    H234406   4.049   1.214   5.800  0.0010 -2.7382 -0.7233
 4331TIP3   OH234407   5.506   2.456   1.033  1.0300 -0.0959  0.0636
 4331TIP3    H134408   5.542   2.395   1.097 -0.5517 -1.2067 -0.0394
 4331TIP3    H234409   5.523   2.543   1.069 -0.2993 -0.7011  2.3065
 4332TIP3   OH234410   5.345   5.190   1.753 -0.4424  0.0742 -0.1576
 4332TIP3    H134411   5.275   5.233   1.702  0.1263  0.5663 -0.5447
 4332TIP3    H234412   5.406   5.261   1.773  1.1104 -0.7012 -1.7977
 4333TIP3   OH234413   2.760   1.390  15.910 -0.2921  0.1949  0.0908
 4333TIP3    H134414   2.672   1.363  15.937 -0.4970  1.7172  1.1213
 4333TIP3    H234415   2.750   1.482  15.885  0.9291  0.2748 -0.1713
 4334TIP3   OH234416   5.451   3.877   4.397 -0.1185  0.3365  0.2464
 4334TIP3    H134417   5.516   3.885   4.467  1.5127  0.2470 -1.1947
 4334TIP3    H234418   5.388   3.948   4.414  1.6572  1.9591  0.3701
 4335TIP3   OH234419   5.373   0.162   3.327  0.3661 -0.4439  0.2185
 4335TIP3    H134420   5.327   0.224   3.271  0.6887 -0.0436  0.3868
 4335TIP3    H234421   5.386   0.085   3.271  0.6949 -0.0486 -0.2698
 4336TIP3   OH234422   2.877   2.376  13.279  0.2668  0.4729  0.1139
 4336TIP3    H134423   2.929   2.322  13.339 -0.0526 -1.0797 -0.9504
 4336TIP3    H234424   2.922   2.461  13.277  0.8926  0.2050  1.6807
 4337TIP3   OH234425   5.131   4.038   1.953 -0.6092 -0.7744  0.1994
 4337TIP3    H134426   5.139   4.075   2.041  2.3269 -0.3292 -0.1439
 4337TIP3    H234427   5.153   3.946   1.963  1.7139 -0.3350 -0.2518
 4338TIP3   OH234428   2.743   6.440  15.572  0.2964 -0.3094  0.2629
 4338TIP3    H134429   2.663   6.395  15.547 -0.2980 -0.1820  1.8028
 4338TIP3    H234430   2.769   6.489  15.494  0.3103 -2.3486 -1.0721
 4339TIP3   OH234431   1.212   0.274   4.429 -0.9917 -0.3033  0.4895
 4339TIP3    H134432   1.155   0.332   4.379  0.5338  0.1935 -0.7536
 4339TIP3    H234433   1.240   0.327   4.504 -3.5584 -1.1621  2.2351
 4340TIP3   OH234434   0.705   3.535   0.386  0.1831  0.2441 -0.2396
 4340TIP3    H134435   0.747   3.451   0.369  1.9961  1.2437 -0.8914
 4340TIP3    H234436   0.646   3.548   0.312  2.4108  1.0498 -1.9911
 4341TIP3   OH234437   1.611   0.867  16.071  0.3869 -0.0432  0.0194
 4341TIP3    H134438   1.698   0.827  16.075 -0.0513 -0.9243  1.1830
 4341TIP3    H234439   1.558   0.806  16.019  0.4937  0.5924 -0.8638
 4342TIP3   OH234440   4.637   3.600   2.259 -0.0673 -0.8827 -0.3182
 4342TIP3    H134441   4.550   3.575   2.291  0.6426 -1.2361  1.4277
 4342TIP3    H234442   4.693   3.526   2.281  1.5260  0.9848  2.5375
 4343TIP3   OH234443   5.380   1.703   2.546  0.0444  0.3800 -0.3861
 4343TIP3    H134444   5.367   1.735   2.457  0.7294  0.6255 -0.4032
 4343TIP3    H234445   5.470   1.671   2.547 -0.5500 -1.3828 -0.3148
 4344TIP3   OH234446   6.446   5.304  14.758 -0.3803 -0.4377 -0.3788
 4344TIP3    H134447   6.446   5.270  14.847 -1.5044 -1.9521 -0.9086
 4344TIP3    H234448   6.521   5.262  14.716  0.3797  0.5804 -0.0412
 4345TIP3   OH234449   1.861   5.165   3.789  0.0340  0.2446 -0.1054
 4345TIP3    H134450   1.787   5.136   3.736 -0.5051  0.6666  0.3970
 4345TIP3    H234451   1.867   5.259   3.772  0.6364  0.1623 -0.3581
 4346TIP3   OH234452   4.773   1.397   6.590  0.7799  0.3765  0.7952
 4346TIP3    H134453   4.721   1.377   6.511 -0.9259 -0.2600  2.0186
 4346TIP3    H234454   4.849   1.339   6.584  0.5442  0.1534 -0.2485
 4347TIP3   OH234455   6.412   5.309  16.684 -0.8702 -0.0038 -0.4081
 4347TIP3    H134456   6.383   5.233  16.633 -1.0854  0.0366 -0.3460
 4347TIP3    H234457   6.341   5.324  16.747 -0.9288  0.3916 -0.5703
 4348TIP3   OH234458   5.041   2.416   2.397 -0.6025  0.2825 -0.3270
 4348TIP3    H134459   4.993   2.398   2.316 -1.5348  0.2038  0.2344
 4348TIP3    H234460   4.997   2.492   2.435 -2.3631 -1.6460  1.7882
 4349TIP3   OH234461   1.374   6.639  12.930 -0.4203 -0.3248 -0.0546
 4349TIP3    H134462   1.395   6.546  12.932 -2.6984 -0.8768  1.9508
 4349TIP3    H234463   1.315   6.653  13.003 -1.3715  2.4231 -1.1882
 4350TIP3   OH234464   3.113   0.210   0.919  0.0521 -0.0473 -0.2725
 4350TIP3    H134465   3.143   0.168   0.838 -0.0219  0.0207 -0.3348
 4350TIP3    H234466   3.123   0.304   0.903  0.6340 -0.0534  0.0312
 4351TIP3   OH234467   6.297   0.556   1.775  0.1010 -0.2156  0.9513
 4351TIP3    H134468   6.372   0.536   1.832  0.6420 -0.9427  0.0292
 4351TIP3    H234469   6.283   0.650   1.785 -0.2130 -0.4115  2.7296
 4352TIP3   OH234470   5.179   2.851  10.497 -0.4449  0.6407 -0.1018
 4352TIP3    H134471   5.216   2.926  10.451 -0.1737  1.7043  1.7676
 4352TIP3    H234472   5.224   2.776  10.460  1.2161  1.6259 -0.1705
 4353TIP3   OH234473   5.549   3.651   3.931  0.6321 -1.0254  0.1790
 4353TIP3    H134474   5.623   3.643   3.870  0.5712 -1.5342  0.1606
 4353TIP3    H234475   5.473   3.625   3.879  0.5435 -1.2112  0.4008
 4354TIP3   OH234476   4.660   2.709  12.300  0.9657 -0.2315  0.3408
 4354TIP3    H134477   4.695   2.688  12.214  0.9226 -0.6636  0.4257
 4354TIP3    H234478   4.735   2.742  12.349  1.0867 -0.4106  0.2764
 4355TIP3   OH234479   0.047   2.231  16.520 -0.7525  0.1718  0.3138
 4355TIP3    H134480   0.113   2.286  16.563 -0.8729  0.9332 -0.4528
 4355TIP3    H234481   0.041   2.265  16.431 -1.8604 -0.1737  0.2374
 4356TIP3   OH234482   6.572   6.303  12.940 -0.0059 -0.6623  0.0129
 4356TIP3    H134483   6.614   6.235  12.888  1.9246  0.0920  0.5065
 4356TIP3    H234484   6.617   6.384  12.915 -1.3983  0.2434  0.3513
 4357TIP3   OH234485   1.192   0.872   1.662  0.1347 -0.3181  0.3432
 4357TIP3    H134486   1.124   0.849   1.725 -0.3250  0.0722 -0.0054
 4357TIP3    H234487   1.271   0.828   1.694 -0.0581 -0.0157  1.2692
 4358TIP3   OH234488   1.023   5.068   6.133 -0.0579  0.1189  0.8842
 4358TIP3    H134489   0.953   5.114   6.179  0.8755  1.1258  1.3545
 4358TIP3    H234490   1.016   4.977   6.163 -1.2791  0.1451  0.7454
 4359TIP3   OH234491   1.501   1.065   0.078 -0.0238  0.1255 -0.5972
 4359TIP3    H134492   1.581   1.015   0.066 -0.2722 -0.1024 -1.3837
 4359TIP3    H234493   1.442   1.005   0.125  0.4337  0.4762  0.4410
 4360TIP3   OH234494   0.018   1.000   1.295 -0.2954  0.1384 -0.3537
 4360TIP3    H134495  -0.046   0.943   1.253  1.3651 -1.1124 -1.3079
 4360TIP3    H234496   0.022   0.970   1.385  0.1303 -0.8937 -0.7039
 4361TIP3   OH234497   6.537   6.027  11.360  0.0093 -0.2919  0.0920
 4361TIP3    H134498   6.501   6.043  11.273  2.2191  0.0893 -0.8153
 4361TIP3    H234499   6.620   5.982  11.343  1.6126  1.8349  1.8517
 4362TIP3   OH234500   1.125   0.071   0.734 -0.2874 -0.5149 -0.1751
 4362TIP3    H134501   1.170   0.019   0.800 -0.0187  1.3626  1.1763
 4362TIP3    H234502   1.033   0.050   0.745 -0.3489  0.4480  1.4745
 4363TIP3   OH234503   0.580   6.396   5.375  0.6180  0.1030 -0.1559
 4363TIP3    H134504   0.664   6.435   5.351  0.6466 -0.1973 -0.5349
 4363TIP3    H234505   0.515   6.448   5.328  0.6117  0.0994 -0.1512
 4364TIP3   OH234506   5.474   3.140  14.058  0.1403  0.2696  0.3185
 4364TIP3    H134507   5.445   3.157  13.968 -1.4526  1.6054  1.0447
 4364TIP3    H234508   5.482   3.227  14.097  1.2203 -0.2808  1.3642
 4365TIP3   OH234509   4.305   2.061  11.433 -0.5517  0.7219 -0.0082
 4365TIP3    H134510   4.283   2.147  11.398 -0.9987  1.6636  2.3991
 4365TIP3    H234511   4.224   2.010  11.425 -0.8348  1.1298  0.2240
 4366TIP3   OH234512   5.023   0.088  13.009  0.5386 -0.0955 -0.4048
 4366TIP3    H134513   5.075   0.106  13.087  0.5141  0.9133 -0.6099
 4366TIP3    H234514   4.933   0.109  13.035  0.2634 -1.4029 -0.1911
 4367TIP3   OH234515   6.418   0.928  16.178  0.6496  0.2827  0.1611
 4367TIP3    H134516   6.397   1.016  16.210  1.3870  0.4327  0.2515
 4367TIP3    H234517   6.371   0.870  16.237  0.9371  0.5952  0.7048
 4368TIP3   OH234518   3.819   3.105   1.885 -0.3009 -0.0574  0.2366
 4368TIP3    H134519   3.809   3.023   1.837 -0.0381  0.9784 -1.7081
 4368TIP3    H234520   3.730   3.141   1.890 -0.5874 -0.8839  2.0070
 4369TIP3   OH234521   4.579   3.798   0.814  0.4531  0.3373  0.1613
 4369TIP3    H134522   4.629   3.876   0.838 -1.6573  1.3984  1.4046
 4369TIP3    H234523   4.576   3.746   0.895 -3.1528  1.9213  1.2628
 4370TIP3   OH234524   3.842   0.654   0.093  0.0463  0.1869 -0.1814
 4370TIP3    H134525   3.797   0.732   0.123 -0.4367 -1.0236  2.6151
 4370TIP3    H234526   3.775   0.603   0.047  0.2755  1.2108 -1.6950
 4371TIP3   OH234527   3.406   5.610  12.873  0.2300 -0.3778  0.2399
 4371TIP3    H134528   3.399   5.605  12.778  0.2080 -0.5519  0.2504
 4371TIP3    H234529   3.396   5.520  12.903  0.8000 -0.4029  0.3671
 4372TIP3   OH234530   2.029   2.408   6.530 -0.5171  0.3309 -0.1680
 4372TIP3    H134531   2.050   2.462   6.606 -0.2807  0.9471 -0.6707
 4372TIP3    H234532   2.058   2.320   6.555 -1.5169  0.2705  0.9165
 4373TIP3   OH234533   3.646   2.720   1.684 -0.0061 -0.5191  0.6258
 4373TIP3    H134534   3.553   2.701   1.700 -0.4216  0.0376 -0.9487
 4373TIP3    H234535   3.688   2.710   1.770 -1.8629  1.3297  1.8226
 4374TIP3   OH234536   4.951   6.310   2.446  0.2254  0.1238  0.2721
 4374TIP3    H134537   4.881   6.374   2.433  0.7350  0.1970 -2.8969
 4374TIP3    H234538   5.029   6.363   2.464  0.1272  0.2287  0.3950
 4375TIP3   OH234539   6.201   3.390  16.562 -0.0968 -0.0520 -0.2282
 4375TIP3    H134540   6.286   3.381  16.606 -0.1207  2.2767  0.4072
 4375TIP3    H234541   6.198   3.315  16.502  2.3250 -0.3045 -0.1455
 4376TIP3   OH234542   3.792   0.502   1.358 -0.1419 -0.1299 -0.6086
 4376TIP3    H134543   3.721   0.456   1.313  0.3492 -2.0325  0.4426
 4376TIP3    H234544   3.845   0.432   1.397  2.1536  1.2339 -1.0889
 4377TIP3   OH234545   1.208   1.424  14.734 -0.2190 -0.0918  0.1385
 4377TIP3    H134546   1.300   1.403  14.717 -0.0730 -0.0118  0.7912
 4377TIP3    H234547   1.188   1.495  14.672  1.0975  2.0899  2.0640
 4378TIP3   OH234548   4.570   2.861  11.252  0.3416  0.2518  0.2244
 4378TIP3    H134549   4.615   2.836  11.172  0.5598 -2.0519  0.9994
 4378TIP3    H234550   4.634   2.912  11.301  1.0531 -0.3772 -0.0325
 4379TIP3   OH234551   0.354   5.122   5.714 -0.0353 -0.1210 -0.2903
 4379TIP3    H134552   0.441   5.161   5.711 -0.1288  0.5357  2.4856
 4379TIP3    H234553   0.359   5.046   5.656  2.0112  0.5477 -1.0716
 4380TIP3   OH234554   2.384   5.290  16.223 -0.9325  0.1876  0.4552
 4380TIP3    H134555   2.466   5.317  16.181 -0.6557  0.0642  0.9024
 4380TIP3    H234556   2.404   5.292  16.317 -1.1963 -0.6145  0.5403
 4381TIP3   OH234557   2.203   2.395   5.947 -0.0587  0.1191 -0.0538
 4381TIP3    H134558   2.178   2.356   5.863  1.7494  0.3871 -0.7615
 4381TIP3    H234559   2.211   2.488   5.929  0.4538  0.1625  0.3758
 4382TIP3   OH234560   3.654   2.315  11.244 -0.2986  0.9083  0.2805
 4382TIP3    H134561   3.656   2.380  11.314 -0.2832  1.3176 -0.0924
 4382TIP3    H234562   3.741   2.275  11.246 -0.7206 -0.0214  1.3472
 4383TIP3   OH234563   1.047   5.749   2.715 -0.5629 -0.0020 -0.6132
 4383TIP3    H134564   1.104   5.788   2.649  0.6992  0.8293  0.8849
 4383TIP3    H234565   1.084   5.662   2.731  0.5734  0.6511  0.5812
 4384TIP3   OH234566   2.567   1.380  11.753 -0.0050  0.4167  0.3245
 4384TIP3    H134567   2.481   1.376  11.795 -0.6782  0.1339 -1.0228
 4384TIP3    H234568   2.560   1.453  11.692  0.8679  0.6522  0.4931
 4385TIP3   OH234569   4.603   5.808   2.429  0.0949 -0.0311  0.0863
 4385TIP3    H134570   4.536   5.795   2.362  0.2439  0.5676 -0.1840
 4385TIP3    H234571   4.569   5.877   2.485  0.2701 -0.0652  0.2373
 4386TIP3   OH234572   4.106   0.154   3.213 -0.1211  0.0202 -0.2010
 4386TIP3    H134573   4.115   0.244   3.184  0.4079 -0.0799 -0.3674
 4386TIP3    H234574   4.172   0.144   3.282  0.6316 -0.5526 -0.9741
 4387TIP3   OH234575   1.037   3.267  11.983 -0.0334  0.1116 -0.0560
 4387TIP3    H134576   1.128   3.238  11.974  0.1907  1.4182 -3.7486
 4387TIP3    H234577   1.037   3.357  11.950 -2.9035 -0.4694 -2.0398
 4388TIP3   OH234578   0.164   4.453   4.015  0.2525 -0.2495  0.4510
 4388TIP3    H134579   0.182   4.362   4.039 -0.3352 -0.0352  1.8158
 4388TIP3    H234580   0.071   4.465   4.032  0.5351  0.8944  1.3609
 4389TIP3   OH234581   1.233   5.347  10.645  0.2453  0.0139  0.0660
 4389TIP3    H134582   1.242   5.328  10.552 -2.5152 -1.6995  0.0290
 4389TIP3    H234583   1.260   5.267  10.689 -0.7174 -0.0607  0.5657
 4390TIP3   OH234584   4.673   6.470  13.934 -0.1357  0.1613 -0.2886
 4390TIP3    H134585   4.732   6.529  13.981 -1.1753  0.9853  0.0322
 4390TIP3    H234586   4.650   6.404  14.000 -0.5712  0.5748 -0.0178
 4391TIP3   OH234587   5.236   2.527  13.082  0.0981  0.4389 -0.3916
 4391TIP3    H134588   5.250   2.433  13.086  1.1843  0.5999  0.0076
 4391TIP3    H234589   5.268   2.553  12.996  2.2050  0.7788  0.4454
 4392TIP3   OH234590   3.934   0.888   2.790 -0.2337 -0.4103  0.3174
 4392TIP3    H134591   3.925   0.857   2.880 -1.1769 -0.5443  0.1884
 4392TIP3    H234592   3.982   0.818   2.745 -1.0009 -0.9962  0.3916
 4393TIP3   OH234593   0.380   5.571   5.515  0.1753 -0.2107  0.2733
 4393TIP3    H134594   0.381   5.482   5.480  0.3231  0.7799 -2.4608
 4393TIP3    H234595   0.287   5.592   5.525  0.1398 -0.9466  1.8826
 4394TIP3   OH234596   2.802   2.458   1.347 -0.0161  0.2949 -0.0088
 4394TIP3    H134597   2.722   2.497   1.311 -0.6558  0.0036  1.0534
 4394TIP3    H234598   2.869   2.526   1.335 -0.7364  1.0844  0.3033
 4395TIP3   OH234599   3.604   1.632   0.807  0.0427  0.0948  0.3673
 4395TIP3    H134600   3.641   1.718   0.787  1.4397 -1.0780 -2.7412
 4395TIP3    H234601   3.510   1.642   0.791  0.1999  1.0327 -0.0286
 4396TIP3   OH234602   5.026   4.248   1.005  0.0324 -0.2223  0.3235
 4396TIP3    H134603   4.964   4.286   1.067 -1.3825 -2.4213  0.3509
 4396TIP3    H234604   5.052   4.165   1.044  1.3168 -0.3561 -0.7275
 4397TIP3   OH234605   4.912   4.654  11.165 -0.0937  0.4686 -0.8343
 4397TIP3    H134606   4.898   4.562  11.141 -1.5421  0.5305 -0.3455
 4397TIP3    H234607   4.866   4.703  11.097 -3.8030  0.6547  1.5163
 4398TIP3   OH234608   2.690   6.094   0.231  0.6138  0.2954 -0.0148
 4398TIP3    H134609   2.661   6.126   0.317  0.7403 -1.1385  0.5836
 4398TIP3    H234610   2.631   6.021   0.212  2.7019 -1.5997  0.4453
 4399TIP3   OH234611   4.757   5.155  16.020  0.0210 -0.3046  0.6101
 4399TIP3    H134612   4.833   5.121  15.974 -0.7399  0.9784 -1.7193
 4399TIP3    H234613   4.791   5.182  16.106  1.5135 -2.5556  0.7959
 4400TIP3   OH234614   5.716   1.801  15.673 -0.3698  0.0658  0.2282
 4400TIP3    H134615   5.773   1.736  15.712 -0.0320 -0.0477 -0.4302
 4400TIP3    H234616   5.730   1.880  15.725  0.1581 -0.0466  0.2611
 4401TIP3   OH234617   3.462   3.319   0.012  0.0181  0.2665  0.1570
 4401TIP3    H134618   3.482   3.370  -0.066 -2.2217 -0.6322 -1.0726
 4401TIP3    H234619   3.388   3.364   0.052 -0.1721 -0.4533  0.6218
 4402TIP3   OH234620   5.422   1.304   4.684 -0.3428  0.0802  0.1718
 4402TIP3    H134621   5.470   1.374   4.728 -2.1626  0.4142  1.7338
 4402TIP3    H234622   5.465   1.224   4.713  0.4487  0.4472  0.0313
 4403TIP3   OH234623   6.271   5.710  15.331 -1.1269 -0.0202 -0.2583
 4403TIP3    H134624   6.328   5.638  15.359  0.8764  1.1208 -1.1054
 4403TIP3    H234625   6.310   5.740  15.249 -1.6851  2.1963  0.2053
 4404TIP3   OH234626   6.405   0.865   1.954  0.6238  0.2066  0.5387
 4404TIP3    H134627   6.477   0.925   1.932  0.8893 -0.4634 -0.5017
 4404TIP3    H234628   6.362   0.848   1.870 -0.2399 -0.0758  1.0200
 4405TIP3   OH234629   6.541   4.354  16.738  0.2068 -0.2752  0.2776
 4405TIP3    H134630   6.498   4.368  16.822 -0.0377 -0.5078  0.1926
 4405TIP3    H234631   6.469   4.336  16.677  0.3277  0.4922 -0.1101
 4406TIP3   OH234632   2.065   2.674  15.524  0.5654  0.2794 -0.3063
 4406TIP3    H134633   1.985   2.684  15.576  1.6483 -0.0104  1.4497
 4406TIP3    H234634   2.056   2.741  15.455 -1.6258 -0.3945 -0.7552
 4407TIP3   OH234635   0.859   5.971  15.971  0.0836  0.2741  0.0937
 4407TIP3    H134636   0.776   5.929  15.995 -1.5593  2.4562 -1.3915
 4407TIP3    H234637   0.886   5.927  15.891 -0.9728  1.1279 -0.7648
 4408TIP3   OH234638   5.167   5.055  12.260 -0.2835 -0.5572 -0.3581
 4408TIP3    H134639   5.126   4.968  12.260  3.4240 -2.4943 -1.0402
 4408TIP3    H234640   5.248   5.044  12.310 -0.5050  3.0551  1.0835
 4409TIP3   OH234641   5.136   6.529   0.771  0.4681 -0.6594 -0.0547
 4409TIP3    H134642   5.077   6.506   0.700 -0.8509  0.6245  0.5658
 4409TIP3    H234643   5.213   6.565   0.728 -0.1414 -0.2658 -0.8453
 4410TIP3   OH234644   0.621   1.311   2.311 -0.7066  0.1399 -0.2236
 4410TIP3    H134645   0.588   1.243   2.252  1.0094 -0.3127 -0.7244
 4410TIP3    H234646   0.620   1.391   2.258 -2.0942  0.3822  0.1506
 4411TIP3   OH234647   6.316   6.464   0.423  0.2131 -0.1439 -0.5509
 4411TIP3    H134648   6.228   6.475   0.459  0.3017 -0.7413 -0.1468
 4411TIP3    H234649   6.301   6.443   0.331 -0.0203  1.2048 -0.8425
 4412TIP3   OH234650   6.228   5.586   5.379 -0.1662 -0.3185 -0.0655
 4412TIP3    H134651   6.254   5.579   5.471  0.7110 -0.5538 -0.3267
 4412TIP3    H234652   6.150   5.530   5.373 -0.0999 -0.4779  0.4865
 4413TIP3   OH234653   5.157   6.136   4.428  0.2635  0.3839 -0.0815
 4413TIP3    H134654   5.220   6.063   4.431 -1.1170 -0.8651 -0.2700
 4413TIP3    H234655   5.104   6.125   4.507 -0.7671  0.4164 -0.7489
 4414TIP3   OH234656   1.697   5.518   5.083 -0.5251  0.0045 -0.2045
 4414TIP3    H134657   1.749   5.582   5.131 -1.3138  0.1896  0.4093
 4414TIP3    H234658   1.703   5.545   4.992 -0.8382  0.9482  0.0504
 4415TIP3   OH234659   3.904   3.287  13.502 -0.0336  0.2094  0.3453
 4415TIP3    H134660   3.813   3.293  13.531 -1.3466  0.0408 -3.2829
 4415TIP3    H234661   3.904   3.220  13.434  2.3977  1.6105 -1.1989
 4416TIP3   OH234662   0.108   2.303   1.450 -0.3723  0.0010  0.4892
 4416TIP3    H134663   0.191   2.275   1.487 -0.8689  0.1593  1.7589
 4416TIP3    H234664   0.045   2.237   1.480 -0.3503 -1.5803 -2.5247
 4417TIP3   OH234665   5.357   2.827   5.009 -0.0324 -0.0513  0.1744
 4417TIP3    H134666   5.272   2.818   4.965 -0.3584 -1.3066  0.9955
 4417TIP3    H234667   5.372   2.922   5.013  0.3619  0.1622 -3.1807
 4418TIP3   OH234668   4.317   3.035  13.592 -0.0592 -0.5749  0.5106
 4418TIP3    H134669   4.278   3.047  13.679  0.0122 -1.8791  0.7473
 4418TIP3    H234670   4.398   3.085  13.595 -0.4371  0.0227  0.9235
 4419TIP3   OH234671   2.116   5.126  16.153  0.1801 -0.0208 -0.1116
 4419TIP3    H134672   2.054   5.198  16.143  0.9140  0.6926  0.2738
 4419TIP3    H234673   2.200   5.170  16.168  0.8804 -0.9545 -1.1648
 4420TIP3   OH234674   4.927   1.923   3.692 -0.1544  0.4166  0.7003
 4420TIP3    H134675   4.837   1.905   3.663 -0.4043  2.4418  0.0530
 4420TIP3    H234676   4.980   1.914   3.613  0.0063  0.5988  0.7874
 4421TIP3   OH234677   0.911   5.136   1.693  0.3447 -0.0099  0.3677
 4421TIP3    H134678   0.902   5.223   1.730 -1.4346 -0.1075  0.2421
 4421TIP3    H234679   0.852   5.134   1.618 -0.1342 -1.5038  0.7347
 4422TIP3   OH234680   5.185   4.931   6.562 -0.1307 -0.2924  0.3680
 4422TIP3    H134681   5.264   4.891   6.597 -0.1219  0.2576  0.9918
 4422TIP3    H234682   5.216   4.998   6.501 -0.1307 -0.3977  0.2500
 4423TIP3   OH234683   4.153   3.294  16.405 -0.2641 -0.4626 -0.8911
 4423TIP3    H134684   4.156   3.254  16.318 -0.8122 -1.3223 -0.5207
 4423TIP3    H234685   4.116   3.381  16.390 -0.1688 -0.5255 -1.5366
 4424TIP3   OH234686   2.235   2.555  17.198 -0.0891  0.4237 -0.0701
 4424TIP3    H134687   2.302   2.487  17.200 -1.0013 -0.7243 -2.8587
 4424TIP3    H234688   2.161   2.517  17.247  0.3288  0.5883  0.7100
 4425TIP3   OH234689   3.626   2.004   5.523 -0.0860 -0.1500  1.1246
 4425TIP3    H134690   3.687   2.029   5.592 -1.0117  0.7161  1.6580
 4425TIP3    H234691   3.678   1.951   5.463  1.5997  1.7902  0.7689
 4426TIP3   OH234692   6.683   1.153  12.403 -0.3752 -0.0492  0.0132
 4426TIP3    H134693   6.728   1.176  12.484  0.7671 -4.6281  1.0117
 4426TIP3    H234694   6.594   1.131  12.430 -0.6546  0.5318 -0.4095
 4427TIP3   OH234695   2.490   5.584  15.176 -0.0346  0.5117 -0.0859
 4427TIP3    H134696   2.399   5.614  15.175 -0.1147  0.2777 -1.4859
 4427TIP3    H234697   2.499   5.532  15.096  0.9672 -0.5817  0.6922
 4428TIP3   OH234698   1.550   2.832   5.657  0.0334 -0.2645 -0.0209
 4428TIP3    H134699   1.540   2.927   5.660  0.2573 -0.2324 -0.2440
 4428TIP3    H234700   1.502   2.805   5.579  0.9911 -0.1967 -0.6442
 4429TIP3   OH234701   2.591   0.527  13.931  0.2481 -0.8569  0.0727
 4429TIP3    H134702   2.572   0.433  13.940 -0.9418 -0.6524 -0.2059
 4429TIP3    H234703   2.590   0.561  14.020  2.3197 -1.3794  0.3576
 4430TIP3   OH234704   5.576   1.076  10.867  0.1618 -0.0775  1.0319
 4430TIP3    H134705   5.512   1.019  10.910 -0.7176  0.7744  0.8828
 4430TIP3    H234706   5.549   1.165  10.891  1.6334  0.2930  1.4340
 4431TIP3   OH234707   6.438   3.023  15.705  0.2507  0.1976  0.6569
 4431TIP3    H134708   6.404   3.057  15.623  0.7091 -0.4909  0.1638
 4431TIP3    H234709   6.472   2.936  15.682  0.1671 -0.1006  1.6249
 4432TIP3   OH234710   3.644   1.746  12.402 -0.3419  0.3267 -0.0606
 4432TIP3    H134711   3.574   1.778  12.459 -1.3680 -3.7366  1.2770
 4432TIP3    H234712   3.718   1.734  12.461 -0.4877 -1.1635 -0.1656
 4433TIP3   OH234713   1.691   3.593  15.954 -0.0550  0.4498 -0.7328
 4433TIP3    H134714   1.752   3.607  15.881 -0.3853  0.0116 -1.0983
 4433TIP3    H234715   1.607   3.575  15.912  0.2233 -2.2273 -0.3177
 4434TIP3   OH234716   6.729   4.359  10.515  0.5745  0.8666  0.2038
 4434TIP3    H134717   6.814   4.316  10.517  1.5415  2.6282 -0.4233
 4434TIP3    H234718   6.697   4.346  10.426  0.3094  0.4134  0.3673
 4435TIP3   OH234719   0.470   3.667  15.364 -0.0112 -0.3515  0.1427
 4435TIP3    H134720   0.487   3.587  15.314 -0.1755 -0.3003  0.0011
 4435TIP3    H234721   0.416   3.638  15.437 -1.8213 -0.0769 -1.0179
 4436TIP3   OH234722   3.713   4.427   4.985  0.0110  0.2151 -0.1445
 4436TIP3    H134723   3.653   4.445   4.913  1.3994  1.3828 -1.0555
 4436TIP3    H234724   3.798   4.456   4.954  0.6661  0.7239  1.9600
 4437TIP3   OH234725   6.137   2.273   3.189  0.0163  0.2695  0.2434
 4437TIP3    H134726   6.197   2.339   3.158  2.2457 -1.5106  0.5239
 4437TIP3    H234727   6.099   2.311   3.269 -0.4625  2.0360 -0.7738
 4438TIP3   OH234728   2.816   4.350  10.845 -0.3708 -0.2251 -0.4202
 4438TIP3    H134729   2.843   4.260  10.861  0.7976  0.6514  3.6532
 4438TIP3    H234730   2.870   4.403  10.904 -2.8826  2.8764 -0.6075
 4439TIP3   OH234731   1.978   6.482   4.550  0.3101  0.8530  0.8241
 4439TIP3    H134732   1.895   6.435   4.560  1.1814 -1.2595 -1.0541
 4439TIP3    H234733   1.954   6.575   4.561 -2.5735  0.4624 -1.0214
 4440TIP3   OH234734   1.124   4.790  15.664  0.7119  0.0802  0.2586
 4440TIP3    H134735   1.191   4.723  15.674 -0.6540 -1.1532  1.7047
 4440TIP3    H234736   1.129   4.841  15.745  0.1651  0.1997  0.2198
 4441TIP3   OH234737   0.570   2.846  14.623  0.1070  0.1697 -0.1618
 4441TIP3    H134738   0.640   2.886  14.571  0.0476 -2.0064 -2.0821
 4441TIP3    H234739   0.489   2.878  14.582 -0.0464  1.6798  1.2511
 4442TIP3   OH234740   5.756   2.140  12.176  0.5327 -0.0319 -0.1042
 4442TIP3    H134741   5.836   2.111  12.220 -0.2745 -1.6087  0.3915
 4442TIP3    H234742   5.784   2.215  12.123  2.1170  0.1025  0.8412
 4443TIP3   OH234743   5.737   6.544  14.530 -0.5889  0.3673  0.0151
 4443TIP3    H134744   5.709   6.571  14.618  2.4167  2.5630  0.4649
 4443TIP3    H234745   5.769   6.455  14.541  0.1380  0.7545  1.2970
 4444TIP3   OH234746   5.637   3.698   4.308  0.0593 -0.3516  0.3327
 4444TIP3    H134747   5.692   3.716   4.385 -0.3667  0.1179  0.5389
 4444TIP3    H234748   5.557   3.749   4.324  0.6144  1.0852 -1.1911
 4445TIP3   OH234749   2.779   3.126   5.776  0.1358  0.1300  0.0746
 4445TIP3    H134750   2.694   3.157   5.808 -0.7605 -0.8592 -1.2829
 4445TIP3    H234751   2.782   3.153   5.684  1.3973  0.3334  0.1549
 4446TIP3   OH234752   3.708   5.419  12.173 -0.2031  0.3261 -0.4254
 4446TIP3    H134753   3.643   5.376  12.227  0.2652 -0.3381 -0.3751
 4446TIP3    H234754   3.713   5.508  12.207 -0.6350  0.2009 -0.0339
 4447TIP3   OH234755   2.710   4.974  14.836  0.2520 -0.4450 -0.7785
 4447TIP3    H134756   2.749   5.049  14.881 -0.9862  0.3300 -0.9522
 4447TIP3    H234757   2.785   4.920  14.811  1.1132  0.2833  0.1293
 4448TIP3   OH234758   3.661   3.791  12.205  0.5358  0.1727  0.2734
 4448TIP3    H134759   3.640   3.699  12.188  0.0444  0.2092  0.6688
 4448TIP3    H234760   3.577   3.831  12.228  0.5764  0.9263 -0.8037
 4449TIP3   OH234761   0.048   4.184  11.302  0.0157 -0.5288  0.1700
 4449TIP3    H134762   0.114   4.124  11.268 -0.0327 -0.5238  0.0681
 4449TIP3    H234763   0.079   4.271  11.275 -1.3880 -0.6819 -2.2203
 4450TIP3   OH234764   4.853   0.237  11.127 -0.3828 -0.0191 -0.6520
 4450TIP3    H134765   4.770   0.276  11.155 -0.8723 -1.0035 -0.6928
 4450TIP3    H234766   4.865   0.268  11.038 -0.9872 -0.3028 -0.8384
 4451TIP3   OH234767   3.053   1.603   5.183  0.2967 -0.4762 -0.8613
 4451TIP3    H134768   3.099   1.522   5.207 -0.2336 -0.3279  0.8340
 4451TIP3    H234769   3.057   1.656   5.262 -1.6496  0.0662 -1.0780
 4452TIP3   OH234770   5.415   3.633  16.656  0.0841 -0.4264 -0.0066
 4452TIP3    H134771   5.424   3.538  16.648  0.6220 -0.6359  2.3589
 4452TIP3    H234772   5.332   3.645  16.703  1.0315  0.0984  1.6245
 4453TIP3   OH234773   5.133   3.498   6.069  0.1281 -0.6448 -0.4381
 4453TIP3    H134774   5.147   3.593   6.072 -1.3696 -0.3529 -1.5431
 4453TIP3    H234775   5.208   3.464   6.020  0.7374 -0.0627  0.0630
 4454TIP3   OH234776   0.535   5.230   4.506  0.1231 -0.1835 -0.6915
 4454TIP3    H134777   0.600   5.294   4.478 -0.4876  0.3127 -0.9901
 4454TIP3    H234778   0.461   5.282   4.535 -0.5693 -0.7439 -1.4028
 4455TIP3   OH234779   0.551   2.105  16.333 -0.0618  0.1597  0.0675
 4455TIP3    H134780   0.571   2.047  16.407  0.1713 -0.3942 -0.4192
 4455TIP3    H234781   0.455   2.101  16.325 -0.3674  2.0970  1.8187
 4456TIP3   OH234782   3.348   0.663  12.505  0.0664  0.1981  0.0576
 4456TIP3    H134783   3.302   0.582  12.528  0.5241 -0.1069 -0.1024
 4456TIP3    H234784   3.339   0.718  12.583  1.3611 -0.7240  0.8917
 4457TIP3   OH234785   4.806   1.399  12.009  0.4123 -0.7704  0.0646
 4457TIP3    H134786   4.880   1.442  11.967  0.4162 -0.8322  0.0076
 4457TIP3    H234787   4.731   1.455  11.990  0.6272 -0.1165  1.0477
 4458TIP3   OH234788   1.365   5.185   0.974  0.2386 -0.2562 -0.0999
 4458TIP3    H134789   1.293   5.238   1.008  0.5012  1.7475 -2.3775
 4458TIP3    H234790   1.443   5.220   1.017  0.2546  0.2486 -0.5313
 4459TIP3   OH234791   4.604   2.014   5.442  0.0326  0.9589 -0.0737
 4459TIP3    H134792   4.676   1.985   5.386  1.4922  0.1397  2.0920
 4459TIP3    H234793   4.538   2.048   5.381  1.2598 -0.4019 -2.2855
 4460TIP3   OH234794   4.182   6.269  14.542  0.0005 -0.3471 -0.0565
 4460TIP3    H134795   4.257   6.213  14.562 -0.6106 -1.5211 -0.8999
 4460TIP3    H234796   4.214   6.358  14.557  1.4704 -0.8311 -0.1239
 4461TIP3   OH234797   4.550   0.133  12.053 -0.0348  0.0317  0.2972
 4461TIP3    H134798   4.477   0.075  12.029 -0.1574  1.0515 -2.1056
 4461TIP3    H234799   4.521   0.175  12.134 -1.2969 -0.9551  0.3976
 4462TIP3   OH234800   0.279   3.981  15.559 -0.1939 -0.2293  0.0010
 4462TIP3    H134801   0.308   3.973  15.468 -0.2572  0.7942 -0.1177
 4462TIP3    H234802   0.290   4.074  15.580 -0.5063 -0.3904  0.9325
 4463TIP3   OH234803   3.153   0.727   1.897  0.1079  0.2737  0.0683
 4463TIP3    H134804   3.212   0.764   1.831  0.0765  0.7402  0.2940
 4463TIP3    H234805   3.099   0.664   1.849  0.5782  0.0782 -0.1998
 4464TIP3   OH234806   6.051   1.078  11.684  0.0181 -0.2739  0.0829
 4464TIP3    H134807   6.018   1.164  11.708  0.0144 -0.6860  1.6206
 4464TIP3    H234808   6.001   1.017  11.738  0.9481 -1.1477 -0.0222
 4465TIP3   OH234809   0.831   4.028   5.467 -0.0784  0.0382 -0.1621
 4465TIP3    H134810   0.851   4.050   5.376 -0.0519  1.2489  0.1131
 4465TIP3    H234811   0.738   4.049   5.477 -0.0141  0.1888  0.1533
 4466TIP3   OH234812   5.823   3.459   4.515  0.0854 -0.2890 -0.1320
 4466TIP3    H134813   5.811   3.381   4.461  1.8123  0.2646 -1.3791
 4466TIP3    H234814   5.734   3.485   4.538 -0.5501 -2.3432 -0.0693
 4467TIP3   OH234815   1.487   1.234  13.844  0.0217 -0.3656 -0.4416
 4467TIP3    H134816   1.521   1.318  13.877 -2.4095  1.4629 -2.2381
 4467TIP3    H234817   1.547   1.211  13.773 -0.0687  0.6263 -0.8613
 4468TIP3   OH234818   4.057   1.927   1.797 -0.1238  0.4221  0.1907
 4468TIP3    H134819   4.011   2.005   1.765 -0.4843 -0.1573 -0.7322
 4468TIP3    H234820   4.011   1.853   1.757  0.3260 -0.2652  0.9103
 4469TIP3   OH234821   3.577   0.104   2.671 -0.3410  0.0292  0.3551
 4469TIP3    H134822   3.559   0.096   2.578 -1.4873  2.1295  0.3445
 4469TIP3    H234823   3.668   0.074   2.681 -0.2874 -0.4571 -1.3687
 4470TIP3   OH234824   5.645   0.373  14.756  0.8488  0.2497  0.3347
 4470TIP3    H134825   5.685   0.436  14.816  0.4300  1.3918 -0.5359
 4470TIP3    H234826   5.609   0.427  14.685  0.4700 -0.9772 -0.4465
 4471TIP3   OH234827   2.636   5.060   2.113  0.0802 -0.0920 -0.1488
 4471TIP3    H134828   2.659   5.087   2.202 -2.7809  3.3973 -0.2793
 4471TIP3    H234829   2.545   5.032   2.119 -0.5559  1.3764 -2.1229
 4472TIP3   OH234830   5.939   3.523  11.078 -0.0465  0.6643 -0.5982
 4472TIP3    H134831   5.867   3.483  11.029 -1.0551  0.4994  0.9306
 4472TIP3    H234832   5.966   3.456  11.141 -1.6256  2.1430  1.8646
 4473TIP3   OH234833   2.133   0.532  13.523  0.0859  0.2262 -0.4147
 4473TIP3    H134834   2.188   0.610  13.508 -0.0386  0.7376  1.4975
 4473TIP3    H234835   2.088   0.519  13.440 -0.3595  2.5881 -0.6241
 4474TIP3   OH234836   5.022   1.351  12.428 -0.0714  0.2261 -0.2309
 4474TIP3    H134837   5.064   1.302  12.499 -0.0970 -1.2631 -1.1893
 4474TIP3    H234838   4.965   1.414  12.472  1.0510  0.3752  1.0614
 4475TIP3   OH234839   2.571   6.250  15.103  0.3067 -0.4540 -0.5382
 4475TIP3    H134840   2.553   6.343  15.112 -0.7319 -0.5692 -1.2487
 4475TIP3    H234841   2.626   6.229  15.179  1.2433  0.8837 -0.8006
 4476TIP3   OH234842   4.782   4.540   4.819 -0.5132 -0.0862  0.1810
 4476TIP3    H134843   4.740   4.624   4.802  0.4626  0.4374  0.3237
 4476TIP3    H234844   4.781   4.532   4.915  0.4196  0.3073  0.2325
 4477TIP3   OH234845   4.528   2.132  15.675 -0.0114 -0.1194 -0.0523
 4477TIP3    H134846   4.462   2.074  15.638 -1.9733  0.5194  2.2022
 4477TIP3    H234847   4.517   2.124  15.770  1.2094  2.1775  0.3556
 4478TIP3   OH234848   4.256   2.378   4.948  0.2609 -0.3541 -0.2120
 4478TIP3    H134849   4.302   2.446   4.900 -0.1645 -0.0227 -0.1592
 4478TIP3    H234850   4.190   2.425   4.999  1.9409 -0.4518  2.2405
 4479TIP3   OH234851   2.992   3.327   5.390 -0.5242  0.2462  0.2717
 4479TIP3    H134852   2.942   3.249   5.366 -0.2935  0.2274 -0.1446
 4479TIP3    H234853   2.992   3.381   5.311 -1.3171  1.0127  0.7769
 4480TIP3   OH234854   4.035   4.949  11.576  0.2578 -0.2459 -0.2459
 4480TIP3    H134855   4.045   4.943  11.481 -1.4044 -1.1102 -0.3887
 4480TIP3    H234856   3.979   4.875  11.599  0.5636  0.0059  1.4101
 4481TIP3   OH234857   3.400   3.942   1.798  0.2828  0.0905  0.5362
 4481TIP3    H134858   3.472   3.880   1.787 -0.3083 -0.5556  0.2008
 4481TIP3    H234859   3.323   3.887   1.806 -0.3829  0.7966 -0.6762
 4482TIP3   OH234860   2.433   1.940  13.157  0.2291 -0.1938 -0.3402
 4482TIP3    H134861   2.462   2.010  13.099  0.3245 -1.7488 -2.2705
 4482TIP3    H234862   2.353   1.974  13.197  0.4682  1.1540 -0.9515
 4483TIP3   OH234863   1.998   2.173  16.353 -0.1587 -0.0832  0.2296
 4483TIP3    H134864   1.991   2.267  16.371 -0.1525 -0.0570  0.0992
 4483TIP3    H234865   1.909   2.145  16.335 -0.0272  0.1243 -0.8239
 4484TIP3   OH234866   0.325   3.075   0.908  0.0588  0.0780  0.6237
 4484TIP3    H134867   0.372   3.078   0.825 -0.7917 -0.4254  0.1147
 4484TIP3    H234868   0.392   3.053   0.973  0.5763 -0.3242 -0.0412
 4485TIP3   OH234869   0.285   1.724   3.758  0.2301  0.0711 -0.3791
 4485TIP3    H134870   0.235   1.751   3.834 -0.7571  1.8664 -1.5778
 4485TIP3    H234871   0.289   1.629   3.763 -3.8306 -0.2629 -0.4717
 4486TIP3   OH234872   3.166   3.273   2.495 -0.1628  0.2042 -0.6065
 4486TIP3    H134873   3.216   3.326   2.558 -1.4750 -0.0206  0.6911
 4486TIP3    H234874   3.075   3.302   2.508 -0.7082 -1.2905 -0.9502
 4487TIP3   OH234875   6.220   4.143  13.680 -0.1430 -0.2418  0.3747
 4487TIP3    H134876   6.219   4.227  13.726  1.0368 -0.7929  1.4623
 4487TIP3    H234877   6.128   4.120  13.671 -0.4312 -0.0471  2.3962
 4488TIP3   OH234878   3.729   6.489   5.498 -0.2430  0.1643 -0.0193
 4488TIP3    H134879   3.811   6.531   5.474 -0.0286 -0.1532  0.1509
 4488TIP3    H234880   3.753   6.399   5.521 -0.6297  0.0808  0.0777
 4489TIP3   OH234881   4.107   5.710   0.316  0.1458  0.0065 -0.0757
 4489TIP3    H134882   4.192   5.710   0.360  0.4244 -1.4258 -0.5650
 4489TIP3    H234883   4.053   5.770   0.368  0.8026 -0.7361  1.5299
 4490TIP3   OH234884   5.676   2.102  16.985 -0.1470 -0.0355 -0.1880
 4490TIP3    H134885   5.646   2.181  16.939  0.9222 -0.2243 -1.2586
 4490TIP3    H234886   5.744   2.066  16.928  1.2659 -0.2664  1.5643
 4491TIP3   OH234887   0.788   1.761  17.374 -0.2388  0.4251  0.0107
 4491TIP3    H134888   0.873   1.762  17.420 -1.1721 -1.4489  1.9822
 4491TIP3    H234889   0.811   1.771  17.282  1.8031  4.0515  0.6761
 4492TIP3   OH234890   3.143   4.356   1.271 -0.2624 -0.0447 -0.1154
 4492TIP3    H134891   3.051   4.335   1.259 -0.2163  0.6941 -2.1682
 4492TIP3    H234892   3.175   4.290   1.332 -2.2606  0.0525  1.1271
 4493TIP3   OH234893   6.578   1.937  11.694 -1.3788  0.2194 -0.3186
 4493TIP3    H134894   6.560   1.897  11.609  1.1403  0.8964 -1.2640
 4493TIP3    H234895   6.644   1.881  11.734 -1.2792  0.8493  0.4296
 4494TIP3   OH234896   3.810   1.454   2.278  0.0908 -0.1778  0.2385
 4494TIP3    H134897   3.902   1.436   2.294  0.2174 -0.0842 -0.3409
 4494TIP3    H234898   3.799   1.440   2.184 -0.5161 -0.3186  0.3265
 4495TIP3   OH234899   5.037   3.681   0.657  0.0684  0.2441  0.3732
 4495TIP3    H134900   5.079   3.732   0.588  0.9281 -1.7240 -0.6557
 4495TIP3    H234901   4.944   3.682   0.634  0.4320 -1.1258 -1.4212
 4496TIP3   OH234902   6.666   0.029  15.217 -0.3474 -0.2059 -0.1230
 4496TIP3    H134903   6.733   0.093  15.241 -2.0360  1.0559  1.5765
 4496TIP3    H234904   6.705  -0.056  15.238  1.6117  0.2585 -1.5904
 4497TIP3   OH234905   3.380   0.231   2.858  0.4020  0.1702 -0.1823
 4497TIP3    H134906   3.442   0.195   2.794 -0.1257 -0.5821 -0.2835
 4497TIP3    H234907   3.308   0.265   2.804  0.4167  0.4473 -0.0304
 4498TIP3   OH234908   3.738   5.073   4.623 -0.3070  0.1601 -0.1941
 4498TIP3    H134909   3.759   5.139   4.557 -0.1488  0.4481  0.1405
 4498TIP3    H234910   3.698   5.001   4.573  0.1972  0.1943 -0.6540
 4499TIP3   OH234911   3.836   4.657   2.603 -0.2188 -0.3796 -0.7840
 4499TIP3    H134912   3.784   4.701   2.536  1.3450  0.2560 -1.6265
 4499TIP3    H234913   3.780   4.657   2.681 -1.1764  0.9680 -1.4349
 4500TIP3   OH234914   5.555   3.074   5.353 -0.2008  0.0691  0.2148
 4500TIP3    H134915   5.557   3.093   5.447 -0.7102  0.1964  0.2063
 4500TIP3    H234916   5.461   3.069   5.332 -0.0955  0.5957 -0.3979
 4501TIP3   OH234917   1.910   1.592  14.756 -0.4018 -0.0369  0.4768
 4501TIP3    H134918   1.827   1.547  14.771 -1.0033  1.3451  1.4822
 4501TIP3    H234919   1.976   1.524  14.769 -1.3623 -1.7138 -2.4677
 4502TIP3   OH234920   0.568   6.663  13.097  0.3254 -0.4603 -0.1189
 4502TIP3    H134921   0.562   6.751  13.059  1.7542 -0.0649  0.5100
 4502TIP3    H234922   0.599   6.608  13.025  0.0143 -0.3392 -0.3494
 4503TIP3   OH234923   5.245   3.699  15.526 -0.2980  0.1454  0.7869
 4503TIP3    H134924   5.290   3.614  15.521 -0.3135  0.1438  0.6577
 4503TIP3    H234925   5.261   3.738  15.440 -1.0379 -0.1011  0.5279
 4504TIP3   OH234926   0.389   0.626  15.487 -0.0693 -0.3203  0.0632
 4504TIP3    H134927   0.478   0.662  15.494 -0.0860 -0.3864  0.6570
 4504TIP3    H234928   0.390   0.576  15.405  0.0292  0.8088 -0.6562
 4505TIP3   OH234929   1.500   3.005   4.647 -0.4926  0.2929  0.2252
 4505TIP3    H134930   1.526   3.032   4.736 -0.6268  0.9935  0.0538
 4505TIP3    H234931   1.463   3.084   4.608 -0.8170 -0.1255 -0.3152
 4506TIP3   OH234932   4.522   2.482  16.198  0.0487  0.5096 -0.3487
 4506TIP3    H134933   4.474   2.478  16.281  0.5808  2.4189  0.0949
 4506TIP3    H234934   4.596   2.423  16.210  0.0518  0.6801  0.4906
 4507TIP3   OH234935   1.338   0.045   4.356  0.7932  0.0429  0.0407
 4507TIP3    H134936   1.290  -0.012   4.296  1.2833 -1.7549  1.3141
 4507TIP3    H234937   1.270   0.101   4.395 -0.0779 -1.4045  0.6610
 4508TIP3   OH234938   5.092   4.122   0.729 -0.5771  0.3174  0.5483
 4508TIP3    H134939   5.083   4.028   0.744 -0.2782  0.3627  1.0135
 4508TIP3    H234940   5.109   4.159   0.815  1.7362  0.5218  0.0723
 4509TIP3   OH234941   6.603   4.424   1.677 -0.4665  0.4982  0.0749
 4509TIP3    H134942   6.599   4.428   1.582 -0.2006  0.5939  0.0667
 4509TIP3    H234943   6.610   4.331   1.697 -1.0465  0.4408  0.0245
 4510TIP3   OH234944   4.210   5.090   6.486  0.1582 -0.4099  0.3104
 4510TIP3    H134945   4.153   5.013   6.490  0.0099 -0.2603  1.6709
 4510TIP3    H234946   4.282   5.069   6.545  1.3358 -0.4400 -1.1134
 4511TIP3   OH234947   4.085   0.956  12.053  0.7265  0.5182  0.5274
 4511TIP3    H134948   4.139   1.031  12.030  2.6629 -0.9331  0.0536
 4511TIP3    H234949   4.139   0.905  12.114  1.2491 -2.4376 -2.1097
 4512TIP3   OH234950   6.293   2.537  16.574  0.7637 -0.4287  0.4299
 4512TIP3    H134951   6.206   2.504  16.553  0.8450 -0.8113  0.6830
 4512TIP3    H234952   6.334   2.466  16.623  1.0600 -0.0761  0.6969
 4513TIP3   OH234953   3.354   6.654  14.862  0.0542  0.3548 -0.1808
 4513TIP3    H134954   3.307   6.572  14.875  1.5652 -0.4281  0.6299
 4513TIP3    H234955   3.412   6.661  14.937  0.2105  2.0133 -0.4130
 4514TIP3   OH234956   0.619   0.464  15.649  0.1114  0.5552 -0.4481
 4514TIP3    H134957   0.616   0.530  15.580  1.2250  1.5659  0.4409
 4514TIP3    H234958   0.617   0.514  15.730 -2.6211 -0.6539  0.3618
 4515TIP3   OH234959   3.508   1.525  15.546 -0.1536  0.0400  0.5491
 4515TIP3    H134960   3.522   1.618  15.527  0.9387 -0.0770  0.7248
 4515TIP3    H234961   3.498   1.522  15.641  1.8902 -0.2371  0.7990
 4516TIP3   OH234962   6.492   5.212   0.245  0.2569  0.3534 -0.2884
 4516TIP3    H134963   6.422   5.214   0.310  1.1961 -1.2112  0.8315
 4516TIP3    H234964   6.466   5.144   0.183  1.3873 -1.2589  0.9232
 4517TIP3   OH234965   4.487   4.813   6.419 -0.1034  0.0899 -0.5961
 4517TIP3    H134966   4.471   4.897   6.375 -0.3420  0.4159  0.1041
 4517TIP3    H234967   4.411   4.760   6.397 -0.9105  0.7350  0.5609
 4518TIP3   OH234968   1.800   2.009   5.177 -0.9604 -0.6124 -0.1178
 4518TIP3    H134969   1.812   1.933   5.234  0.7654 -0.7093 -0.5503
 4518TIP3    H234970   1.833   2.082   5.229 -0.1907 -0.5724 -0.6486
 4519TIP3   OH234971   2.519   1.130  16.724  0.2745 -0.2678 -0.5752
 4519TIP3    H134972   2.516   1.129  16.628 -2.4891 -1.8481 -0.5713
 4519TIP3    H234973   2.573   1.055  16.747  2.0610  0.8775 -0.8267
 4520TIP3   OH234974   2.471   5.392  16.670 -0.4362 -0.3319  0.5435
 4520TIP3    H134975   2.393   5.423  16.623 -0.0715 -0.3391 -0.0710
 4520TIP3    H234976   2.502   5.318  16.618 -0.2721 -0.6077  1.0349
 4521TIP3   OH234977   0.306   3.292  12.549  0.0217 -0.5225 -0.1500
 4521TIP3    H134978   0.362   3.323  12.478  0.0903 -1.7322 -0.6561
 4521TIP3    H234979   0.351   3.319  12.629  0.0198  0.7190 -0.5537
 4522TIP3   OH234980   2.672   5.660  15.365 -0.0973 -0.3116  0.1856
 4522TIP3    H134981   2.617   5.641  15.289  0.5091  0.4037 -0.4555
 4522TIP3    H234982   2.758   5.624  15.342  0.5940  1.5204 -0.3045
 4523TIP3   OH234983   1.121   3.766  16.876  0.4174  0.5982 -0.4501
 4523TIP3    H134984   1.095   3.724  16.958  0.7371 -0.2628 -0.7782
 4523TIP3    H234985   1.046   3.819  16.851 -0.0106  0.1997 -0.0257
 4524TIP3   OH234986   5.169   1.569   0.002 -0.4060 -0.2178 -0.1170
 4524TIP3    H134987   5.252   1.600   0.038 -0.9063  1.8592 -0.6009
 4524TIP3    H234988   5.171   1.598  -0.089 -1.0408 -1.4740 -0.5458
 4525TIP3   OH234989   5.377   6.437  12.720 -0.0959 -0.0852  0.3156
 4525TIP3    H134990   5.341   6.480  12.642 -0.6520  1.3521  1.3058
 4525TIP3    H234991   5.308   6.376  12.747 -0.3361  0.1452  0.2366
 4526TIP3   OH234992   2.424   0.724   1.973  0.2701  0.1403 -0.3202
 4526TIP3    H134993   2.417   0.746   1.880 -1.2975 -2.2403 -0.8639
 4526TIP3    H234994   2.518   0.712   1.988  0.5438  0.5466 -1.5843
 4527TIP3   OH234995   3.118   0.017  15.169  0.0553  0.0095 -0.2120
 4527TIP3    H134996   3.183   0.061  15.224 -0.5412  2.2686 -1.1656
 4527TIP3    H234997   3.155  -0.069  15.152  0.7055 -0.4276  2.8613
 4528TIP3   OH234998   5.491   5.422   1.448  0.0070  0.0870  0.4688
 4528TIP3    H134999   5.569   5.405   1.395  0.9444  1.1344  1.4641
 4528TIP3    H235000   5.419   5.423   1.385  0.8292 -0.5976 -0.5098
 4529TIP3   OH235001   0.458   1.443  15.144 -0.3151  0.0199  0.7946
 4529TIP3    H135002   0.422   1.532  15.139  0.3207  0.2834  0.8412
 4529TIP3    H235003   0.442   1.405  15.058 -0.7437  0.1179  0.8291
 4530TIP3   OH235004   5.437   6.556  14.989 -0.1276  0.8495 -0.4716
 4530TIP3    H135005   5.472   6.537  14.902 -2.3112  1.1158 -1.4760
 4530TIP3    H235006   5.479   6.639  15.013 -0.4591  1.4738 -1.8882
 4531TIP3   OH235007   3.057   6.657   3.881 -0.0962 -0.4303  0.1422
 4531TIP3    H135008   3.021   6.597   3.815  0.3055 -0.8976  0.3410
 4531TIP3    H235009   3.147   6.674   3.852 -0.1999  0.0659  0.0984
 4532TIP3   OH235010   2.213   3.749  12.071  0.0659  0.0879 -0.0683
 4532TIP3    H135011   2.190   3.742  12.164  0.0603  0.7420 -0.0164
 4532TIP3    H235012   2.154   3.688  12.027 -1.0882  0.9934  0.1761
 4533TIP3   OH235013   1.902   0.297  13.622  0.3095  0.3094  0.5238
 4533TIP3    H135014   1.989   0.265  13.644  0.6404  0.0022 -1.0773
 4533TIP3    H235015   1.876   0.350  13.697  2.7100  2.0705  0.2402
 4534TIP3   OH235016   2.800   6.440   4.325  0.1862 -0.1430  0.3448
 4534TIP3    H135017   2.761   6.371   4.271  4.2560 -2.1802 -0.4324
 4534TIP3    H235018   2.813   6.400   4.411  1.8876 -0.1752  0.1132
 4535TIP3   OH235019   1.405   2.106  15.265 -0.5915 -0.3049  0.4997
 4535TIP3    H135020   1.312   2.113  15.289 -0.4098 -0.0440  1.1451
 4535TIP3    H235021   1.438   2.195  15.268 -0.2032 -0.4534  0.7547
 4536TIP3   OH235022   1.526   3.237  15.179 -0.1070 -0.3618  0.7997
 4536TIP3    H135023   1.480   3.243  15.096 -0.6042 -2.0410  0.9235
 4536TIP3    H235024   1.564   3.324  15.191 -0.8891  0.2255 -0.6632
 4537TIP3   OH235025   6.284   5.573  11.900 -0.0324 -0.0860  0.2861
 4537TIP3    H135026   6.327   5.488  11.910 -0.7747 -0.2897  1.9989
 4537TIP3    H235027   6.253   5.573  11.809 -0.6414 -1.9530  0.4375
 4538TIP3   OH235028   3.694   5.683  12.973  0.1131 -0.4589 -0.6546
 4538TIP3    H135029   3.611   5.673  12.925 -0.6147 -0.9494  0.6608
 4538TIP3    H235030   3.704   5.778  12.981 -0.2485 -0.3889 -0.9477
 4539TIP3   OH235031   1.852   1.157  14.204  0.2043 -0.1981  0.3211
 4539TIP3    H135032   1.795   1.080  14.202 -1.5936  1.0712  0.3261
 4539TIP3    H235033   1.875   1.168  14.296 -1.0664  0.3360  0.5815
 4540TIP3   OH235034   6.616   1.353  11.271  0.3156 -0.1091  0.2731
 4540TIP3    H135035   6.542   1.308  11.231 -0.7691  1.6084  0.2339
 4540TIP3    H235036   6.580   1.393  11.350  1.1640  0.8412  0.1992
 4541TIP3   OH235037   3.133   4.743  11.780  0.3970 -0.2451  0.1839
 4541TIP3    H135038   3.096   4.666  11.823  0.2528  0.0443  0.5853
 4541TIP3    H235039   3.108   4.816  11.837  1.0118  0.0296  0.1075
 4542TIP3   OH235040   4.479   2.770  14.765  0.1094  0.0343 -0.3293
 4542TIP3    H135041   4.427   2.728  14.696  0.2356  0.5978 -0.7793
 4542TIP3    H235042   4.562   2.793  14.721  1.9021 -3.2631  1.0018
 4543TIP3   OH235043   3.199   3.308  14.955  0.5327  0.3393  0.8321
 4543TIP3    H135044   3.124   3.365  14.937 -0.9021 -0.3958  3.7475
 4543TIP3    H235045   3.160   3.222  14.967  1.8783 -0.1253  2.1177
 4544TIP3   OH235046   5.077   3.838   0.405 -0.4445 -0.3572  0.2940
 4544TIP3    H135047   5.135   3.908   0.433 -0.0865 -0.6318  0.2462
 4544TIP3    H235048   5.132   3.781   0.352 -1.2643  0.5612 -1.6677
 4545TIP3   OH235049   1.399   3.110   1.646 -0.2962 -0.2415  0.0940
 4545TIP3    H135050   1.452   3.174   1.693 -2.1890  2.1206 -0.7587
 4545TIP3    H235051   1.381   3.041   1.710  1.3850  0.2967  1.2184
 4546TIP3   OH235052   3.131   3.029  14.953  0.3899  0.3362  0.2147
 4546TIP3    H135053   3.194   2.959  14.935 -1.0740 -1.1015  0.4405
 4546TIP3    H235054   3.071   2.991  15.017 -2.0284  0.7751 -1.6148
 4547TIP3   OH235055   1.963   5.525  10.721  0.2531  0.0348 -0.2663
 4547TIP3    H135056   1.923   5.612  10.712 -0.1982 -0.2428 -1.1738
 4547TIP3    H235057   1.897   5.465  10.685  1.4105 -0.4559 -1.7171
 4548TIP3   OH235058   5.997   0.614   4.946  0.2094 -0.1178  0.1205
 4548TIP3    H135059   5.907   0.633   4.972  0.4267  1.2279 -0.0628
 4548TIP3    H235060   6.024   0.543   5.004 -0.4240  0.5588  1.2748
 4549TIP3   OH235061   0.615   1.114  12.823  0.5262 -0.2893 -0.5439
 4549TIP3    H135062   0.617   1.027  12.863  1.0044 -0.7541 -1.5515
 4549TIP3    H235063   0.641   1.100  12.732  1.6867  1.0653 -0.4619
 4550TIP3   OH235064   1.932   4.927  16.707  0.2322  0.3416  0.2802
 4550TIP3    H135065   1.869   4.994  16.680  0.8501  1.1525  0.8018
 4550TIP3    H235066   1.994   4.922  16.634 -1.0646 -1.3218 -0.7727
 4551TIP3   OH235067   3.523   4.483   1.016  0.0208 -0.0877 -0.7574
 4551TIP3    H135068   3.481   4.503   1.100  0.8565  1.9316 -0.7489
 4551TIP3    H235069   3.450   4.464   0.956 -0.5232 -3.3862  0.7545
 4552TIP3   OH235070   1.880   2.628   3.534  0.0984 -0.1482  0.0079
 4552TIP3    H135071   1.902   2.538   3.558 -0.6367 -0.1130  0.8857
 4552TIP3    H235072   1.816   2.619   3.463 -0.2920 -0.3468  0.3732
 4553TIP3   OH235073   6.009   5.899   2.758  0.3542  0.6558 -0.6858
 4553TIP3    H135074   6.083   5.928   2.812 -0.8683  0.5444  1.1237
 4553TIP3    H235075   6.008   5.804   2.768 -0.4952  0.7223 -0.0458
 4554TIP3   OH235076   5.369   3.641   1.405  0.0568 -0.2249 -0.1747
 4554TIP3    H135077   5.318   3.673   1.479 -0.1688  0.0081 -0.4280
 4554TIP3    H235078   5.414   3.563   1.439  0.4090  0.2045  0.3704
 4555TIP3   OH235079   2.773   0.263   3.363 -0.3312  0.1467 -0.5274
 4555TIP3    H135080   2.749   0.355   3.352 -0.6979  0.3983  1.8501
 4555TIP3    H235081   2.851   0.252   3.309 -1.5672  1.2219 -2.6467
 4556TIP3   OH235082   3.380   0.617  10.605 -0.0004  0.4065 -0.1173
 4556TIP3    H135083   3.441   0.689  10.590 -0.7140  1.2943  1.0769
 4556TIP3    H235084   3.434   0.548  10.643  0.2455  1.3136  1.2724
 4557TIP3   OH235085   1.535   1.086   4.048  0.2047  0.2072  0.0602
 4557TIP3    H135086   1.472   1.123   3.986  0.0654 -2.3584 -1.4474
 4557TIP3    H235087   1.601   1.045   3.993  1.7237  0.4434  1.6444
 4558TIP3   OH235088   6.697   5.443   3.397  0.1155  0.7239 -0.3382
 4558TIP3    H135089   6.791   5.449   3.385  0.0254  1.0157 -0.9288
 4558TIP3    H235090   6.685   5.371   3.458  0.7243  0.7420 -0.1925
 4559TIP3   OH235091   0.759   1.947  16.210 -0.1822 -0.3813  0.6018
 4559TIP3    H135092   0.808   1.943  16.293 -0.6344 -0.8857  0.8470
 4559TIP3    H235093   0.704   2.025  16.219  1.2796  0.7960 -0.0848
 4560TIP3   OH235094   5.929   1.399   4.934 -0.1430 -0.0238  0.3225
 4560TIP3    H135095   5.990   1.459   4.891  0.3113 -1.1360 -0.6323
 4560TIP3    H235096   5.902   1.338   4.865 -0.8813 -0.6978  1.1756
 4561TIP3   OH235097   2.535   4.469  15.644 -0.7479  0.3641  0.2581
 4561TIP3    H135098   2.500   4.380  15.639  1.8062 -0.7550  0.2949
 4561TIP3    H235099   2.628   4.456  15.664 -0.2763  3.0572  0.1392
 4562TIP3   OH235100   1.848   3.609   2.457 -0.1603  0.5797 -0.1149
 4562TIP3    H135101   1.825   3.609   2.364 -0.6848  0.5972  0.0073
 4562TIP3    H235102   1.906   3.534   2.468 -0.2333  0.4756 -0.4249
 4563TIP3   OH235103   1.612   0.544   5.021  0.4537  0.3399 -0.5046
 4563TIP3    H135104   1.638   0.627   5.060  3.1669 -0.2760 -0.8247
 4563TIP3    H235105   1.668   0.535   4.944 -0.5724 -1.2947 -1.1164
 4564TIP3   OH235106   2.369   5.708  11.932  0.0922 -0.5025 -0.1112
 4564TIP3    H135107   2.382   5.745  11.845  0.6871  0.6291  0.4432
 4564TIP3    H235108   2.294   5.649  11.922 -0.6899  0.6204 -1.0921
 4565TIP3   OH235109   1.840   0.358  12.111 -0.4855 -0.1684 -0.1663
 4565TIP3    H135110   1.758   0.346  12.158 -0.4736 -3.3762 -0.7818
 4565TIP3    H235111   1.831   0.307  12.031  1.3619  1.1015 -1.2821
 4566TIP3   OH235112   1.279   6.774   5.660 -0.2628  0.2105  0.1735
 4566TIP3    H135113   1.186   6.763   5.682 -0.1815 -0.6666  0.0872
 4566TIP3    H235114   1.291   6.725   5.579 -0.5032  3.1917 -1.8364
 4567TIP3   OH235115   1.342   6.224  10.786  0.1446 -0.0132 -0.2727
 4567TIP3    H135116   1.347   6.257  10.876 -0.8548  0.7096 -0.4577
 4567TIP3    H235117   1.292   6.291  10.739  1.5298  0.1191 -1.6198
 4568TIP3   OH235118   4.228   5.732  12.241  0.0501 -0.3407 -0.0615
 4568TIP3    H135119   4.294   5.675  12.203  0.4320 -0.0949  0.2205
 4568TIP3    H235120   4.150   5.719  12.187  0.4636 -0.2867 -0.6800
 4569TIP3   OH235121   1.520   3.181   2.295 -0.5798  0.2255 -0.0029
 4569TIP3    H135122   1.511   3.271   2.326 -0.7216  0.3370 -0.3634
 4569TIP3    H235123   1.563   3.135   2.367  0.3800  0.8046 -0.1858
 4570TIP3   OH235124   6.036   1.462  11.007 -0.0845 -0.0318 -0.1897
 4570TIP3    H135125   6.130   1.445  11.000  0.3074  0.7859  2.1428
 4570TIP3    H235126   6.030   1.554  11.035 -1.1716 -1.3847  5.1675
 4571TIP3   OH235127   1.011   4.521   1.787 -0.1290 -0.4105 -0.2026
 4571TIP3    H135128   0.954   4.566   1.849 -1.8644 -1.0789 -1.2341
 4571TIP3    H235129   1.046   4.591   1.732  0.2409  0.0345  0.5828
 4572TIP3   OH235130   2.117   2.898   4.933  0.1831 -0.4130 -0.5776
 4572TIP3    H135131   2.115   2.959   4.860 -2.5945  2.2618  1.4626
 4572TIP3    H235132   2.032   2.854   4.930  0.7302 -1.5588  0.0556
 4573TIP3   OH235133   5.811   0.051   0.032  0.1292  0.3485 -0.3042
 4573TIP3    H135134   5.729   0.026  -0.011  0.5174  2.3287 -2.3523
 4573TIP3    H235135   5.803   0.014   0.120 -3.7468  1.8223  0.1935
 4574TIP3   OH235136   4.341   6.645  11.214 -0.7334 -0.0159 -0.2167
 4574TIP3    H135137   4.338   6.592  11.294 -0.3175 -0.8316 -0.7413
 4574TIP3    H235138   4.432   6.673  11.207 -0.8363  0.3232 -0.2396
 4575TIP3   OH235139   0.760   2.514   1.011  0.0763 -0.1864 -0.1330
 4575TIP3    H135140   0.709   2.511   1.092 -0.9296  0.5309 -0.7178
 4575TIP3    H235141   0.781   2.606   0.999  2.3283 -0.5610  0.5559
 4576TIP3   OH235142   3.151   0.699  16.417 -0.0570 -0.0293  0.2121
 4576TIP3    H135143   3.128   0.607  16.404  0.3505 -0.3228  1.4053
 4576TIP3    H235144   3.079   0.735  16.469 -1.1744  0.8532 -1.8439
 4577TIP3   OH235145   4.650   2.101   3.240  0.9417 -0.9890  0.0289
 4577TIP3    H135146   4.705   2.142   3.173  0.9995  0.9576  1.1908
 4577TIP3    H235147   4.572   2.072   3.193  0.8440  0.6051 -0.8513
 4578TIP3   OH235148   2.880   4.291   5.367  0.2143 -0.0850 -0.1047
 4578TIP3    H135149   2.817   4.344   5.417 -1.0914 -1.4705 -0.1752
 4578TIP3    H235150   2.851   4.201   5.382  0.4454 -0.6168 -2.4629
 4579TIP3   OH235151   4.870   5.223   5.860  0.3402  0.1497 -0.0041
 4579TIP3    H135152   4.899   5.138   5.892 -2.2383  0.0858  2.6457
 4579TIP3    H235153   4.805   5.203   5.793  0.9804  0.1101 -0.6232
 4580TIP3   OH235154   0.252   1.080   4.068 -0.9835  0.1146  0.1537
 4580TIP3    H135155   0.230   1.009   4.007 -0.8474  0.3737 -0.2001
 4580TIP3    H235156   0.172   1.095   4.118 -1.2679  0.2783 -0.3447
 4581TIP3   OH235157   6.707   5.241  13.996 -0.1297 -0.5109 -0.1053
 4581TIP3    H135158   6.625   5.230  14.045  0.5194  0.5118  1.2906
 4581TIP3    H235159   6.751   5.156  14.005 -1.2538 -1.2646 -1.3554
 4582TIP3   OH235160   5.970   0.090  15.879 -0.1536  0.0495  0.1338
 4582TIP3    H135161   5.933   0.005  15.902  0.8794 -0.7041 -0.8904
 4582TIP3    H235162   5.985   0.133  15.963 -1.0591 -0.6175  0.6482
 4583TIP3   OH235163   5.286   5.981  10.803  0.6135 -0.1301 -0.7365
 4583TIP3    H135164   5.238   5.913  10.755  0.3980 -0.1824 -0.4476
 4583TIP3    H235165   5.327   6.034  10.734  1.1051 -0.7821 -0.9519
 4584TIP3   OH235166   5.326   1.561  12.273  0.3194  0.0705  0.1135
 4584TIP3    H135167   5.346   1.643  12.318  1.2799 -0.3693  0.5167
 4584TIP3    H235168   5.236   1.542  12.298  0.2629  0.7324  0.4475
 4585TIP3   OH235169   3.858   3.988  12.630 -0.1554  0.2133 -0.4386
 4585TIP3    H135170   3.856   3.930  12.554  0.7919 -1.2269  0.6099
 4585TIP3    H235171   3.942   4.033  12.624 -0.7559  1.3203 -1.0770
 4586TIP3   OH235172   4.072   4.563   5.846 -0.0204 -0.2634 -0.0149
 4586TIP3    H135173   4.098   4.651   5.818  0.4275  0.1897  1.7279
 4586TIP3    H235174   4.011   4.578   5.918  0.2946 -1.3809  0.5005
 4587TIP3   OH235175   2.925   6.513   3.637 -0.3060 -0.2629  0.4244
 4587TIP3    H135176   3.005   6.477   3.599 -0.0208  0.4747  0.2943
 4587TIP3    H235177   2.889   6.569   3.568  0.1937  1.0539  1.1843
 4588TIP3   OH235178   6.095   6.479  14.531 -0.6251  0.1803 -0.3888
 4588TIP3    H135179   6.189   6.476  14.514 -0.3368 -1.0928  1.2238
 4588TIP3    H235180   6.088   6.508  14.622 -1.6667 -2.0071  0.2805
 4589TIP3   OH235181   1.077   0.090   3.793 -0.1543 -0.3469  0.4257
 4589TIP3    H135182   1.015   0.019   3.777 -2.7193  1.8125  0.1755
 4589TIP3    H235183   1.100   0.122   3.705 -2.6656  2.0090  0.5203
 4590TIP3   OH235184   4.946   1.177   2.152 -0.2206 -0.1961  0.2297
 4590TIP3    H135185   4.897   1.133   2.083  3.1466 -0.6350 -2.1101
 4590TIP3    H235186   4.941   1.270   2.131 -0.0102 -0.2479 -0.0528
 4591TIP3   OH235187   4.518   3.145  13.286  0.2634  0.0981 -0.0635
 4591TIP3    H135188   4.549   3.132  13.375 -0.0485 -0.2797 -0.0080
 4591TIP3    H235189   4.594   3.180  13.239  0.1516  1.2621  0.5762
 4592TIP3   OH235190   4.532   2.836  14.320 -0.0839 -0.4185 -0.5074
 4592TIP3    H135191   4.454   2.796  14.357  0.0637  0.3625  0.6950
 4592TIP3    H235192   4.588   2.853  14.396  0.7426  0.1283 -1.2284
 4593TIP3   OH235193   4.028   5.469  13.730 -0.1578 -0.3243  0.2661
 4593TIP3    H135194   3.970   5.434  13.798 -2.0787  0.6904 -0.7726
 4593TIP3    H235195   4.103   5.409  13.730 -0.9317 -1.3832  2.0250
 4594TIP3   OH235196   1.759   1.837   5.910  0.5367  0.2390 -0.2620
 4594TIP3    H135197   1.828   1.772   5.896  1.1032  0.5856  0.7542
 4594TIP3    H235198   1.806   1.921   5.917  0.1815  0.3191  1.7158
 4595TIP3   OH235199   1.818   4.034   2.679 -0.3700 -0.2788 -0.4199
 4595TIP3    H135200   1.796   4.035   2.772  2.3691  0.2050  0.3169
 4595TIP3    H235201   1.795   3.946   2.650  0.0985 -0.9409  1.1126
 4596TIP3   OH235202   0.356   2.456   4.612 -0.1139 -0.0027 -0.3980
 4596TIP3    H135203   0.404   2.494   4.686 -1.4121  1.4848 -0.2485
 4596TIP3    H235204   0.369   2.362   4.621 -0.2308  0.1171  1.7680
 4597TIP3   OH235205   5.894   6.737  15.115  0.1624  0.4287 -0.7142
 4597TIP3    H135206   5.870   6.787  15.036  1.2019 -0.0716 -1.3674
 4597TIP3    H235207   5.846   6.780  15.186  0.0436  1.5656 -1.4519
 4598TIP3   OH235208   2.869   1.783  13.352 -0.2839 -0.2965 -0.2389
 4598TIP3    H135209   2.865   1.687  13.350  2.9896 -0.5372 -0.1267
 4598TIP3    H235210   2.909   1.803  13.437  0.9240  1.0231 -1.0845
 4599TIP3   OH235211   3.319   2.127   3.217 -0.0286 -0.0903 -0.2132
 4599TIP3    H135212   3.340   2.036   3.192  0.3109 -0.1609  0.3228
 4599TIP3    H235213   3.344   2.133   3.309 -0.9289  0.2802  0.0209
 4600TIP3   OH235214   6.067   1.199  17.047  0.6491  0.2331  0.4702
 4600TIP3    H135215   6.040   1.230  16.960  1.5082  0.1441  0.1575
 4600TIP3    H235216   6.156   1.232  17.057  0.6520  0.0207  1.2175
 4601TIP3   OH235217   0.642   4.043  11.576  0.4172 -0.5430  0.2758
 4601TIP3    H135218   0.608   3.977  11.636 -2.0123 -1.4219 -1.8961
 4601TIP3    H235219   0.711   3.999  11.528  1.0007 -0.4583  1.0211
 4602TIP3   OH235220   1.813   0.626   0.095 -0.1309 -0.5743 -0.1962
 4602TIP3    H135221   1.845   0.627   0.005  0.2225  1.3250 -0.0992
 4602TIP3    H235222   1.727   0.586   0.090 -0.1738 -0.3634 -1.4111
 4603TIP3   OH235223   4.166   0.377   3.068  0.2906 -0.3586  0.5681
 4603TIP3    H135224   4.195   0.346   2.982 -2.4319 -2.8641  0.3997
 4603TIP3    H235225   4.241   0.427   3.102  1.9484 -0.3883 -2.6491
 4604TIP3   OH235226   1.373   5.703  11.806 -0.1979  0.4861 -0.0655
 4604TIP3    H135227   1.292   5.655  11.791  1.4031 -2.2265 -0.7309
 4604TIP3    H235228   1.374   5.719  11.901 -0.1733 -2.1852  0.4666
 4605TIP3   OH235229   3.061   5.509   0.527  0.0958 -0.0977  0.7211
 4605TIP3    H135230   3.155   5.500   0.517  0.0650  0.1323  0.2037
 4605TIP3    H235231   3.034   5.431   0.575  0.3091 -1.0523 -0.6686
 4606TIP3   OH235232   3.608   1.586   5.348  0.2003  0.2129 -0.4405
 4606TIP3    H135233   3.613   1.537   5.430 -1.2943  1.4129  0.4275
 4606TIP3    H235234   3.660   1.665   5.364  0.9194 -0.0989 -1.1175
 4607TIP3   OH235235   5.833   2.652   1.751  0.3330 -0.8337 -0.1756
 4607TIP3    H135236   5.844   2.708   1.827  0.6513  0.7448 -1.3267
 4607TIP3    H235237   5.905   2.677   1.693  0.4811 -2.4533 -0.7362
 4608TIP3   OH235238   5.151   0.320  16.884  0.2745 -0.6271 -0.1180
 4608TIP3    H135239   5.197   0.253  16.934 -0.1571 -0.1406  0.9511
 4608TIP3    H235240   5.211   0.395  16.883  0.8689 -1.0904 -1.5380
 4609TIP3   OH235241   3.240   1.672   4.987  0.0106  0.4219  0.0209
 4609TIP3    H135242   3.288   1.589   4.988  0.6622  0.7841  1.3369
 4609TIP3    H235243   3.168   1.659   5.049 -0.3534  0.5859 -0.3628
 4610TIP3   OH235244   4.485   4.279  14.167 -0.3647 -0.1011  0.0361
 4610TIP3    H135245   4.485   4.255  14.075 -0.2887 -0.7790  0.2058
 4610TIP3    H235246   4.458   4.200  14.213 -2.7739  0.8837  0.4520
 4611TIP3   OH235247   1.990   3.204   1.645 -0.0838 -0.3744 -0.1066
 4611TIP3    H135248   1.905   3.231   1.610  0.6752  2.4460 -0.0106
 4611TIP3    H235249   1.968   3.146   1.718 -1.9294  0.0560 -0.2652
 4612TIP3   OH235250   6.103   2.780   0.918  0.0374 -0.0975 -0.2012
 4612TIP3    H135251   6.041   2.822   0.858 -0.7066  0.9233  1.2071
 4612TIP3    H235252   6.051   2.714   0.964  0.4991 -0.5955 -0.3819
 4613TIP3   OH235253   1.320   0.372   1.796 -0.5717 -0.2544  0.6642
 4613TIP3    H135254   1.412   0.346   1.787 -0.1376  1.2961  0.4190
 4613TIP3    H235255   1.323   0.452   1.848 -1.6978  0.3589 -0.1885
 4614TIP3   OH235256   4.628   0.465   4.700 -0.3973 -0.3392 -0.7743
 4614TIP3    H135257   4.599   0.403   4.766  0.3004  0.7059  0.5661
 4614TIP3    H235258   4.553   0.474   4.641 -0.8079 -1.7685 -0.5054
 4615TIP3   OH235259   1.901   2.872  13.313 -0.3682 -0.1792  0.2936
 4615TIP3    H135260   1.890   2.935  13.243 -2.5128 -1.7669 -0.9291
 4615TIP3    H235261   1.851   2.909  13.387  1.4743  1.2457  0.9036
 4616TIP3   OH235262   3.285   5.456   4.469  0.1467 -0.4543 -0.5125
 4616TIP3    H135263   3.229   5.458   4.547  1.4384  1.0677  0.4430
 4616TIP3    H235264   3.301   5.363   4.453 -0.2513 -0.7982  0.9691
 4617TIP3   OH235265   1.993   1.073  13.975 -0.3111 -0.0873 -0.3398
 4617TIP3    H135266   1.961   1.104  14.060  0.4305 -2.2888  0.8229
 4617TIP3    H235267   1.950   0.988  13.963 -0.3171  0.1379 -2.1518
 4618TIP3   OH235268   6.090   0.582   4.646 -0.5659  0.9651 -0.0735
 4618TIP3    H135269   6.114   0.673   4.629  1.1336  0.4921 -0.4037
 4618TIP3    H235270   6.035   0.586   4.724 -1.0490  2.3168 -0.4488
 4619TIP3   OH235271   0.370   1.738  14.299  0.3100  0.4415 -0.4238
 4619TIP3    H135272   0.309   1.717  14.369  0.1088 -1.7645 -1.1580
 4619TIP3    H235273   0.434   1.797  14.338 -0.4050  0.1172  1.3027
 4620TIP3   OH235274   4.264   5.775  13.008  0.3718 -0.4813  0.0446
 4620TIP3    H135275   4.244   5.866  13.030 -1.0918 -0.7802  0.0317
 4620TIP3    H235276   4.314   5.743  13.083 -0.1179 -0.0026  0.5887
 4621TIP3   OH235277   3.870   0.088  12.247  0.1386  0.2193  0.2169
 4621TIP3    H135278   3.824   0.022  12.300 -0.8602  0.3136 -0.5232
 4621TIP3    H235279   3.872   0.166  12.303 -1.0498  0.3665  0.0656
 4622TIP3   OH235280   2.065   2.489   1.926 -0.2990 -0.3763  0.3774
 4622TIP3    H135281   2.150   2.444   1.918 -0.5490 -1.0067  1.1741
 4622TIP3    H235282   2.001   2.422   1.901 -0.4685  0.8673 -3.0003
 4623TIP3   OH235283   5.743   2.022   1.966  0.4326 -0.0975 -0.0977
 4623TIP3    H135284   5.706   1.935   1.983  1.1366 -0.1602  1.2489
 4623TIP3    H235285   5.673   2.083   1.988 -0.1003 -0.3017 -1.1457
 4624TIP3   OH235286   2.830   4.733  16.810  0.1143  0.5018  0.0565
 4624TIP3    H135287   2.788   4.818  16.797  1.4990  1.4889  1.5751
 4624TIP3    H235288   2.792   4.701  16.892 -2.3827 -1.6872 -1.8022
 4625TIP3   OH235289   0.501   3.574  15.996  0.9950  0.5288  0.6207
 4625TIP3    H135290   0.509   3.494  16.047  2.2399  0.5134  0.4232
 4625TIP3    H235291   0.554   3.559  15.918  1.5702  1.6938  0.7642
 4626TIP3   OH235292   1.981   1.224   2.242  0.2459 -0.0851 -0.0662
 4626TIP3    H135293   1.893   1.255   2.266  0.6197  1.6665 -0.7931
 4626TIP3    H235294   2.041   1.280   2.290  0.9610  0.3177 -1.3724
 4627TIP3   OH235295   5.937   4.104   5.128 -0.2864  0.4660  0.2600
 4627TIP3    H135296   5.953   4.194   5.098  2.8738  0.5260  1.7705
 4627TIP3    H235297   5.880   4.114   5.204  0.4279  1.2535  0.7055
 4628TIP3   OH235298   4.017   6.506  12.814 -0.4195  0.4916 -0.6623
 4628TIP3    H135299   4.021   6.581  12.755 -2.1660  1.2668  0.1265
 4628TIP3    H235300   4.107   6.496  12.846  0.2723  0.9041 -2.3517
 4629TIP3   OH235301   2.158   6.526  12.135  0.0257 -0.6078  0.1269
 4629TIP3    H135302   2.214   6.451  12.119  1.8278  0.7469 -0.2624
 4629TIP3    H235303   2.215   6.602  12.124 -1.5648  0.8183  1.0793
 4630TIP3   OH235304   6.695   1.073   6.157  0.4863  0.0283 -0.2332
 4630TIP3    H135305   6.747   1.122   6.220  1.0151 -0.4159 -0.3201
 4630TIP3    H235306   6.609   1.063   6.198  0.7804 -0.1200  0.3405
 4631TIP3   OH235307   2.480   0.662  17.343 -0.2382  0.0194 -0.4488
 4631TIP3    H135308   2.496   0.655  17.249  0.0636  2.1292 -0.6029
 4631TIP3    H235309   2.427   0.585  17.364  1.3721 -1.5776 -1.9333
 4632TIP3   OH235310   1.490   3.590  11.902  1.1206 -0.7024 -0.4292
 4632TIP3    H135311   1.546   3.570  11.827 -0.1539  1.0690 -1.9423
 4632TIP3    H235312   1.535   3.663  11.946  1.4466 -1.1994  0.0801
 4633TIP3   OH235313   0.683   1.343   4.794 -0.2143 -0.1358 -0.2849
 4633TIP3    H135314   0.707   1.380   4.710  0.7340 -1.0377 -0.4362
 4633TIP3    H235315   0.606   1.393   4.822 -0.8211 -0.1258 -1.8821
 4634TIP3   OH235316   3.929   5.780  11.747  0.0067  0.1234  0.0420
 4634TIP3    H135317   3.969   5.843  11.807 -0.8675 -0.4306  1.2439
 4634TIP3    H235318   3.872   5.727  11.802  0.9782 -1.9639 -0.8509
 4635TIP3   OH235319   6.361   1.272  14.667  0.1884 -0.4202  0.5105
 4635TIP3    H135320   6.289   1.330  14.693 -1.0808 -2.1106  0.9851
 4635TIP3    H235321   6.335   1.238  14.582  0.9150 -0.2835  0.2333
 4636TIP3   OH235322   6.463   0.832   4.794  0.2894  0.8015 -0.0979
 4636TIP3    H135323   6.538   0.871   4.839 -0.3508 -0.6981  2.4528
 4636TIP3    H235324   6.455   0.883   4.713  0.7437  4.6502  2.0024
 4637TIP3   OH235325   1.135   1.346  14.187 -0.1972  0.1747  0.4010
 4637TIP3    H135326   1.123   1.251  14.191  1.0876  0.0412  1.9106
 4637TIP3    H235327   1.221   1.358  14.147  0.2323  0.6358  1.4206
 4638TIP3   OH235328   4.754   2.120   3.840 -0.0524  0.2268 -0.2297
 4638TIP3    H135329   4.760   2.053   3.772  1.1258  0.8040 -0.7179
 4638TIP3    H235330   4.754   2.070   3.922 -0.1683 -0.4080 -0.6072
 4639TIP3   OH235331   0.097   1.905  16.499  0.3297  0.2328  0.1630
 4639TIP3    H135332   0.002   1.910  16.511  0.3636 -0.4089  0.7685
 4639TIP3    H235333   0.133   1.946  16.577  0.5511 -2.3617  1.5152
 4640TIP3   OH235334   3.470   1.422  16.431  0.0240 -0.0704  0.2129
 4640TIP3    H135335   3.432   1.363  16.496 -1.2274  0.4407 -0.0248
 4640TIP3    H235336   3.557   1.441  16.464 -0.7598  0.5779  2.0189
 4641TIP3   OH235337   1.126   0.907  10.416 -0.1603  0.0159  0.1352
 4641TIP3    H135338   1.185   0.910  10.340 -1.4482  2.5122 -0.8799
 4641TIP3    H235339   1.052   0.854  10.387 -1.5540  2.4843 -1.2106
 4642TIP3   OH235340   2.511   4.599  16.460 -0.2504 -0.1912  0.2422
 4642TIP3    H135341   2.534   4.509  16.484  0.4944  0.3868  1.8544
 4642TIP3    H235342   2.580   4.653  16.498 -0.5369  1.0603 -0.9151
 4643TIP3   OH235343   3.510   5.341  13.600 -0.0677 -0.1134 -0.4541
 4643TIP3    H135344   3.465   5.401  13.659  0.8727  0.0610  0.1048
 4643TIP3    H235345   3.602   5.347  13.625  0.2746 -0.4851 -1.5495
 4644TIP3   OH235346   5.542   3.427  11.062 -0.1673 -0.3675 -0.1114
 4644TIP3    H135347   5.447   3.429  11.056 -0.1327 -1.0832 -1.3990
 4644TIP3    H235348   5.562   3.342  11.102 -0.1012  0.5924  1.9850
 4645TIP3   OH235349   1.022   0.835  12.599 -0.5700  0.1006  0.0041
 4645TIP3    H135350   1.047   0.902  12.662 -0.9844 -0.7381  1.1015
 4645TIP3    H235351   1.006   0.883  12.518  0.5984  1.1285  0.3534
 4646TIP3   OH235352   3.155   2.256  17.207 -0.2314  0.3175 -0.4471
 4646TIP3    H135353   3.119   2.173  17.237 -1.7050  0.7746 -0.8930
 4646TIP3    H235354   3.118   2.268  17.120  0.1258  1.3446 -0.4656
 4647TIP3   OH235355   2.646   2.112  15.907 -0.1478  0.6957 -0.8513
 4647TIP3    H135356   2.629   2.191  15.855  0.1340 -0.0877 -2.1755
 4647TIP3    H235357   2.578   2.113  15.975  0.9665  3.0324  0.3362
 4648TIP3   OH235358   0.152   1.187  17.378  0.0756  0.2259  0.0004
 4648TIP3    H135359   0.112   1.269  17.408 -0.5477  0.3397 -1.0947
 4648TIP3    H235360   0.246   1.204  17.380 -0.0556  1.0672 -0.4591
 4649TIP3   OH235361   0.361   2.233  13.621 -1.0747  0.0092  0.5919
 4649TIP3    H135362   0.402   2.276  13.696  1.1831 -1.5919  0.3826
 4649TIP3    H235363   0.368   2.140  13.641 -0.5011 -0.4482 -1.5594
 4650TIP3   OH235364   2.353   4.392  13.848 -0.2924 -0.5731  0.3627
 4650TIP3    H135365   2.337   4.336  13.924  0.8033  0.3186  1.2847
 4650TIP3    H235366   2.291   4.465  13.858 -2.6028 -2.1182 -1.4901
 4651TIP3   OH235367   5.940   3.213   1.432  0.1571 -0.0857  0.0915
 4651TIP3    H135368   5.998   3.171   1.369 -0.2689  1.6986 -1.5878
 4651TIP3    H235369   5.884   3.143   1.465  2.6705 -1.7236  1.1959
 4652TIP3   OH235370   1.252   6.676   2.923 -0.3535 -0.2375  0.0514
 4652TIP3    H135371   1.297   6.760   2.917  0.2500 -0.6083 -0.8505
 4652TIP3    H235372   1.298   6.629   2.992 -0.6401  0.1338  0.5007
 4653TIP3   OH235373   3.886   3.561   3.715 -0.5238  0.1123 -0.5449
 4653TIP3    H135374   3.793   3.582   3.724 -0.4264 -0.2782  2.6031
 4653TIP3    H235375   3.898   3.484   3.771  1.7969  0.4234 -0.5347
 4654TIP3   OH235376   5.988   3.827   0.036 -0.4083  0.2497 -0.3035
 4654TIP3    H135377   5.990   3.867  -0.051 -1.5626 -0.5494 -0.7234
 4654TIP3    H235378   6.060   3.868   0.083 -1.8101  3.2154 -0.5209
 4655TIP3   OH235379   1.595   1.306  16.810 -0.1790  0.1966  0.3552
 4655TIP3    H135380   1.640   1.320  16.894 -1.1302  0.3953  0.8501
 4655TIP3    H235381   1.601   1.212  16.796  0.0402  0.1672  0.6126
 4656TIP3   OH235382   2.382   1.852   6.501  0.2259 -0.0682 -0.1843
 4656TIP3    H135383   2.302   1.885   6.460  0.9072  2.2293  0.1964
 4656TIP3    H235384   2.372   1.873   6.594  1.0764 -0.1708 -0.0611
 4657TIP3   OH235385   1.428   4.373  17.226 -0.0275 -0.2204  0.3741
 4657TIP3    H135386   1.478   4.449  17.196 -0.7923  1.1170  2.3294
 4657TIP3    H235387   1.347   4.377  17.176  0.7469 -0.9853 -1.0155
 4658TIP3   OH235388   5.751   4.218   4.826 -0.5220  0.2398 -0.2376
 4658TIP3    H135389   5.833   4.260   4.801  0.5548 -0.7433  1.4054
 4658TIP3    H235390   5.696   4.289   4.859 -0.8124  1.0760 -2.3614
 4659TIP3   OH235391   4.732   0.587   2.907 -0.1353 -0.5277 -0.2444
 4659TIP3    H135392   4.812   0.611   2.860 -0.5012  0.5735 -0.3419
 4659TIP3    H235393   4.676   0.664   2.899 -0.9784 -1.0636  0.3281
 4660TIP3   OH235394   5.648   0.933   6.071 -0.0706 -0.4576 -0.3407
 4660TIP3    H135395   5.586   1.000   6.099  0.3565  0.1492 -0.8031
 4660TIP3    H235396   5.621   0.854   6.118 -1.3918 -0.2992 -0.7987
 4661TIP3   OH235397   3.021   4.797  15.585 -1.0697  0.7426  0.7101
 4661TIP3    H135398   3.037   4.881  15.541 -1.1970  1.2381  1.5936
 4661TIP3    H235399   3.106   4.772  15.620 -0.7258 -0.1992 -0.7233
 4662TIP3   OH235400   0.625   6.757  16.832 -0.2434  0.1156  0.0207
 4662TIP3    H135401   0.639   6.666  16.858  1.6325  0.7810  1.6045
 4662TIP3    H235402   0.541   6.757  16.787  0.5640 -2.7277 -1.7563
 4663TIP3   OH235403   4.765   3.441  16.559 -0.0801  0.4079 -0.4617
 4663TIP3    H135404   4.826   3.485  16.499  0.6789  0.9968  0.7076
 4663TIP3    H235405   4.684   3.492  16.552 -0.7428 -0.8216 -2.5877
 4664TIP3   OH235406   2.235   5.052  13.562 -0.7125 -0.0040 -0.5437
 4664TIP3    H135407   2.243   5.146  13.576 -0.2076 -0.2676  1.2851
 4664TIP3    H235408   2.187   5.021  13.639 -0.2979 -1.3259 -0.7977
 4665TIP3   OH235409   2.222   4.488   2.795 -0.1931  0.1912  0.1760
 4665TIP3    H135410   2.171   4.434   2.735  1.1245 -0.4385 -0.4239
 4665TIP3    H235411   2.248   4.564   2.742 -0.6155  0.5937  0.5287
 4666TIP3   OH235412   2.465   4.675  12.635  0.3856 -0.0627 -0.0421
 4666TIP3    H135413   2.424   4.594  12.663  0.3098 -1.1015 -2.7929
 4666TIP3    H235414   2.434   4.688  12.545  0.6305  2.8775  0.1815
 4667TIP3   OH235415   0.137   1.700  12.483 -0.3718 -0.6906  0.1706
 4667TIP3    H135416   0.070   1.768  12.476 -0.0232 -0.3221  0.3651
 4667TIP3    H235417   0.100   1.637  12.546  0.0151  0.1824  1.3126
 4668TIP3   OH235418   2.354   1.407  12.524  0.3998 -0.6226 -0.6037
 4668TIP3    H135419   2.333   1.317  12.497 -1.7101 -0.2836 -0.3046
 4668TIP3    H235420   2.345   1.406  12.619  2.2386 -0.4948 -0.3924
 4669TIP3   OH235421   4.295   5.703  13.502  0.0452 -0.3871  0.4058
 4669TIP3    H135422   4.239   5.714  13.425  1.0602 -0.3418 -0.3403
 4669TIP3    H235423   4.372   5.756  13.484  1.3493 -2.2141  0.4031
 4670TIP3   OH235424   0.998   6.655   1.812 -0.5531  0.1335  0.2617
 4670TIP3    H135425   0.931   6.618   1.869 -0.4685 -2.1971 -1.0511
 4670TIP3    H235426   1.077   6.604   1.831  1.3722  3.5981  2.6721
 4671TIP3   OH235427   1.825   3.306   0.536 -0.1130  0.4719  0.6095
 4671TIP3    H135428   1.737   3.330   0.567 -0.4263 -1.0381  0.9404
 4671TIP3    H235429   1.847   3.228   0.586  0.8513  0.0278 -0.4897
 4672TIP3   OH235430   5.137   5.847  12.824  0.2463  0.1126  0.0267
 4672TIP3    H135431   5.046   5.874  12.841 -0.0310  0.6670 -2.1087
 4672TIP3    H235432   5.131   5.756  12.796 -0.0414  0.9540 -2.8910
 4673TIP3   OH235433   1.459   6.380   2.416  0.6714 -0.0454  0.3789
 4673TIP3    H135434   1.506   6.391   2.333  2.5573 -0.8629  1.2736
 4673TIP3    H235435   1.528   6.379   2.482 -0.8237  1.3677  2.0661
 4674TIP3   OH235436   6.635   1.525   2.755 -0.0465  0.2809  0.6969
 4674TIP3    H135437   6.692   1.518   2.831 -0.5266  0.3410  1.0736
 4674TIP3    H235438   6.690   1.562   2.686  1.0200 -1.8488  0.3369
 4675TIP3   OH235439   4.646   3.852  14.533 -0.2433 -0.2752  0.4725
 4675TIP3    H135440   4.650   3.783  14.466  0.8393 -1.1205  1.3739
 4675TIP3    H235441   4.552   3.871  14.542 -0.4745 -0.7767 -0.6318
 4676TIP3   OH235442   0.157   0.786  15.638 -0.1675  0.5043  0.1407
 4676TIP3    H135443   0.181   0.842  15.564 -2.7830  0.6390 -0.7232
 4676TIP3    H235444   0.156   0.845  15.714 -1.4205  1.3736 -0.4968
 4677TIP3   OH235445   0.668   0.613  14.408 -0.1584 -0.0216 -0.0128
 4677TIP3    H135446   0.658   0.611  14.503  0.5357  0.1533  0.0688
 4677TIP3    H235447   0.708   0.529  14.386 -2.2634 -0.9819 -0.4095
 4678TIP3   OH235448   1.712   5.934  14.693  0.5560  0.2676 -0.0298
 4678TIP3    H135449   1.748   5.871  14.755  1.5499 -0.1081 -0.9601
 4678TIP3    H235450   1.724   5.893  14.607  0.3804  1.3243 -0.5760
 4679TIP3   OH235451   0.910   2.712   2.942 -0.2744  0.3092 -0.5076
 4679TIP3    H135452   0.892   2.664   3.023  2.3736  0.5806  0.3494
 4679TIP3    H235453   0.853   2.672   2.877 -0.7265 -1.5861  0.9573
 4680TIP3   OH235454   0.843   3.778   0.783  0.1926 -0.0147 -0.5077
 4680TIP3    H135455   0.867   3.740   0.698  2.8534 -0.1887  0.2449
 4680TIP3    H235456   0.924   3.814   0.818 -1.0972  1.2451  1.4132
 4681TIP3   OH235457   6.104   3.342  16.870 -0.3855  0.4741  0.4038
 4681TIP3    H135458   6.096   3.424  16.820 -0.3155  2.0443  2.7773
 4681TIP3    H235459   6.192   3.345  16.906  0.6094 -2.0354 -1.5922
 4682TIP3   OH235460   5.422   4.378   6.082 -0.0452 -0.3679  0.1219
 4682TIP3    H135461   5.384   4.391   5.995 -0.3145  0.2967  0.3314
 4682TIP3    H235462   5.393   4.454   6.133  1.3322  0.0354  0.3721
 4683TIP3   OH235463   1.486   3.383   3.131 -0.4798  0.6420 -0.2518
 4683TIP3    H135464   1.516   3.472   3.112  0.5102  0.7365  1.4631
 4683TIP3    H235465   1.409   3.395   3.187  1.1047  0.5472  2.1249
 4684TIP3   OH235466   2.711   0.101  13.571  0.3424  0.6766  0.6553
 4684TIP3    H135467   2.664   0.018  13.583  0.9811  0.1026 -0.5554
 4684TIP3    H235468   2.647   0.168  13.595  0.2776 -0.1574  3.1273
 4685TIP3   OH235469   5.683   4.843   0.544 -0.8028 -0.2634 -0.1552
 4685TIP3    H135470   5.710   4.885   0.626 -0.6863  0.3957 -0.5334
 4685TIP3    H235471   5.702   4.750   0.559  1.4437  0.1092 -0.2814
 4686TIP3   OH235472   3.614   4.451   3.748 -0.2451  0.0721  0.1547
 4686TIP3    H135473   3.631   4.369   3.700  0.4699  1.1069 -1.4396
 4686TIP3    H235474   3.700   4.489   3.763 -0.5708  0.5396  0.8726
 4687TIP3   OH235475   0.550   6.400  17.312  0.4249  0.5829  0.3476
 4687TIP3    H135476   0.457   6.378  17.313  0.5887 -0.2539 -0.6221
 4687TIP3    H235477   0.556   6.475  17.254  0.3616  0.5646  0.3170
 4688TIP3   OH235478   1.757   4.738  16.856 -0.2176 -0.4259 -0.6022
 4688TIP3    H135479   1.814   4.662  16.868  1.5630  1.2808  3.1469
 4688TIP3    H235480   1.804   4.795  16.796  2.5004  1.1143  2.6942
 4689TIP3   OH235481   3.887   2.565  15.721  0.2874  0.1538 -0.2533
 4689TIP3    H135482   3.869   2.472  15.737  3.3869 -0.7244 -1.1210
 4689TIP3    H235483   3.946   2.564  15.646  2.9483  2.5906  1.6425
 4690TIP3   OH235484   4.232   4.687  17.036  0.0128 -0.2542 -0.5337
 4690TIP3    H135485   4.230   4.761  17.096 -0.8700 -1.5219  1.0894
 4690TIP3    H235486   4.322   4.656  17.039 -0.1808 -0.7563  0.7750
 4691TIP3   OH235487   6.654   1.407   4.679 -0.7417 -0.0393  0.3698
 4691TIP3    H135488   6.697   1.368   4.755  1.1562  0.4677 -0.3866
 4691TIP3    H235489   6.687   1.356   4.604 -2.0793 -0.1231 -0.1875
 4692TIP3   OH235490   2.684   3.066   3.490  0.2723 -0.5729  0.1073
 4692TIP3    H135491   2.627   3.079   3.414 -0.6347  3.1289  1.2240
 4692TIP3    H235492   2.767   3.104   3.464  0.5557 -1.0080  0.3580
 4693TIP3   OH235493   2.109   2.418   2.866  0.2006  0.4434 -0.1137
 4693TIP3    H135494   2.124   2.511   2.851 -1.3100  0.9558  1.2471
 4693TIP3    H235495   2.044   2.394   2.799  0.8314  0.2781 -0.6722
 4694TIP3   OH235496   5.138   0.047   1.239  0.1121  0.4744  0.5888
 4694TIP3    H135497   5.193   0.049   1.317  1.4472  1.2004 -0.3302
 4694TIP3    H235498   5.149   0.134   1.200 -0.2037 -0.0132 -0.6325
 4695TIP3   OH235499   3.609   1.801   4.679 -0.5048 -0.3203  0.1645
 4695TIP3    H135500   3.564   1.797   4.594 -0.6145 -1.9335  0.2701
 4695TIP3    H235501   3.601   1.712   4.714 -0.0807  0.2158  1.6765
 4696TIP3   OH235502   1.351   1.436   4.897 -0.3194  0.0701  0.8031
 4696TIP3    H135503   1.296   1.468   4.825 -0.5291  0.7638  1.2574
 4696TIP3    H235504   1.390   1.515   4.934  0.9796 -0.4085  0.5065
 4697TIP3   OH235505   0.539   2.186  14.312  0.0564  0.5004 -0.0295
 4697TIP3    H135506   0.593   2.222  14.242  0.0541  0.0619 -0.2592
 4697TIP3    H235507   0.461   2.241  14.313  1.4681  2.6530  1.8582
 4698TIP3   OH235508   3.258   3.728  16.457  0.1048  0.6764 -0.0319
 4698TIP3    H135509   3.172   3.752  16.421  0.4976 -0.1395 -1.6194
 4698TIP3    H235510   3.244   3.641  16.495 -0.1074  1.1779  1.0629
 4699TIP3   OH235511   3.008   3.865  10.916  0.7587 -0.0485  0.0178
 4699TIP3    H135512   3.015   3.788  10.974 -1.6014  0.0019  0.4933
 4699TIP3    H235513   2.976   3.829  10.833 -0.0976  0.3611  0.1594
 4700TIP3   OH235514   2.963   1.530  13.417  0.1906 -0.6692  0.5321
 4700TIP3    H135515   2.965   1.454  13.475 -0.9643  0.4332  2.1161
 4700TIP3    H235516   3.055   1.545  13.394  0.5229 -2.0066  0.9161
 4701TIP3   OH235517   4.609   1.324  16.101  0.0577  0.4245 -0.0927
 4701TIP3    H135518   4.605   1.230  16.115  0.0296  0.1865 -1.5015
 4701TIP3    H235519   4.640   1.360  16.184 -1.1566 -0.6899  0.8713
 4702TIP3   OH235520   3.671   1.983  15.176  0.3623 -0.3145 -0.6369
 4702TIP3    H135521   3.605   1.916  15.192 -1.4672  1.0471 -2.0068
 4702TIP3    H235522   3.672   2.035  15.256 -0.8711  0.1433 -0.8977
 4703TIP3   OH235523   5.768   1.152  12.929 -0.0472 -0.2053  0.2432
 4703TIP3    H135524   5.849   1.125  12.884 -0.1592 -0.0598 -0.0509
 4703TIP3    H235525   5.698   1.129  12.867 -0.3459 -1.5440  1.0419
 4704TIP3   OH235526   1.876   3.478  16.650  0.3455  0.1552 -0.6486
 4704TIP3    H135527   1.801   3.499  16.595 -1.0767 -2.9305 -0.1432
 4704TIP3    H235528   1.947   3.457  16.589 -0.6335 -1.3257 -1.3253
 4705TIP3   OH235529   2.974   0.769   0.752  0.8182  0.4994  0.4966
 4705TIP3    H135530   2.991   0.680   0.785  2.7787  1.0186  1.0270
 4705TIP3    H235531   2.894   0.761   0.702  2.0961 -2.0800 -1.3554
 4706TIP3   OH235532   2.954   6.650   5.754  0.7446  0.5291 -0.5754
 4706TIP3    H135533   2.865   6.685   5.748  0.5218  0.2625  0.9161
 4706TIP3    H235534   2.999   6.688   5.678  0.0452  2.6526  0.0044
 4707TIP3   OH235535   1.673   2.264  13.479  0.2881  0.4655  0.0016
 4707TIP3    H135536   1.751   2.234  13.432 -0.4402 -0.6821 -0.5173
 4707TIP3    H235537   1.687   2.235  13.569  1.5678  2.4427  0.4994
 4708TIP3   OH235538   2.879   1.138   0.504  0.3626  0.3603  0.4103
 4708TIP3    H135539   2.958   1.126   0.452  0.2083  0.9064  0.0330
 4708TIP3    H235540   2.836   1.215   0.465  0.0586  0.5599  1.1156
 4709TIP3   OH235541   5.209   0.324   4.256 -0.1927 -0.2971 -0.1376
 4709TIP3    H135542   5.286   0.335   4.311  0.1113  0.6579 -0.7295
 4709TIP3    H235543   5.141   0.375   4.300  0.0085  0.3377 -0.5439
 4710TIP3   OH235544   1.508   5.522   2.613  0.0026  0.1925  0.2341
 4710TIP3    H135545   1.519   5.603   2.563 -0.0452 -0.0383 -0.1524
 4710TIP3    H235546   1.424   5.533   2.660 -1.2406 -0.5992 -1.6827
 4711TIP3   OH235547   1.287   4.633   3.550 -0.1456 -0.2002 -0.2692
 4711TIP3    H135548   1.361   4.693   3.541 -1.1420  1.1213  0.0871
 4711TIP3    H235549   1.210   4.687   3.537 -1.0609 -1.8898 -2.3995
 4712TIP3   OH235550   4.638   2.383   6.053  0.1662  0.4646 -0.3441
 4712TIP3    H135551   4.567   2.385   6.118 -0.1864  0.4219 -0.7202
 4712TIP3    H235552   4.599   2.421   5.974  0.3574 -0.1758 -0.7592
 4713TIP3   OH235553   6.659   0.521  13.247 -0.0608 -0.0080  0.0319
 4713TIP3    H135554   6.677   0.573  13.326 -1.5401  0.9923 -0.2409
 4713TIP3    H235555   6.618   0.584  13.187 -0.4649 -1.1432 -0.9007
 4714TIP3   OH235556   2.321   3.538  10.842 -0.1229 -0.0511  0.1262
 4714TIP3    H135557   2.414   3.523  10.861 -0.1098  1.3723  1.4414
 4714TIP3    H235558   2.319   3.556  10.748  1.0133  0.3835  0.1610
 4715TIP3   OH235559   6.034   6.753   2.112  0.0678 -0.0976  0.4101
 4715TIP3    H135560   6.111   6.802   2.081 -0.4120 -0.3087 -1.2147
 4715TIP3    H235561   6.046   6.664   2.078  0.3911 -0.8529  2.4116
 4716TIP3   OH235562   6.538   2.378  13.497 -0.1195 -0.2933  0.5823
 4716TIP3    H135563   6.454   2.379  13.543 -2.3287 -0.5719 -3.0304
 4716TIP3    H235564   6.557   2.285  13.484 -0.7365 -0.2242 -0.9584
 4717TIP3   OH235565   0.467   3.431  17.058  0.4970  0.2174 -0.3023
 4717TIP3    H135566   0.532   3.467  17.117 -0.9365 -1.2742  2.3658
 4717TIP3    H235567   0.457   3.340  17.085 -0.6804 -0.4012 -2.4961
 4718TIP3   OH235568   6.028   6.256   3.903  0.1852 -0.0107  0.0483
 4718TIP3    H135569   5.942   6.272   3.864  0.6623  1.7738 -0.3427
 4718TIP3    H235570   6.059   6.177   3.860  0.0699  1.0870 -2.1800
 4719TIP3   OH235571   5.612   0.208   4.501  0.4862  0.3007  0.2452
 4719TIP3    H135572   5.667   0.210   4.579  0.0092  0.4308  0.5808
 4719TIP3    H235573   5.674   0.200   4.428  0.8636 -1.7944  0.7266
 4720TIP3   OH235574   3.452   4.272   0.130 -0.1553  0.1315 -0.4161
 4720TIP3    H135575   3.509   4.198   0.108 -0.9973 -0.5915 -0.2343
 4720TIP3    H235576   3.497   4.349   0.096  1.3682 -0.3074  0.5117
 4721TIP3   OH235577   2.443   4.606  13.987  0.0840  0.0132  0.1653
 4721TIP3    H135578   2.476   4.530  13.939  1.5365 -0.5352  1.9381
 4721TIP3    H235579   2.518   4.665  13.994 -0.6508  0.9822  0.0505
 4722TIP3   OH235580   2.364   2.994  12.741 -0.0415 -0.7134 -0.0397
 4722TIP3    H135581   2.417   2.970  12.666  1.3417  0.3701  0.5479
 4722TIP3    H235582   2.395   2.938  12.812  2.4674  1.8142  1.0606
 4723TIP3   OH235583   4.326   6.268   2.453  0.0739  0.3079  0.3371
 4723TIP3    H135584   4.274   6.346   2.436  0.0032  0.1870 -0.0133
 4723TIP3    H235585   4.376   6.254   2.372  0.8596  0.5830  0.7630
 4724TIP3   OH235586   0.603   4.168  16.765 -0.7483 -0.3194  0.2600
 4724TIP3    H135587   0.555   4.097  16.807 -1.0499  0.2913  0.9753
 4724TIP3    H235588   0.572   4.169  16.675 -0.5831 -1.2262  0.1822
 4725TIP3   OH235589   6.474   2.138   4.574  0.0451  0.4939 -0.0439
 4725TIP3    H135590   6.562   2.152   4.608  0.5523 -0.3367 -0.9760
 4725TIP3    H235591   6.483   2.146   4.479 -0.6034 -0.9737 -0.2586
 4726TIP3   OH235592   0.384   0.368  14.208  0.2448  0.0790 -0.4220
 4726TIP3    H135593   0.363   0.375  14.301 -1.8146 -1.1500 -0.7285
 4726TIP3    H235594   0.376   0.274  14.188 -1.0196  0.4964 -2.1651
 4727TIP3   OH235595   3.289   2.048   4.700  0.4701 -0.9337 -0.0051
 4727TIP3    H135596   3.237   2.067   4.622 -0.2831 -2.4441  0.0901
 4727TIP3    H235597   3.293   1.953   4.703  1.0643 -0.8826  1.4295
 4728TIP3   OH235598   0.982   5.299  12.589 -0.1157  0.0236  0.1831
 4728TIP3    H135599   1.036   5.227  12.558  2.2266  0.8740  1.9280
 4728TIP3    H235600   1.029   5.378  12.561 -1.0264  0.8226  0.8327
 4729TIP3   OH235601   4.811   1.873  12.475  0.3707 -0.1318  0.3468
 4729TIP3    H135602   4.903   1.884  12.451  0.6819  0.3617  1.6598
 4729TIP3    H235603   4.766   1.857  12.392  1.6124 -0.2163 -0.3364
 4730TIP3   OH235604   6.206   1.743  13.554  0.2047 -0.4731  0.1461
 4730TIP3    H135605   6.206   1.648  13.566 -2.3383 -0.4924  0.4009
 4730TIP3    H235606   6.254   1.757  13.472  2.5039 -1.7406  1.1738
 4731TIP3   OH235607   0.199   2.628  12.742 -0.1618  0.4616  0.0574
 4731TIP3    H135608   0.232   2.556  12.797 -0.9140  0.4226  0.4628
 4731TIP3    H235609   0.179   2.586  12.659  0.3094  0.3880 -0.0262
 4732TIP3   OH235610   3.950   1.979  12.401 -0.5993 -0.0783  0.2401
 4732TIP3    H135611   4.026   1.947  12.352 -2.3674 -1.3004 -1.8912
 4732TIP3    H235612   3.913   1.901  12.442 -1.0197  0.3949  0.7718
 4733TIP3   OH235613   4.544   4.417   2.736  0.5934  0.3951 -0.1749
 4733TIP3    H135614   4.606   4.431   2.807 -0.8929  1.3524  1.0026
 4733TIP3    H235615   4.542   4.323   2.723  1.0989  0.2262  0.8745
 4734TIP3   OH235616   3.833   1.741  14.653  0.3942 -0.4549  0.0866
 4734TIP3    H135617   3.861   1.807  14.590  0.4772 -1.0372 -0.5031
 4734TIP3    H235618   3.805   1.791  14.730  0.1460  0.2720 -0.4684
 4735TIP3   OH235619   6.063   5.617   3.712  0.6870 -0.0026 -0.1021
 4735TIP3    H135620   6.006   5.620   3.789 -0.2409 -0.4249 -0.7469
 4735TIP3    H235621   6.077   5.523   3.696 -2.2261 -0.1767 -2.6012
 4736TIP3   OH235622   5.071   4.154   0.109 -0.1547 -0.3432 -0.8506
 4736TIP3    H135623   4.998   4.180   0.166 -0.0160  1.5871 -1.4626
 4736TIP3    H235624   5.031   4.144   0.023 -0.1182 -1.8548 -0.7077
 4737TIP3   OH235625   2.939   0.588  11.483  0.4402 -0.0617 -0.0548
 4737TIP3    H135626   2.996   0.524  11.441 -0.2437 -0.8763  0.2127
 4737TIP3    H235627   2.857   0.583  11.433  0.2917  0.4084  0.1400
 4738TIP3   OH235628   0.335   4.268  11.936  0.6509 -0.0326 -0.4449
 4738TIP3    H135629   0.289   4.352  11.942 -1.2549 -1.1026  0.7618
 4738TIP3    H235630   0.334   4.248  11.842 -1.0758  0.1443 -0.4941
 4739TIP3   OH235631   3.196   1.672  12.417 -0.6087 -0.1890 -0.5156
 4739TIP3    H135632   3.265   1.648  12.478  1.0656 -2.4652 -3.0911
 4739TIP3    H235633   3.222   1.759  12.385 -0.2742  0.0176  0.2863
 4740TIP3   OH235634   2.983   0.047   0.442  0.2275 -0.2540 -0.0319
 4740TIP3    H135635   3.050  -0.022   0.446 -0.0108 -0.4402  1.3590
 4740TIP3    H235636   2.914   0.009   0.386 -0.6895 -1.9274  2.0863
 4741TIP3   OH235637   2.361   5.309  12.843  0.3603  0.0769 -0.1640
 4741TIP3    H135638   2.367   5.326  12.937  1.4446  1.5299 -0.4675
 4741TIP3    H235639   2.451   5.288  12.816  0.0364 -0.4687 -0.8524
 4742TIP3   OH235640   0.234   4.755  14.580  0.1344  0.0364 -0.6425
 4742TIP3    H135641   0.232   4.672  14.628  0.4270 -1.0676 -2.4371
 4742TIP3    H235642   0.280   4.815  14.638  0.8168 -1.3398  0.3074
 4743TIP3   OH235643   1.796   2.678  12.392  0.4137 -0.8714  0.5467
 4743TIP3    H135644   1.808   2.756  12.446 -1.6261 -0.8892  1.1213
 4743TIP3    H235645   1.739   2.707  12.321  4.2808 -0.4232 -2.7355
 4744TIP3   OH235646   6.713   4.636  16.568  0.4152 -0.0048  0.0434
 4744TIP3    H135647   6.711   4.550  16.526  0.6236 -0.8513  1.6694
 4744TIP3    H235648   6.736   4.617  16.659  2.3341  1.9467  0.0481
 4745TIP3   OH235649   6.606   5.298  15.104  0.0912 -0.1348 -0.1495
 4745TIP3    H135650   6.566   5.223  15.060  1.1491 -0.2660 -0.9280
 4745TIP3    H235651   6.668   5.333  15.040 -0.0075  1.0858  0.3976
 4746TIP3   OH235652   0.421   3.245   0.281 -0.4900 -0.0400 -0.0744
 4746TIP3    H135653   0.373   3.229   0.200 -0.4271  0.6526 -0.2552
 4746TIP3    H235654   0.495   3.184   0.278 -2.3278 -2.5433  1.1036
 4747TIP3   OH235655   5.981   4.141  17.058  0.2228  0.1802  0.4861
 4747TIP3    H135656   6.049   4.208  17.055 -0.8737  1.3275  0.2888
 4747TIP3    H235657   6.023   4.066  17.100  1.7626  0.6482 -0.1308
 4748TIP3   OH235658   3.432   2.964   5.730  0.3931 -0.1896  0.0529
 4748TIP3    H135659   3.447   2.911   5.652 -1.7867 -0.6876 -0.0822
 4748TIP3    H235660   3.470   2.914   5.801 -2.7274 -2.7584  0.1425
 4749TIP3   OH235661   2.265   1.162  16.213 -0.0721  0.5031 -0.5077
 4749TIP3    H135662   2.172   1.179  16.200 -0.3374 -0.7008 -0.3145
 4749TIP3    H235663   2.309   1.216  16.147 -1.0107 -0.1838 -1.7489
 4750TIP3   OH235664   2.252   6.232  16.642  0.9349  0.2265  0.1942
 4750TIP3    H135665   2.267   6.183  16.723  0.2845  0.5144  0.4939
 4750TIP3    H235666   2.260   6.324  16.667  1.8939  0.3035 -0.3175
 4751TIP3   OH235667   2.228   3.828  15.339  0.0079  0.2319 -0.2098
 4751TIP3    H135668   2.294   3.793  15.280  0.4949  3.3626 -1.7505
 4751TIP3    H235669   2.274   3.843  15.422  0.3093 -0.7291 -0.1960
 4752TIP3   OH235670   4.163   4.146   4.716 -0.2208 -0.4020  0.0927
 4752TIP3    H135671   4.088   4.203   4.729  0.4216  0.4701  0.0856
 4752TIP3    H235672   4.208   4.146   4.800  0.0302 -0.5418 -0.0396
 4753TIP3   OH235673   5.123   6.072  16.223  0.0166  0.3952  0.1771
 4753TIP3    H135674   5.109   6.028  16.139 -2.1871  0.8506  0.2545
 4753TIP3    H235675   5.051   6.135  16.230  1.4943  2.0581  1.3595
 4754TIP3   OH235676   5.476   1.525   6.480 -0.0183 -0.7775  0.7898
 4754TIP3    H135677   5.409   1.519   6.548 -1.6776 -1.0994 -0.7911
 4754TIP3    H235678   5.474   1.617   6.453 -0.9366 -1.1020 -0.3006
 4755TIP3   OH235679   6.073   1.394  16.282  0.3650 -0.3050 -0.1575
 4755TIP3    H135680   6.049   1.302  16.291 -0.6512 -0.2119 -1.5847
 4755TIP3    H235681   6.007   1.431  16.223  0.3614  1.4990  0.8850
 4756TIP3   OH235682   4.856   1.537  15.576  0.0816  0.4914 -0.1117
 4756TIP3    H135683   4.937   1.585  15.593  0.1761  0.8984 -1.5397
 4756TIP3    H235684   4.885   1.454  15.539 -0.0727 -0.8424  2.5633
 4757TIP3   OH235685   3.096   6.690  14.077 -0.2682 -0.4977  0.2469
 4757TIP3    H135686   3.001   6.700  14.073 -0.1030  1.2894 -0.9152
 4757TIP3    H235687   3.129   6.754  14.013  1.6612 -2.1677 -0.5639
 4758TIP3   OH235688   1.191   3.888   2.633  0.1703  0.3559 -0.6620
 4758TIP3    H135689   1.286   3.885   2.647  0.0298  1.2625  0.7758
 4758TIP3    H235690   1.176   3.832   2.557  1.8332  0.0541 -0.8159
 4759TIP3   OH235691   1.653   3.952   1.945 -0.4821  0.5239  0.3942
 4759TIP3    H135692   1.629   3.886   1.879 -2.0053  2.1609 -0.7789
 4759TIP3    H235693   1.677   4.029   1.894  0.2510  1.2206  1.7438
 4760TIP3   OH235694   0.282   4.526  14.728 -0.0868  0.2679  0.5490
 4760TIP3    H135695   0.361   4.573  14.704 -0.4842  0.3344 -0.6932
 4760TIP3    H235696   0.304   4.434  14.715  0.1484  0.2022  1.3448
 4761TIP3   OH235697   3.556   3.222   2.287 -0.4748 -0.0113  0.5473
 4761TIP3    H135698   3.540   3.141   2.335  0.7582  1.4427  3.6304
 4761TIP3    H235699   3.644   3.212   2.251  0.3337  0.5321  2.3031
 4762TIP3   OH235700   5.233   1.054   3.708 -0.3726  0.0406 -0.1123
 4762TIP3    H135701   5.272   1.010   3.783  1.4838  0.4665 -0.7862
 4762TIP3    H235702   5.166   1.111   3.747 -0.6697 -1.0340  1.0315
 4763TIP3   OH235703   5.004   0.276   2.186  0.2787  0.1199  0.3650
 4763TIP3    H135704   4.918   0.312   2.166 -0.5998 -0.8421  2.1394
 4763TIP3    H235705   5.035   0.242   2.102 -1.8690 -1.0824 -0.0406
 4764TIP3   OH235706   4.759   2.527   2.022 -0.4106  0.2951  0.2792
 4764TIP3    H135707   4.691   2.471   2.058 -0.0626  0.1617  0.7264
 4764TIP3    H235708   4.729   2.616   2.040  1.0478  0.2812  3.4424
 4765TIP3   OH235709   4.672   6.623   4.964  0.5226 -0.0047  0.2779
 4765TIP3    H135710   4.692   6.532   4.939 -0.8035 -0.0329 -0.7966
 4765TIP3    H235711   4.753   6.671   4.945  0.8556 -0.7553 -0.2761
 4766TIP3   OH235712   4.860   0.923  16.628  0.4301  0.1460 -0.3809
 4766TIP3    H135713   4.773   0.964  16.627  0.5428  0.4457  1.1332
 4766TIP3    H235714   4.860   0.867  16.550 -0.9181  0.5578 -0.7060
 4767TIP3   OH235715   5.405   6.632   0.247 -0.9171  0.0029  0.2109
 4767TIP3    H135716   5.479   6.573   0.234  0.0091  0.7540  1.8087
 4767TIP3    H235717   5.386   6.666   0.160  0.4573 -0.3989 -0.2695
 4768TIP3   OH235718   4.626   5.350   0.579  0.6046  0.4139 -0.6213
 4768TIP3    H135719   4.630   5.336   0.484  1.8249  0.0297 -0.5395
 4768TIP3    H235720   4.579   5.432   0.590  0.1907  0.3072 -1.5430
 4769TIP3   OH235721   5.427   4.395   0.480  0.0530  0.5854 -0.0688
 4769TIP3    H135722   5.354   4.403   0.419  0.4644 -0.9729 -0.8309
 4769TIP3    H235723   5.387   4.365   0.562 -0.1048 -1.2079 -0.7594
 4770TIP3   OH235724   2.175   1.387  10.703 -0.2646 -0.2903  0.5405
 4770TIP3    H135725   2.171   1.478  10.674  0.2481 -0.2830  0.4892
 4770TIP3    H235726   2.259   1.354  10.670 -0.7120 -0.9643  0.0245
 4771TIP3   OH235727   1.969   1.281   0.372 -0.3639 -0.2289 -0.1571
 4771TIP3    H135728   1.980   1.217   0.302  0.2888  0.3935 -0.6465
 4771TIP3    H235729   1.903   1.243   0.430 -2.4539  0.0854 -2.1580
 4772TIP3   OH235730   3.603   5.776   4.427 -0.1993 -0.3053 -0.4039
 4772TIP3    H135731   3.627   5.827   4.350 -0.1860  0.8463  0.3375
 4772TIP3    H235732   3.513   5.802   4.447  0.2461  0.4309  0.7454
 4773TIP3   OH235733   6.722   5.080   0.562 -0.7021  0.0620 -0.0703
 4773TIP3    H135734   6.762   5.105   0.479  1.6634 -2.8665  0.0232
 4773TIP3    H235735   6.783   5.111   0.629 -1.3975  0.3387  0.4512
 4774TIP3   OH235736   2.480   5.751  12.195  0.9385 -0.7733 -0.2159
 4774TIP3    H135737   2.463   5.736  12.102 -0.4557 -0.6550  0.0029
 4774TIP3    H235738   2.428   5.684  12.240  0.3449  0.1655  0.5210
 4775TIP3   OH235739   2.848   3.977  14.415  0.5633 -0.1251 -0.3731
 4775TIP3    H135740   2.848   3.940  14.503 -1.3086  2.0517  0.6542
 4775TIP3    H235741   2.764   3.951  14.378  0.2551  1.0484 -0.5289
 4776TIP3   OH235742   5.072   4.440   1.848  0.6877 -0.1859  0.2451
 4776TIP3    H135743   5.017   4.403   1.917  1.0853  0.1030  0.7229
 4776TIP3    H235744   5.038   4.402   1.767 -0.2684  0.0640  0.5232
 4777TIP3   OH235745   2.227   0.589   2.142 -0.4145  0.1342  0.2015
 4777TIP3    H135746   2.313   0.584   2.100 -1.1763  0.7192 -1.5285
 4777TIP3    H235747   2.210   0.682   2.151 -1.2756  0.0406 -0.3672
 4778TIP3   OH235748   5.839   0.114   4.284 -0.0124 -0.3599  0.5591
 4778TIP3    H135749   5.855   0.035   4.335 -0.5595 -0.4610  0.5840
 4778TIP3    H235750   5.925   0.140   4.252  0.3881 -0.1146  1.7920
 4779TIP3   OH235751   0.064   0.263  14.250  0.0761  0.4614  0.2324
 4779TIP3    H135752   0.007   0.285  14.323  0.5428 -3.6352  2.1059
 4779TIP3    H235753   0.153   0.277  14.283  0.2877 -1.2850  0.4663
 4780TIP3   OH235754   6.764   6.599   5.618 -0.1584 -0.2251 -0.6964
 4780TIP3    H135755   6.735   6.508   5.623 -0.9670 -0.0005 -1.1358
 4780TIP3    H235756   6.692   6.649   5.656  0.8724  0.1400  0.8739
 4781TIP3   OH235757   5.094   2.494  17.310  0.0380 -0.3606  0.3324
 4781TIP3    H135758   5.101   2.536  17.225 -2.0369 -1.6785 -0.5630
 4781TIP3    H235759   5.184   2.472  17.334  0.7283  0.7897 -1.1013
 4782TIP3   OH235760   3.518   1.562   0.141  0.7203  0.1676  0.0506
 4782TIP3    H135761   3.525   1.558   0.045 -1.9937  2.0963 -0.3520
 4782TIP3    H235762   3.482   1.649   0.158 -2.0967 -1.3312  2.5416
 4783TIP3   OH235763   6.523   5.648  10.835  0.1555  0.0246  0.2068
 4783TIP3    H135764   6.447   5.602  10.797 -1.8440  1.7354  1.8557
 4783TIP3    H235765   6.578   5.669  10.759 -1.6546 -0.1781 -1.2454
 4784TIP3   OH235766   3.458   2.107  14.018  0.6383  0.1802  0.2710
 4784TIP3    H135767   3.530   2.152  13.974  1.1511  0.9162  1.7805
 4784TIP3    H235768   3.391   2.174  14.029  0.6126  0.0698  0.8046
 4785TIP3   OH235769   1.892   6.577   0.382  0.3877  0.6156 -0.4076
 4785TIP3    H135770   1.835   6.523   0.327  1.3489 -0.6862 -0.1837
 4785TIP3    H235771   1.942   6.514   0.433 -0.5351  1.7470  2.0908
 4786TIP3   OH235772   2.989   5.964  13.660 -0.6515  0.1865 -0.2007
 4786TIP3    H135773   2.931   6.028  13.702 -0.2276 -0.1354  0.9208
 4786TIP3    H235774   3.028   5.916  13.733  0.4001 -0.1565 -0.9639
 4787TIP3   OH235775   1.181   2.213   1.674 -0.4148  0.7316  0.5179
 4787TIP3    H135776   1.097   2.248   1.645 -0.5563 -0.3112 -0.3943
 4787TIP3    H235777   1.242   2.236   1.604 -0.5901 -1.1075 -0.2973
 4788TIP3   OH235778   3.228   5.071  12.652  0.6699  0.1503 -0.1411
 4788TIP3    H135779   3.315   5.052  12.615  0.0560 -3.3204 -0.1379
 4788TIP3    H235780   3.238   5.056  12.746  0.4527  1.6042  0.1378
 4789TIP3   OH235781   5.884   5.577  14.614  0.5638 -0.0681  0.0465
 4789TIP3    H135782   5.949   5.610  14.551  0.7745  0.4895  0.5557
 4789TIP3    H235783   5.820   5.531  14.559  0.8894  0.1771 -0.5544
 4790TIP3   OH235784   4.026   3.291  14.589  0.4237 -0.3246  0.0978
 4790TIP3    H135785   4.033   3.372  14.539 -1.8194  2.2239  3.4458
 4790TIP3    H235786   3.940   3.255  14.566  1.1751 -1.5129 -0.9551
 4791TIP3   OH235787   4.721   2.910  11.500 -0.0762 -0.0887  0.4735
 4791TIP3    H135788   4.719   2.893  11.594 -0.1996 -0.6914  0.3667
 4791TIP3    H235789   4.741   3.003  11.492  1.9881 -0.4366  1.0522
 4792TIP3   OH235790   2.404   4.389  10.544  0.0172  0.5133  0.5762
 4792TIP3    H135791   2.455   4.337  10.482 -1.6254 -0.7255  0.1880
 4792TIP3    H235792   2.327   4.417  10.494 -0.9038  0.2438  1.7902
 4793TIP3   OH235793   5.992   6.081  11.824 -0.8023  0.2938  0.4275
 4793TIP3    H135794   5.970   6.110  11.913 -1.4362  0.6155  0.1630
 4793TIP3    H235795   5.913   6.039  11.791 -0.3771 -0.3854  0.2317
 4794TIP3   OH235796   0.301   1.281   1.936 -0.4223  0.3141  0.4967
 4794TIP3    H135797   0.309   1.240   2.022  2.2329 -0.0200  0.1602
 4794TIP3    H235798   0.240   1.224   1.889  1.2992 -1.9739  0.8382
 4795TIP3   OH235799   3.406   2.814   3.721  0.4144  0.9911  0.4283
 4795TIP3    H135800   3.317   2.800   3.689  0.4219  0.9754  0.4140
 4795TIP3    H235801   3.460   2.753   3.670  0.3372  0.4904  0.9396
 4796TIP3   OH235802   2.770   0.197  13.928  0.1926  0.1729 -0.2434
 4796TIP3    H135803   2.828   0.203  13.853  0.4955 -0.7769 -0.1033
 4796TIP3    H235804   2.824   0.227  14.002 -0.3472  1.8735 -0.4878
 4797TIP3   OH235805   0.204   5.333   1.526  0.0016 -0.6665  0.4200
 4797TIP3    H135806   0.171   5.395   1.461  1.3447  0.9317  1.1800
 4797TIP3    H235807   0.282   5.375   1.562  0.9727 -2.8256  0.9985
 4798TIP3   OH235808   0.373   0.409   6.169 -0.3837 -0.3611 -0.2662
 4798TIP3    H135809   0.317   0.395   6.246  0.7963 -1.3510  0.4604
 4798TIP3    H235810   0.337   0.487   6.127 -1.5579 -0.2682  0.8349
 4799TIP3   OH235811   4.948   0.894  16.891 -0.3454  0.6080  0.1838
 4799TIP3    H135812   4.940   0.922  16.800  1.5370 -1.9458 -0.8786
 4799TIP3    H235813   4.999   0.963  16.933  0.1616  1.0302 -1.1007
 4800TIP3   OH235814   0.733   0.349   1.105 -0.0817  0.3819 -0.8240
 4800TIP3    H135815   0.768   0.367   1.017  0.3708  1.4679 -0.4462
 4800TIP3    H235816   0.674   0.423   1.122 -0.8085 -0.2555 -0.5416
 4801TIP3   OH235817   5.248   4.281   1.247  0.1088 -0.2398 -0.6171
 4801TIP3    H135818   5.287   4.213   1.192 -0.3851 -0.3455 -0.8416
 4801TIP3    H235819   5.174   4.238   1.289 -0.4565  0.2644 -1.0759
 4802TIP3   OH235820   2.781   0.536   3.335 -0.4620  0.2514  0.0251
 4802TIP3    H135821   2.828   0.620   3.333 -3.3764  1.9917 -0.9522
 4802TIP3    H235822   2.759   0.523   3.427  2.4939 -1.0946  0.6843
 4803TIP3   OH235823   0.647   3.951   2.309  0.1506  0.0174  0.3220
 4803TIP3    H135824   0.656   3.894   2.233 -0.8904 -1.7267  1.4291
 4803TIP3    H235825   0.651   4.039   2.273  0.0190 -0.7429 -1.7143
 4804TIP3   OH235826   5.514   4.526  14.155  0.0097 -0.1247  0.4026
 4804TIP3    H135827   5.598   4.492  14.125  0.0123 -1.1611  1.4925
 4804TIP3    H235828   5.492   4.594  14.092  0.5198 -1.4298 -1.2742
 4805TIP3   OH235829   5.984   1.160   3.859  0.1226 -0.3386  0.0209
 4805TIP3    H135830   5.916   1.168   3.926 -0.4326  0.1008 -0.5861
 4805TIP3    H235831   6.060   1.125   3.906 -0.6889 -1.3956  0.5958
 4806TIP3   OH235832   1.008   2.982  16.480 -0.4149  0.1541  0.2944
 4806TIP3    H135833   1.080   3.006  16.421 -0.6373 -0.2094 -0.1260
 4806TIP3    H235834   0.974   2.900  16.445 -0.3060 -0.2705  1.1447
 4807TIP3   OH235835   2.121   3.382  16.282 -0.2329  0.0179 -0.0498
 4807TIP3    H135836   2.124   3.420  16.194 -1.1047 -1.7786 -0.9042
 4807TIP3    H235837   2.125   3.458  16.341  0.1638  1.2726 -1.6204
 4808TIP3   OH235838   5.061   6.059  10.465 -1.0435 -0.2684  0.6767
 4808TIP3    H135839   5.019   6.035  10.382  1.5935  0.2666 -0.9268
 4808TIP3    H235840   5.073   6.153  10.459 -1.1293 -0.1775  1.8477
 4809TIP3   OH235841   0.220   2.363   4.113  0.8375  0.4538  0.5801
 4809TIP3    H135842   0.127   2.340   4.120  0.5252  2.0706  2.4446
 4809TIP3    H235843   0.258   2.291   4.062 -1.4769 -0.0506 -0.5939
 4810TIP3   OH235844   0.090   6.628  13.363  0.3481  0.3791  0.0762
 4810TIP3    H135845   0.050   6.697  13.309 -0.8681 -0.2520  0.1255
 4810TIP3    H235846   0.027   6.614  13.434  2.3532  1.8922  2.3058
 4811TIP3   OH235847   6.035   4.477  14.187 -0.6427 -0.2732  0.1562
 4811TIP3    H135848   6.113   4.484  14.133 -0.4326 -0.7944  0.3846
 4811TIP3    H235849   6.043   4.392  14.230 -0.5742  0.3289  1.3673
 4812TIP3   OH235850   5.889   2.421   0.078 -0.0097 -0.1596 -0.0680
 4812TIP3    H135851   5.893   2.395  -0.014  1.8137  2.1377 -0.7309
 4812TIP3    H235852   5.809   2.475   0.085  0.4606  0.6250 -0.6169
 4813TIP3   OH235853   1.913   1.034   0.217  0.0443 -0.1540 -0.1886
 4813TIP3    H135854   1.883   1.024   0.127  1.6985 -0.5396 -0.7231
 4813TIP3    H235855   1.904   0.947   0.256  1.2298 -0.4906 -0.6181
 4814TIP3   OH235856   0.062   5.986  14.298  0.3201 -0.4130 -0.2748
 4814TIP3    H135857   0.133   6.028  14.346  0.4601  0.3058 -1.0960
 4814TIP3    H235858   0.051   5.901  14.341 -0.0856  0.5039  1.5349
 4815TIP3   OH235859   4.335   5.065  13.852  0.3697  0.3118  0.1330
 4815TIP3    H135860   4.266   5.011  13.813  0.3156  0.6568 -0.2507
 4815TIP3    H235861   4.416   5.016  13.837  0.1186 -0.5736  1.4306
 4816TIP3   OH235862   3.918   5.009  12.503  0.0960  0.3395  0.1245
 4816TIP3    H135863   3.855   5.065  12.459  2.3129  3.1953  0.2981
 4816TIP3    H235864   3.988   4.996  12.438 -0.3031 -2.3040  0.1032
 4817TIP3   OH235865   6.574   0.397  17.058 -0.0716 -0.0665  0.1731
 4817TIP3    H135866   6.665   0.389  17.031 -0.5632 -2.2455 -1.1202
 4817TIP3    H235867   6.578   0.415  17.152  1.6609  3.5453 -0.4386
 4818TIP3   OH235868   0.518   2.029   0.270 -0.8105  0.2076 -0.6541
 4818TIP3    H135869   0.440   2.084   0.272 -0.4807  0.6683 -0.4533
 4818TIP3    H235870   0.578   2.075   0.211  0.5188  1.5024  1.5676
 4819TIP3   OH235871   2.950   2.868   4.936  0.2318 -0.2294 -0.0229
 4819TIP3    H135872   3.044   2.863   4.953  0.3334 -3.1179 -0.8030
 4819TIP3    H235873   2.922   2.777   4.926 -2.7995  0.4768  0.7561
 4820TIP3   OH235874   4.403   2.554   1.088 -0.2903  0.1426 -0.1527
 4820TIP3    H135875   4.439   2.614   1.153  0.5911 -1.5791  1.0365
 4820TIP3    H235876   4.308   2.558   1.102 -0.1383  0.1435  0.9305
 4821TIP3   OH235877   4.524   5.657  16.642 -0.5868  0.2948  0.0109
 4821TIP3    H135878   4.543   5.751  16.647  0.9798 -0.0246  0.4592
 4821TIP3    H235879   4.540   5.634  16.550  0.9804  0.1084  0.2985
 4822TIP3   OH235880   2.702   4.737  13.994  0.5412  0.1128 -0.1029
 4822TIP3    H135881   2.764   4.737  14.067  0.9298 -0.8162 -0.4230
 4822TIP3    H235882   2.747   4.785  13.924  0.7542 -0.2378 -0.2086
 4823TIP3   OH235883   4.016   2.150   4.653 -1.1104 -0.0201 -0.4073
 4823TIP3    H135884   4.026   2.136   4.747  2.0513 -0.7960 -0.7413
 4823TIP3    H235885   3.941   2.097   4.628 -0.1033 -2.3783  1.2350
 4824TIP3   OH235886   6.725   3.316  15.577  0.0059 -0.4508  0.1743
 4824TIP3    H135887   6.721   3.244  15.514  2.8780 -0.8323  0.2793
 4824TIP3    H235888   6.718   3.274  15.663 -1.2382 -0.2224  0.2085
 4825TIP3   OH235889   3.409   5.657  13.179 -0.1067  0.2719 -0.2351
 4825TIP3    H135890   3.403   5.621  13.091 -0.0493 -1.8169  0.5715
 4825TIP3    H235891   3.475   5.605  13.223 -0.3462  1.0741  1.1535
 4826TIP3   OH235892   3.380   1.488  14.803  0.1743  0.2316  0.1011
 4826TIP3    H135893   3.311   1.544  14.839 -0.5183 -0.9133  0.6272
 4826TIP3    H235894   3.333   1.411  14.771  1.2283 -0.6622  0.6429
 4827TIP3   OH235895   6.446   1.654  15.620 -0.5527  0.0581  0.2673
 4827TIP3    H135896   6.499   1.575  15.636 -0.7742  0.0648  1.0600
 4827TIP3    H235897   6.437   1.657  15.525  1.3494  0.3695  0.0487
 4828TIP3   OH235898   5.410   6.414  13.680 -0.2062  0.3503  0.0375
 4828TIP3    H135899   5.478   6.481  13.672 -0.8881  1.0830  0.1733
 4828TIP3    H235900   5.331   6.464  13.702 -0.3971 -0.6606  1.7497
 4829TIP3   OH235901   2.809   3.514  12.730 -0.0945 -0.4530 -0.3250
 4829TIP3    H135902   2.747   3.528  12.802 -0.9319 -1.6787 -0.7686
 4829TIP3    H235903   2.876   3.581  12.742  0.7529 -1.6517  2.6328
 4830TIP3   OH235904   3.028   3.997  13.624 -0.8810  0.1235 -0.3372
 4830TIP3    H135905   3.021   3.964  13.713 -0.5524  0.7578 -0.0664
 4830TIP3    H235906   3.046   4.091  13.635  1.7291 -0.2285 -1.0256
 4831TIP3   OH235907   2.285   5.009   4.620  0.0825 -0.5399 -0.3006
 4831TIP3    H135908   2.203   5.018   4.571  0.7294  0.0208 -1.3162
 4831TIP3    H235909   2.331   5.092   4.606 -1.1083  1.1686  4.0107
 4832TIP3   OH235910   2.042   0.365   4.613 -0.2015  0.7245  0.4524
 4832TIP3    H135911   1.968   0.304   4.620 -1.1357  1.9097  1.2441
 4832TIP3    H235912   2.072   0.355   4.522 -2.2099  1.1902 -0.3164
 4833TIP3   OH235913   3.647   3.463   1.843  0.1877  0.3804 -0.1386
 4833TIP3    H135914   3.566   3.513   1.832 -0.7131 -0.8859  0.4310
 4833TIP3    H235915   3.714   3.529   1.860 -0.6501  1.4817 -0.9316
 4834TIP3   OH235916   2.887   1.513  13.967 -0.0420  0.1121  0.3038
 4834TIP3    H135917   2.850   1.573  14.032 -1.2365  1.2006 -1.2856
 4834TIP3    H235918   2.972   1.487  14.004 -1.1663 -0.3163  2.8314
 4835TIP3   OH235919   1.727   4.170  16.694 -0.2077  0.0014  0.3624
 4835TIP3    H135920   1.794   4.238  16.693 -0.5487  0.3542  0.8664
 4835TIP3    H235921   1.774   4.090  16.673 -0.2226  0.7133 -2.8726
 4836TIP3   OH235922   4.994   0.669  11.570  0.2805 -0.0341  0.3899
 4836TIP3    H135923   4.995   0.581  11.607 -2.2263  0.2650  1.4284
 4836TIP3    H235924   4.970   0.657  11.478 -0.7955 -0.4356  0.7052
 4837TIP3   OH235925   1.891   1.091  16.746  0.0257  0.2326  0.0428
 4837TIP3    H135926   1.852   1.080  16.660 -0.1401 -2.6677  0.3851
 4837TIP3    H235927   1.863   1.014  16.796  2.6805  0.1650  1.6629
 4838TIP3   OH235928   2.514   3.887  13.421  0.2552  0.3789  0.4433
 4838TIP3    H135929   2.489   3.807  13.467 -1.2251  0.9624  0.7398
 4838TIP3    H235930   2.590   3.920  13.468 -0.5340  0.3553  1.7823
 4839TIP3   OH235931   5.088   4.613  11.364 -0.1069  0.1112  0.8670
 4839TIP3    H135932   5.064   4.674  11.434 -1.7352  2.0335 -1.1727
 4839TIP3    H235933   5.027   4.634  11.293 -1.9913 -5.1546  0.5155
 4840TIP3   OH235934   5.244   6.055   1.394  0.1266  0.7672  0.1100
 4840TIP3    H135935   5.313   6.050   1.460  0.1137  1.7615  0.2157
 4840TIP3    H235936   5.291   6.052   1.310  0.1005 -1.0975  0.1293
 4841TIP3   OH235937   4.108   0.623   6.199  0.2816  0.5819  0.5916
 4841TIP3    H135938   4.126   0.555   6.134 -4.1861  1.4375 -1.9208
 4841TIP3    H235939   4.095   0.574   6.281  1.6104 -1.0425 -0.1064
 4842TIP3   OH235940   0.516   3.177  11.629  0.4363  0.1151 -0.5583
 4842TIP3    H135941   0.597   3.143  11.594  1.8503  3.6971 -1.2068
 4842TIP3    H235942   0.457   3.182  11.554 -0.5147 -2.4825 -0.0878
 4843TIP3   OH235943   2.309   0.888  11.581 -0.5219  0.2232  0.2672
 4843TIP3    H135944   2.275   0.800  11.596  1.3824 -0.6763 -0.3789
 4843TIP3    H235945   2.395   0.888  11.622 -1.2850  2.5181  2.1040
 4844TIP3   OH235946   5.269   4.338  15.058  0.0847 -0.4434 -0.2226
 4844TIP3    H135947   5.296   4.270  14.996 -0.6126 -1.9910  1.1138
 4844TIP3    H235948   5.350   4.364  15.102  0.2869 -0.7225 -0.4276
 4845TIP3   OH235949   3.246   6.138  16.154 -0.2473  0.7807  0.2364
 4845TIP3    H135950   3.270   6.145  16.062 -2.6945  2.8872 -0.3393
 4845TIP3    H235951   3.256   6.227  16.188 -0.0014  0.1673  1.8705
 4846TIP3   OH235952   5.207   5.718   4.846 -0.3194  0.2109  0.5704
 4846TIP3    H135953   5.240   5.776   4.777  0.1654 -0.3492  0.3284
 4846TIP3    H235954   5.240   5.631   4.823 -1.5027 -0.2775  0.6161
 4847TIP3   OH235955   2.225   2.387  15.962  0.3828  0.5291  0.0735
 4847TIP3    H135956   2.251   2.347  15.880  0.5101  2.1375 -0.7060
 4847TIP3    H235957   2.133   2.363  15.973 -0.1242  1.6700 -1.4160
 4848TIP3   OH235958   5.041   2.568  10.738 -0.3133 -0.0402 -0.2395
 4848TIP3    H135959   4.978   2.560  10.810  0.1721 -0.2969  0.1631
 4848TIP3    H235960   5.126   2.571  10.782 -0.0979  1.6930 -0.6732
 4849TIP3   OH235961   1.657   4.113   6.569  0.2324  0.1218 -0.1254
 4849TIP3    H135962   1.603   4.041   6.602 -0.1024 -0.0592 -1.0550
 4849TIP3    H235963   1.747   4.084   6.585  0.0748  0.2081  0.9740
 4850TIP3   OH235964   3.775   4.280  12.702 -0.9133  0.6163  0.0414
 4850TIP3    H135965   3.836   4.290  12.775  0.0849 -0.9835 -0.5208
 4850TIP3    H235966   3.803   4.200  12.658 -1.7700  1.2803 -1.8260
 4851TIP3   OH235967   1.398   3.142  13.477 -0.0665 -0.3935 -0.1323
 4851TIP3    H135968   1.413   3.051  13.453  0.9738 -0.6770  1.4248
 4851TIP3    H235969   1.329   3.138  13.544  1.2896 -0.2898  1.3475
 4852TIP3   OH235970   2.767   6.082  16.641  0.0644  0.7125  0.4576
 4852TIP3    H135971   2.838   6.018  16.639 -0.0318  0.4912  2.3436
 4852TIP3    H235972   2.802   6.158  16.595  1.4316  0.5152  1.1268
 4853TIP3   OH235973   1.875   3.679  15.778  0.0955 -0.7545 -0.2234
 4853TIP3    H135974   1.842   3.756  15.731 -1.5462 -1.3926 -0.1788
 4853TIP3    H235975   1.960   3.707  15.812 -0.6162  1.1886  0.1227
 4854TIP3   OH235976   5.718   5.515   5.089 -0.6351 -0.1081 -0.4194
 4854TIP3    H135977   5.762   5.473   5.163  0.7257 -1.1177 -1.7220
 4854TIP3    H235978   5.776   5.588   5.066  0.3342 -1.3134 -2.0123
 4855TIP3   OH235979   3.852   0.333   6.344  0.6140 -0.5075 -0.2466
 4855TIP3    H135980   3.806   0.413   6.320  2.0668 -0.3146 -2.7270
 4855TIP3    H235981   3.934   0.363   6.383 -0.0080 -0.8506  1.4274
 4856TIP3   OH235982   0.610   3.719  14.381 -0.1888 -0.2070  0.1022
 4856TIP3    H135983   0.594   3.811  14.400 -0.1631 -0.0711 -0.4939
 4856TIP3    H235984   0.681   3.720  14.316  0.7069 -0.7002  1.0401
 4857TIP3   OH235985   3.395   1.290   1.543  0.1859 -0.1053 -0.4041
 4857TIP3    H135986   3.484   1.320   1.562  0.6357 -1.5619 -0.0987
 4857TIP3    H235987   3.370   1.241   1.620 -0.6398 -0.2611 -0.7674
 4858TIP3   OH235988   2.077   1.426  15.875  0.3829  0.3088  0.0350
 4858TIP3    H135989   2.055   1.359  15.939  0.5233  0.4187  0.2035
 4858TIP3    H235990   2.047   1.508  15.915  0.3791  0.3653 -0.0837
 4859TIP3   OH235991   1.639   1.723   5.061  0.5724 -0.0124 -0.0486
 4859TIP3    H135992   1.551   1.687   5.052  0.7887 -0.9251  1.2087
 4859TIP3    H235993   1.626   1.818   5.061  0.0256  0.0653 -3.8475
 4860TIP3   OH235994   6.171   2.301  14.991 -0.2828 -0.0805  0.3371
 4860TIP3    H135995   6.158   2.230  15.054  1.0491 -1.4454 -0.8469
 4860TIP3    H235996   6.115   2.278  14.917  0.1466  0.0924 -0.0491
 4861TIP3   OH235997   4.165   6.160   5.150 -0.5353 -0.4312  0.8197
 4861TIP3    H135998   4.252   6.194   5.170  0.6194 -0.5329 -3.0787
 4861TIP3    H235999   4.124   6.230   5.098 -2.3558 -0.8474  1.6357
 4862TIP3   OH236000   0.895   0.493   5.155  0.6689  0.1139 -0.2940
 4862TIP3    H136001   0.950   0.542   5.216 -0.5836  0.3774  0.6795
 4862TIP3    H236002   0.808   0.496   5.195  0.0347 -0.6361 -1.5755
 4863TIP3   OH236003   6.005   1.781   4.216  0.0565 -0.0904  0.0399
 4863TIP3    H136004   6.016   1.875   4.202 -0.3749  0.0268  0.4462
 4863TIP3    H236005   6.090   1.751   4.248  0.1326  0.2002  0.1110
 4864TIP3   OH236006   2.165   6.267   2.767  0.7510 -0.6705  0.1949
 4864TIP3    H136007   2.112   6.198   2.806 -0.1061  0.1586  0.5484
 4864TIP3    H236008   2.242   6.222   2.732  0.6257 -1.6767  1.1768
 4865TIP3   OH236009   6.342   2.860  17.082  0.1338  0.1005  0.0206
 4865TIP3    H136010   6.418   2.848  17.139 -0.0048  1.1742  0.4475
 4865TIP3    H236011   6.347   2.951  17.053  0.1374 -0.3847 -1.6064
 4866TIP3   OH236012   2.675   2.911  16.834  0.1399  0.4988  0.5372
 4866TIP3    H136013   2.704   2.990  16.879 -0.3474  0.4206  1.0010
 4866TIP3    H236014   2.633   2.943  16.754 -1.2177  0.8247  1.3320
 4867TIP3   OH236015   2.665   5.340   0.709  0.4113  0.0341 -0.3617
 4867TIP3    H136016   2.599   5.271   0.710  1.2236 -0.7826 -0.8118
 4867TIP3    H236017   2.618   5.419   0.734 -0.0171 -1.1106  2.8798
 4868TIP3   OH236018   3.333   3.016  13.225  0.1938 -0.2025 -0.3892
 4868TIP3    H136019   3.338   2.928  13.264  1.9830  0.4323  0.9686
 4868TIP3    H236020   3.382   3.071  13.286 -0.6857  1.7025 -1.3513
 4869TIP3   OH236021   5.519   0.282   6.791  0.4091  0.0731 -0.0039
 4869TIP3    H136022   5.583   0.340   6.748  0.4068 -1.1086 -1.7092
 4869TIP3    H236023   5.549   0.194   6.770 -1.1986 -0.5213  0.0479
 4870TIP3   OH236024   3.164   4.335  10.754  0.1026 -0.0600 -0.7986
 4870TIP3    H136025   3.165   4.272  10.826 -4.1533  1.8604  1.3523
 4870TIP3    H236026   3.111   4.292  10.686  0.0276 -0.0843 -0.7255
 4871TIP3   OH236027   0.808   0.395  14.315  0.1002 -0.7063 -0.4967
 4871TIP3    H136028   0.886   0.446  14.293 -1.1553  1.0223 -1.1965
 4871TIP3    H236029   0.783   0.352  14.232 -0.7303  0.2714 -0.7737
 4872TIP3   OH236030   4.116   2.105  12.928  0.0868  0.2498  0.3335
 4872TIP3    H136031   4.111   2.099  13.024  2.4814 -0.4718  0.4721
 4872TIP3    H236032   4.139   2.017  12.900  0.4983  0.7077 -0.8178
 4873TIP3   OH236033   5.409   1.494  14.971 -0.0578  0.5631  0.4584
 4873TIP3    H136034   5.328   1.520  15.013 -0.5463 -0.1873  0.0138
 4873TIP3    H236035   5.451   1.436  15.034  0.2662  1.1624  0.7986
 4874TIP3   OH236036   4.873   4.830  17.240  0.0447  0.4774  0.1478
 4874TIP3    H136037   4.963   4.802  17.227  0.0572  1.2015 -1.4440
 4874TIP3    H236038   4.875   4.925  17.232 -1.0567  0.4132 -1.3723
 4875TIP3   OH236039   2.019   1.764  12.949  0.6274 -0.1694  0.1598
 4875TIP3    H136040   2.078   1.817  12.895  0.6160 -0.7726 -0.4646
 4875TIP3    H236041   1.932   1.803  12.935  0.7298  0.1159  0.3099
 4876TIP3   OH236042   3.265   2.786  14.958  0.2639 -0.1140 -0.6871
 4876TIP3    H136043   3.255   2.759  15.049  1.3885  1.4092 -0.0777
 4876TIP3    H236044   3.239   2.709  14.907 -0.6176 -0.9040  0.9017
 4877TIP3   OH236045   0.844   2.134  11.501  0.4634 -0.5104 -0.0996
 4877TIP3    H136046   0.858   2.223  11.469  0.0994 -1.0027 -1.6948
 4877TIP3    H236047   0.760   2.138  11.547 -0.9039 -0.5591 -2.4454
 4878TIP3   OH236048   0.904   0.014   1.289 -0.1562 -0.1853 -0.0174
 4878TIP3    H136049   0.966   0.019   1.362 -0.5474 -0.4627  0.3414
 4878TIP3    H236050   0.843  -0.055   1.315 -0.8405  0.3500 -0.1914
 4879TIP3   OH236051   3.832   6.574  12.013 -0.2716 -0.0386 -0.0188
 4879TIP3    H136052   3.772   6.584  12.087 -0.8752  0.3165 -0.5441
 4879TIP3    H236053   3.816   6.485  11.982 -0.3389 -0.0322 -0.0027
 4880TIP3   OH236054   1.567   1.248   3.570  0.0100 -0.6113  0.1447
 4880TIP3    H136055   1.576   1.292   3.485 -0.7451 -1.2120 -0.2628
 4880TIP3    H236056   1.656   1.244   3.605 -0.0255  2.5669  0.8913
 4881TIP3   OH236057   0.574   6.566  13.606  0.2646 -0.3565  0.3438
 4881TIP3    H136058   0.549   6.475  13.619 -0.2036 -0.1959  0.6238
 4881TIP3    H236059   0.503   6.603  13.553 -0.3410  0.2210  1.5194
 4882TIP3   OH236060   4.322   5.824   3.207  0.4251  0.0791 -0.2056
 4882TIP3    H136061   4.328   5.747   3.151  2.1568 -1.0915  1.4731
 4882TIP3    H236062   4.398   5.877   3.183  1.2584 -0.4966  1.0823
 4883TIP3   OH236063   2.111   6.741  11.710 -0.0248 -0.4118 -0.0926
 4883TIP3    H136064   2.131   6.672  11.773  0.5878  0.3370  0.5548
 4883TIP3    H236065   2.137   6.822  11.754 -1.3906  0.3065 -0.5694
 4884TIP3   OH236066   4.815   4.344   0.778  0.5711 -0.2769  0.1768
 4884TIP3    H136067   4.736   4.293   0.796 -0.0920  0.8917  0.7258
 4884TIP3    H236068   4.884   4.300   0.827  0.3823 -1.6135 -0.7180
 4885TIP3   OH236069   0.861   3.682   4.409  0.7095  0.4232 -0.1202
 4885TIP3    H136070   0.798   3.720   4.469  1.2310  2.1260 -0.6087
 4885TIP3    H236071   0.920   3.632   4.466  0.2452  0.6681  0.5899
 4886TIP3   OH236072   6.343   1.043   2.884 -0.0097  0.4387 -0.0714
 4886TIP3    H136073   6.421   0.988   2.878 -1.1525 -1.6506  2.3769
 4886TIP3    H236074   6.375   1.126   2.920  1.3657  0.4727 -1.2655
 4887TIP3   OH236075   0.673   2.437  13.436 -0.2938  0.1721 -0.3801
 4887TIP3    H136076   0.730   2.396  13.371  1.9246 -1.0120  2.1464
 4887TIP3    H236077   0.726   2.507  13.474 -0.3200 -1.1480  2.2636
 4888TIP3   OH236078   5.464   5.798   1.272 -0.4539  0.5481  0.3950
 4888TIP3    H136079   5.393   5.774   1.331  0.0413 -0.4942  0.5888
 4888TIP3    H236080   5.473   5.723   1.214  1.5323 -0.0198  1.3721
 4889TIP3   OH236081   5.903   0.096  11.764 -0.2749 -0.2619  0.2175
 4889TIP3    H136082   5.835   0.101  11.697  1.1133  1.8692 -1.1419
 4889TIP3    H236083   5.891   0.176  11.816  0.6121 -0.3144  0.5237
 4890TIP3   OH236084   0.626   2.249   1.909  0.2745  0.1953  0.0760
 4890TIP3    H136085   0.703   2.302   1.929  1.2444 -0.5175 -1.5446
 4890TIP3    H236086   0.566   2.308   1.864  0.5471  0.3581 -0.0703
 4891TIP3   OH236087   2.068   4.684   3.487  0.0412  0.3097 -0.2801
 4891TIP3    H136088   2.042   4.691   3.395  0.6230 -0.9187 -0.5533
 4891TIP3    H236089   2.028   4.603   3.517  1.5237 -0.3598 -0.0296
 4892TIP3   OH236090   5.193   0.965   4.789  0.2160 -0.1916 -0.1733
 4892TIP3    H136091   5.201   0.881   4.743  0.5363 -0.7412  0.8511
 4892TIP3    H236092   5.169   1.028   4.721 -1.7508 -1.4215 -0.6745
 4893TIP3   OH236093   2.264   0.441  14.479 -0.1675  0.2652  0.0272
 4893TIP3    H136094   2.184   0.388  14.482 -3.4998  4.3132 -3.7156
 4893TIP3    H236095   2.317   0.401  14.410  0.3348 -1.3619  1.2733
 4894TIP3   OH236096   4.107   5.008   5.788 -0.6234  0.5035  0.2541
 4894TIP3    H136097   4.079   5.069   5.719  1.2929  0.4812 -0.6178
 4894TIP3    H236098   4.120   4.925   5.742 -2.2721 -0.3465  1.2505
 4895TIP3   OH236099   5.560   4.232  16.524 -0.3057  0.3510  0.0208
 4895TIP3    H136100   5.613   4.312  16.526 -0.0490  0.1745  1.1877
 4895TIP3    H236101   5.558   4.203  16.615  0.2145 -1.3747 -0.4918
 4896TIP3   OH236102   5.415   6.150  11.621  0.5626 -0.2595  0.0014
 4896TIP3    H136103   5.440   6.128  11.711 -0.3160 -0.9262  0.0906
 4896TIP3    H236104   5.498   6.165  11.576  1.0128  0.2163  0.9516
 4897TIP3   OH236105   1.389   6.236   5.384  0.3727 -0.2176  0.0230
 4897TIP3    H136106   1.307   6.187   5.390  1.0169 -1.2489  0.8048
 4897TIP3    H236107   1.362   6.324   5.360 -0.9866 -0.4697  0.4933
 4898TIP3   OH236108   6.295   3.192   4.528 -0.1595 -0.4292  0.1574
 4898TIP3    H136109   6.384   3.225   4.538 -0.8105  1.3997  0.3530
 4898TIP3    H236110   6.253   3.210   4.612 -0.9793 -0.4226 -0.2398
 4899TIP3   OH236111   1.320   0.563  14.518  0.0051  0.1641  0.2981
 4899TIP3    H136112   1.310   0.469  14.499 -0.5012  0.2352  0.1881
 4899TIP3    H236113   1.256   0.605  14.461  0.8876  0.6642 -0.3483
 4900TIP3   OH236114   5.170   6.756  16.836  0.1889 -0.0983  0.0893
 4900TIP3    H136115   5.174   6.825  16.770  1.9359 -0.4154 -0.1874
 4900TIP3    H236116   5.215   6.794  16.912 -0.1736 -0.3948  0.4566
 4901TIP3   OH236117   3.373   2.665   4.281  0.2198  0.2822 -0.7464
 4901TIP3    H136118   3.295   2.666   4.225  1.0813  1.4441 -1.9994
 4901TIP3    H236119   3.446   2.678   4.220  1.2716  0.7425  0.5656
 4902TIP3   OH236120   3.903   4.236   4.738  0.0516 -0.7459 -0.6226
 4902TIP3    H136121   3.846   4.187   4.798  1.5175 -3.2952 -1.1402
 4902TIP3    H236122   3.896   4.327   4.766 -0.8129 -1.5834  2.1544
 4903TIP3   OH236123   6.716   2.469  14.976 -0.0410  0.7007 -0.4328
 4903TIP3    H136124   6.798   2.516  14.956  0.8164 -0.4179  0.3291
 4903TIP3    H236125   6.740   2.407  15.045 -1.1048 -0.9276 -1.4519
 4904TIP3   OH236126   1.951   0.549  14.687  0.7067 -0.1190  0.0636
 4904TIP3    H136127   1.868   0.596  14.691  1.9428  2.1915  0.1280
 4904TIP3    H236128   1.937   0.480  14.622 -0.8302  1.1471 -1.0053
 4905TIP3   OH236129   0.498   0.872   3.489  0.0483 -0.0769 -0.3732
 4905TIP3    H136130   0.583   0.827   3.485 -0.3447 -0.8589 -0.1690
 4905TIP3    H236131   0.492   0.918   3.405 -0.5859 -2.4108 -1.7163
 4906TIP3   OH236132   1.271   4.276  14.939  0.0170  0.0887 -0.4873
 4906TIP3    H136133   1.271   4.248  14.848 -0.7255  0.0097 -0.4719
 4906TIP3    H236134   1.355   4.321  14.951 -0.4692  1.3786 -1.6100
 4907TIP3   OH236135   1.302   3.153   6.204  0.1236 -0.1805 -0.5002
 4907TIP3    H136136   1.209   3.175   6.193  0.4871  1.2967 -0.7415
 4907TIP3    H236137   1.304   3.099   6.283 -0.6117  2.1933  1.2568
 4908TIP3   OH236138   5.054   4.913  16.587 -0.0559  0.1057 -0.0258
 4908TIP3    H136139   4.975   4.880  16.544  0.3604  0.6121 -1.2338
 4908TIP3    H236140   5.050   5.008  16.575  1.4395  0.0417 -1.4551
 4909TIP3   OH236141   2.592   5.461  16.191 -0.0864  0.1612  0.1031
 4909TIP3    H136142   2.624   5.493  16.107 -2.8705 -0.6472 -1.3913
 4909TIP3    H236143   2.555   5.539  16.233  2.3827  0.8167  1.2276
 4910TIP3   OH236144   0.212   3.180  13.270  0.2830  0.3376  0.0064
 4910TIP3    H136145   0.229   3.118  13.341 -0.9055  1.0470  0.9628
 4910TIP3    H236146   0.163   3.251  13.312  0.2727  1.1813 -1.3665
 4911TIP3   OH236147   0.471   1.507   4.843  0.0149  0.2209  0.3892
 4911TIP3    H136148   0.399   1.498   4.781  0.1162  0.1414  0.2839
 4911TIP3    H236149   0.438   1.468   4.924  0.1224 -0.2606  0.2000
 4912TIP3   OH236150   1.704   3.465  12.984  0.0057  0.2581  0.0766
 4912TIP3    H136151   1.770   3.525  12.950  1.2699 -0.9998  0.2404
 4912TIP3    H236152   1.693   3.490  13.076  0.1033  0.5921 -0.0038
 4913TIP3   OH236153   4.158   3.813   4.398 -0.3357 -0.6513  0.2744
 4913TIP3    H136154   4.217   3.877   4.438 -2.1480  1.0283  0.4161
 4913TIP3    H236155   4.172   3.824   4.304 -0.7684  0.1072  0.2923
 4914TIP3   OH236156   1.651   0.220  15.099  0.6850  0.2910  0.4186
 4914TIP3    H136157   1.605   0.145  15.061  3.2340 -2.2491  1.9148
 4914TIP3    H236158   1.609   0.297  15.059 -1.3404 -1.9010 -2.0801
 4915TIP3   OH236159   6.094   5.935   4.297 -0.2325 -0.4833 -0.3059
 4915TIP3    H136160   6.011   5.981   4.285 -0.2660 -0.5049 -0.1577
 4915TIP3    H236161   6.161   6.001   4.279 -0.2803 -0.4521 -0.3722
 4916TIP3   OH236162   4.404   0.719   3.279  0.3298  0.6901 -0.1146
 4916TIP3    H136163   4.351   0.735   3.357  0.3530  0.8910 -0.1403
 4916TIP3    H236164   4.478   0.779   3.288  0.5303  0.4397 -0.1003
 4917TIP3   OH236165   5.192   4.818   0.334  0.2984  0.3897 -0.0791
 4917TIP3    H136166   5.189   4.798   0.428 -0.3175 -0.1654 -0.2070
 4917TIP3    H236167   5.108   4.787   0.301  0.6361  0.3077 -0.8747
 4918TIP3   OH236168   1.701   6.121   5.777 -0.5050  0.1367  0.4458
 4918TIP3    H136169   1.698   6.125   5.682 -2.2711 -1.7317  0.3529
 4918TIP3    H236170   1.619   6.077   5.802 -0.3323  1.0351  2.8579
 4919TIP3   OH236171   2.255   5.252   2.726 -0.2066 -0.3988  0.0297
 4919TIP3    H136172   2.308   5.329   2.747 -1.1995  0.4399 -0.4864
 4919TIP3    H236173   2.302   5.211   2.653  0.2018 -0.1632  0.1524
 4920TIP3   OH236174   4.207   3.313   5.598  0.8830  0.2570  0.0335
 4920TIP3    H136175   4.112   3.311   5.588  0.9638 -0.7897 -0.7794
 4920TIP3    H236176   4.228   3.228   5.637  1.4821  0.5202  0.2929
 4921TIP3   OH236177   6.576   3.902  14.945  0.2430 -0.4187 -0.2403
 4921TIP3    H136178   6.549   3.993  14.933  0.1044 -0.4892 -0.4529
 4921TIP3    H236179   6.658   3.894  14.897 -1.2585 -1.2104 -2.8420
 4922TIP3   OH236180   0.101   0.519   0.924 -0.2232 -0.1752 -0.7970
 4922TIP3    H136181   0.154   0.442   0.945  1.1000  0.1426 -2.6930
 4922TIP3    H236182   0.016   0.483   0.899 -1.5564 -0.6257  3.5685
 4923TIP3   OH236183   1.733   2.877   0.307 -0.0181 -0.8221  0.0853
 4923TIP3    H136184   1.731   2.840   0.396  0.3355 -0.5908  0.1929
 4923TIP3    H236185   1.755   2.803   0.251  3.8836 -0.3113  0.6146
 4924TIP3   OH236186   1.570   0.683   0.844  0.1195 -0.0606 -0.3274
 4924TIP3    H136187   1.632   0.699   0.916  1.0638 -0.5084 -1.0080
 4924TIP3    H236188   1.555   0.588   0.847 -1.3923  0.1803  0.4877
 4925TIP3   OH236189   5.161   3.872  15.850  0.4734 -0.7693 -0.0980
 4925TIP3    H136190   5.218   3.942  15.819  1.1802 -0.5328  1.6558
 4925TIP3    H236191   5.076   3.892  15.811  0.5378  1.3547  0.7314
 4926TIP3   OH236192   4.485   0.979  15.592 -0.0411  0.5770  0.3934
 4926TIP3    H136193   4.527   1.035  15.657  0.3787  0.9315 -0.1642
 4926TIP3    H236194   4.546   0.906  15.581 -0.0532  0.5772  0.3227
 4927TIP3   OH236195   0.204   5.423   3.297  0.2011  0.2954  0.3479
 4927TIP3    H136196   0.246   5.430   3.212 -0.3883 -1.0348 -0.0842
 4927TIP3    H236197   0.239   5.496   3.348  0.6201  1.0573 -0.9985
 4928TIP3   OH236198   0.989   1.765   1.617  0.7851 -0.4023  0.1069
 4928TIP3    H136199   0.986   1.735   1.526  2.8236  0.4376 -0.2858
 4928TIP3    H236200   0.945   1.850   1.616  1.3593 -0.1050 -0.2320
 4929TIP3   OH236201   1.186   1.373   1.851  0.1384  0.1274  0.0392
 4929TIP3    H136202   1.249   1.327   1.795 -0.9458  0.8317 -1.8713
 4929TIP3    H236203   1.152   1.306   1.910  1.7247 -0.5333  0.2532
 4930TIP3   OH236204   6.608   1.487  14.575 -0.1934 -0.2437 -0.3873
 4930TIP3    H136205   6.578   1.510  14.488 -0.0865 -0.3358 -0.4484
 4930TIP3    H236206   6.547   1.419  14.604  0.1996 -0.7177 -0.6727
 4931TIP3   OH236207   5.381   6.264   4.286  0.2868  0.0971  0.2651
 4931TIP3    H136208   5.434   6.232   4.358  1.7096  1.0238 -0.3338
 4931TIP3    H236209   5.291   6.242   4.310  0.9021 -1.1585  1.4786
 4932TIP3   OH236210   2.346   5.935  14.734 -0.5536 -0.2233  0.0602
 4932TIP3    H136211   2.425   5.943  14.681 -0.4979 -0.3173  0.1290
 4932TIP3    H236212   2.355   6.001  14.802  0.3820 -1.5285  1.2458
 4933TIP3   OH236213   0.987   6.251   4.957 -0.9227  0.1437 -0.5835
 4933TIP3    H136214   0.966   6.165   4.991  0.0056 -1.1058 -2.9509
 4933TIP3    H236215   0.906   6.301   4.967 -0.8329 -0.1847  2.9047
 4934TIP3   OH236216   6.306   2.952   0.098 -0.1408 -0.5454 -0.4284
 4934TIP3    H136217   6.389   2.915   0.127  0.7759  0.5667 -1.5068
 4934TIP3    H236218   6.244   2.880   0.105  0.8834 -1.3690  0.4986
 4935TIP3   OH236219   4.096   0.492   0.764  0.0737 -0.3666 -0.5135
 4935TIP3    H136220   4.036   0.539   0.822  0.9660  0.3054 -0.1191
 4935TIP3    H236221   4.081   0.399   0.784 -0.0612 -0.1654  0.3481
 4936TIP3   OH236222   6.424   1.481  13.733 -0.3162 -0.1605  0.6286
 4936TIP3    H136223   6.514   1.461  13.705 -1.3704 -0.7799 -2.7699
 4936TIP3    H236224   6.436   1.542  13.806  2.8728  0.0049  0.1489
 4937TIP3   OH236225   2.913   6.698   1.422 -0.5067  0.3151 -0.1312
 4937TIP3    H136226   2.954   6.643   1.490 -0.7263 -1.5154 -1.4063
 4937TIP3    H236227   2.819   6.692   1.439 -0.7408 -1.8579 -1.7045
 4938TIP3   OH236228   1.534   4.195   2.422 -0.1603  0.3827  0.0811
 4938TIP3    H136229   1.441   4.173   2.428  0.3782 -2.0451  1.0590
 4938TIP3    H236230   1.564   4.148   2.344  0.4280  0.2866  0.3619
 4939TIP3   OH236231   2.388   1.643   4.825 -0.4036  0.3293  0.2179
 4939TIP3    H136232   2.414   1.557   4.859 -0.0474  1.1913  2.2500
 4939TIP3    H236233   2.467   1.696   4.833 -0.1334  0.4760 -2.5564
 4940TIP3   OH236234   5.964   1.929  13.299 -0.2323 -0.0030 -0.0659
 4940TIP3    H136235   5.989   2.019  13.279 -0.0330  0.1966  1.0421
 4940TIP3    H236236   6.007   1.910  13.382  0.5384 -1.4588 -0.7590
 4941TIP3   OH236237   5.597   5.156  12.509 -0.5682  0.1751 -0.2312
 4941TIP3    H136238   5.644   5.175  12.428 -0.7237  0.9274 -0.1474
 4941TIP3    H236239   5.603   5.236  12.561  0.5508 -0.6770  1.0136
 4942TIP3   OH236240   0.961   3.089  17.164 -0.2998  0.1363  0.0086
 4942TIP3    H136241   0.991   3.052  17.082 -1.0779  0.4569 -0.4340
 4942TIP3    H236242   0.890   3.150  17.139  0.3110  1.2110  0.7908
 4943TIP3   OH236243   1.198   4.348   1.935 -0.3120 -0.3986 -0.0909
 4943TIP3    H136244   1.177   4.255   1.938 -0.2222 -0.3978  0.8386
 4943TIP3    H236245   1.114   4.391   1.920 -0.7571 -0.5043  1.8115
 4944TIP3   OH236246   0.347   0.100   5.074  0.0277 -0.3647 -0.3730
 4944TIP3    H136247   0.345   0.120   4.980  1.0304  0.2505 -0.2862
 4944TIP3    H236248   0.261   0.126   5.106 -0.3771 -0.7181 -1.1494
 4945TIP3   OH236249   2.508   1.382   2.980 -0.0730  0.3585 -0.3112
 4945TIP3    H136250   2.553   1.299   2.969 -2.6495 -1.2620  0.4391
 4945TIP3    H236251   2.437   1.379   2.916  0.2924  2.4142 -0.8856
 4946TIP3   OH236252   5.991   4.360  16.415  0.4270 -0.1908 -0.3358
 4946TIP3    H136253   5.962   4.269  16.404  0.7765 -0.4856  0.9835
 4946TIP3    H236254   6.077   4.363  16.375 -0.0522 -0.1366 -1.3974
 4947TIP3   OH236255   0.902   0.535  11.668 -0.2536  0.1107  0.3430
 4947TIP3    H136256   0.871   0.467  11.608 -0.4902 -1.5898  2.3035
 4947TIP3    H236257   0.945   0.487  11.739 -0.9251  1.9744  2.0957
 4948TIP3   OH236258   1.954   2.065   1.582 -0.1629  0.2068 -0.0914
 4948TIP3    H136259   1.944   2.084   1.676 -1.8674  1.6771 -0.5124
 4948TIP3    H236260   1.903   1.985   1.568  3.7641 -2.7894  0.9506
 4949TIP3   OH236261   5.550   3.437   4.581  0.0135 -0.2938  0.3856
 4949TIP3    H136262   5.535   3.420   4.488  0.5240  3.6552 -0.5820
 4949TIP3    H236263   5.467   3.415   4.624 -0.7561 -0.6661 -1.2261
 4950TIP3   OH236264   1.425   1.845   5.714 -0.3127 -0.3568 -0.3106
 4950TIP3    H136265   1.398   1.847   5.622 -0.4839 -1.2107 -0.2812
 4950TIP3    H236266   1.440   1.937   5.736 -1.5751 -0.0088 -0.8078
 4951TIP3   OH236267   0.434   1.533   0.325 -0.4204 -0.4986 -0.1105
 4951TIP3    H136268   0.465   1.442   0.331 -0.2309 -0.4454 -0.2772
 4951TIP3    H236269   0.416   1.558   0.415  0.0075 -0.5352 -0.0145
 4952TIP3   OH236270   5.189   4.358  11.423  0.0907  0.6038 -0.3623
 4952TIP3    H136271   5.165   4.448  11.400  0.7312  0.4303 -1.8035
 4952TIP3    H236272   5.250   4.331  11.354  0.2774 -0.7774  0.3109
 4953TIP3   OH236273   3.814   1.956  13.877 -0.2523  0.0438  0.4674
 4953TIP3    H136274   3.863   1.903  13.814 -0.1195 -2.0131  2.1620
 4953TIP3    H236275   3.730   1.910  13.886 -0.3904  0.4696  1.5156
 4954TIP3   OH236276   6.253   3.440  15.639  0.2007  0.2526  0.5027
 4954TIP3    H136277   6.244   3.422  15.545 -1.2457  2.7775  0.0609
 4954TIP3    H236278   6.238   3.355  15.681 -2.0704 -0.4407 -1.4541
 4955TIP3   OH236279   2.757   5.107  15.236  0.5031 -0.4449  0.0328
 4955TIP3    H136280   2.675   5.095  15.284  0.1006  0.7536 -0.3317
 4955TIP3    H236281   2.794   5.019  15.229  0.3580 -0.7201  2.1375
 4956TIP3   OH236282   5.774   5.561  15.240  0.2929 -0.2742  0.1291
 4956TIP3    H136283   5.849   5.607  15.277  0.3793  0.0230 -0.4028
 4956TIP3    H236284   5.812   5.488  15.192  0.3325  0.4264 -0.9562
 4957TIP3   OH236285   1.129   2.521   4.467 -0.5668  0.0303  0.1987
 4957TIP3    H136286   1.038   2.529   4.436  0.4834 -1.8881 -4.1468
 4957TIP3    H236287   1.174   2.595   4.428  0.1170 -0.2464  0.4552
 4958TIP3   OH236288   4.485   6.187  12.373 -0.6032  0.2432  0.4754
 4958TIP3    H136289   4.559   6.157  12.425 -0.8867 -0.8343  0.2822
 4958TIP3    H236290   4.446   6.107  12.338 -0.1115  0.9403 -1.8333
 4959TIP3   OH236291   4.296   1.622  16.383 -0.5049  0.0694  0.2342
 4959TIP3    H136292   4.259   1.541  16.347  0.3022  0.0958 -0.6950
 4959TIP3    H236293   4.314   1.676  16.306 -0.1303  0.7392  0.7857
 4960TIP3   OH236294   2.588   4.241  10.388  0.1357  0.6744  0.3525
 4960TIP3    H136295   2.650   4.248  10.316 -0.1679  1.2938  0.1432
 4960TIP3    H236296   2.599   4.151  10.421 -0.6665 -0.0938 -1.3303
 4961TIP3   OH236297   6.548   0.792  14.718  0.2438 -0.0808 -0.6371
 4961TIP3    H136298   6.637   0.789  14.754  0.6912 -0.1148 -1.6988
 4961TIP3    H236299   6.521   0.883  14.728  0.6308  0.0589 -0.8389
 4962TIP3   OH236300   2.134   1.732   6.599  0.3825  0.2215 -0.6176
 4962TIP3    H136301   2.197   1.663   6.579  0.1757 -0.2537  0.3259
 4962TIP3    H236302   2.118   1.775   6.515  0.6290 -0.7833 -1.1967
 4963TIP3   OH236303   0.037   0.535  11.782 -0.0416 -0.2485  0.0413
 4963TIP3    H136304   0.012   0.477  11.710 -2.4716  0.8929 -0.1420
 4963TIP3    H236305  -0.046   0.555  11.826  0.9820  1.5076  1.2849
 4964TIP3   OH236306   2.255   2.459   4.757  0.2433  0.1641  0.0315
 4964TIP3    H136307   2.167   2.482   4.728  0.2178  1.4626  1.0461
 4964TIP3    H236308   2.254   2.476   4.851  1.5254  0.0579  0.0784
 4965TIP3   OH236309   4.801   6.660   0.891  0.2196  0.1764 -0.2647
 4965TIP3    H136310   4.888   6.681   0.859  0.4729 -1.9658 -1.1484
 4965TIP3    H236311   4.809   6.663   0.987  1.8347 -1.8315 -0.2651
 4966TIP3   OH236312   4.730   6.441   3.473  1.0553  0.7389  0.0443
 4966TIP3    H136313   4.734   6.537   3.465 -0.4916  1.0687  2.2391
 4966TIP3    H236314   4.664   6.426   3.541 -0.3149 -1.9963 -1.7386
 4967TIP3   OH236315   3.881   0.632   4.546  0.1253 -0.3972  0.1491
 4967TIP3    H136316   3.954   0.677   4.588 -0.8847 -0.7222  2.3756
 4967TIP3    H236317   3.887   0.542   4.577 -1.1664 -0.4405  0.3309
 4968TIP3   OH236318   3.792   0.461   2.381  0.2567  0.2713  0.1209
 4968TIP3    H136319   3.785   0.368   2.360  1.4434 -0.0239  0.9431
 4968TIP3    H236320   3.715   0.500   2.341  1.5132 -0.4713 -3.4572
 4969TIP3   OH236321   5.693   2.997  13.957 -0.3520 -0.0251 -0.3115
 4969TIP3    H136322   5.652   2.940  13.893 -2.0306 -0.8188  1.3790
 4969TIP3    H236323   5.622   3.051  13.991  0.5864  0.7197  0.5516
 4970TIP3   OH236324   4.525   1.318  17.369  0.0654  0.3569 -0.0743
 4970TIP3    H136325   4.508   1.225  17.386  1.1669  0.2260  0.4028
 4970TIP3    H236326   4.569   1.349  17.448  1.2342  0.8585 -0.8960
 4971TIP3   OH236327   4.694   6.059   0.634  0.7108 -0.0068  0.3858
 4971TIP3    H136328   4.768   6.101   0.678  2.0219 -1.2981 -0.4903
 4971TIP3    H236329   4.650   6.010   0.703 -0.1471  1.7805  1.1806
 4972TIP3   OH236330   6.314   4.900   4.442  0.5986 -0.3498 -0.0865
 4972TIP3    H136331   6.378   4.944   4.385 -0.3852  0.6091 -0.5018
 4972TIP3    H236332   6.317   4.949   4.524  1.9583 -1.6829  0.7033
 4973TIP3   OH236333   4.982   3.695  11.401  0.2741 -0.4119 -0.1915
 4973TIP3    H136334   4.899   3.670  11.441  1.8335 -0.8050  3.2223
 4973TIP3    H236335   5.007   3.620  11.348 -0.9469 -0.8145 -0.2244
 4974TIP3   OH236336   5.602   4.039   4.620  0.1426 -0.0524 -0.4046
 4974TIP3    H136337   5.666   4.085   4.673 -1.3638  1.9863 -0.2420
 4974TIP3    H236338   5.520   4.046   4.669 -0.6852 -0.6707 -1.6310
 4975TIP3   OH236339   4.144   3.025   5.462 -0.1157 -0.5739  0.4635
 4975TIP3    H136340   4.192   2.967   5.403 -1.2625 -1.4932  0.4046
 4975TIP3    H236341   4.154   2.985   5.548 -0.4827 -0.5750  0.5054
 4976TIP3   OH236342   4.521   0.459  15.675  0.3712  0.0626 -0.2394
 4976TIP3    H136343   4.470   0.515  15.616  0.2667  1.2731  0.9586
 4976TIP3    H236344   4.579   0.410  15.617 -1.3415 -0.5301 -1.5508
 4977TIP3   OH236345   5.025   4.522   5.490  0.6597 -0.0293  0.1124
 4977TIP3    H136346   5.017   4.604   5.538  0.4542  0.3152 -0.5016
 4977TIP3    H236347   5.012   4.546   5.398 -1.9289 -1.0919  0.1017
 4978TIP3   OH236348   0.788   1.335  14.892  0.4117 -0.0616 -0.8101
 4978TIP3    H136349   0.881   1.338  14.913  0.1799 -0.8279  0.4032
 4978TIP3    H236350   0.754   1.421  14.915  0.7310  0.0614 -0.8044
 4979TIP3   OH236351   4.658   6.513   6.138 -0.8399 -0.3550  0.2083
 4979TIP3    H136352   4.632   6.528   6.229  0.0482 -1.3434  0.6515
 4979TIP3    H236353   4.750   6.487   6.144 -0.7046 -0.2023 -0.9993
 4980TIP3   OH236354   6.122   2.729   3.705  0.0863 -0.1747 -0.4342
 4980TIP3    H136355   6.133   2.737   3.611  0.5252  0.1135 -0.3610
 4980TIP3    H236356   6.152   2.813   3.740 -0.8388  0.0362 -0.0995
 4981TIP3   OH236357   1.713   1.332   4.984  0.1007 -0.0350  0.5901
 4981TIP3    H136358   1.682   1.358   5.071  0.4197 -0.1038  0.7274
 4981TIP3    H236359   1.777   1.263   5.001 -0.1404 -0.3390  0.2738
 4982TIP3   OH236360   5.910   1.414  13.387  0.2540  0.4620  0.2424
 4982TIP3    H136361   5.845   1.431  13.319  1.5437  1.9960 -0.6654
 4982TIP3    H236362   5.922   1.319  13.386 -0.1481  0.4024 -1.2839
 4983TIP3   OH236363   5.351   5.066   1.389  0.7745  0.2191 -0.3220
 4983TIP3    H136364   5.405   5.120   1.332  3.3799  0.4937  2.1728
 4983TIP3    H236365   5.382   4.977   1.376  1.4500  0.2940  0.6397
 4984TIP3   OH236366   2.989   4.965   0.879  0.3626 -0.0557  0.5130
 4984TIP3    H136367   2.896   4.973   0.898  0.1072 -0.1976 -0.6037
 4984TIP3    H236368   3.029   5.041   0.922 -0.0742 -0.6666  2.0524
 4985TIP3   OH236369   0.577   3.218  15.670  0.2109 -0.1308 -0.7190
 4985TIP3    H136370   0.644   3.152  15.687 -2.2249 -2.7215 -0.3626
 4985TIP3    H236371   0.549   3.247  15.757  1.2899  1.5169 -0.8724
 4986TIP3   OH236372   0.081   3.557   5.294  0.1424 -0.2861 -0.5171
 4986TIP3    H136373   0.003   3.503   5.289 -0.1431  0.0075  0.6340
 4986TIP3    H236374   0.138   3.523   5.224 -1.4827  0.2863 -2.2201
 4987TIP3   OH236375   4.839   6.252  14.176  0.1532 -0.4628 -0.1056
 4987TIP3    H136376   4.811   6.320  14.237  0.9813  0.6053 -0.8841
 4987TIP3    H236377   4.862   6.178  14.232 -2.3869 -0.7747  0.6818
 4988TIP3   OH236378   5.778   3.062  16.009 -0.1754  0.6840 -0.1070
 4988TIP3    H136379   5.683   3.059  16.000 -0.4858  2.0729  2.1040
 4988TIP3    H236380   5.798   3.007  16.084  0.8671 -0.0328 -0.8691
 4989TIP3   OH236381   4.967   4.623  16.113 -0.1118  0.2292  0.0151
 4989TIP3    H136382   4.914   4.554  16.074 -1.4660 -0.7020  3.2126
 4989TIP3    H236383   4.986   4.592  16.202  0.0504  3.5182  1.2759
 4990TIP3   OH236384   3.042   1.580   1.482 -0.0210  0.2724  0.0840
 4990TIP3    H136385   2.994   1.513   1.433 -2.0438  1.2557  0.6333
 4990TIP3    H236386   3.134   1.567   1.456 -0.5124 -1.8018 -0.8568
 4991TIP3   OH236387   0.490   6.014   2.713  0.0579  0.1846 -0.3440
 4991TIP3    H136388   0.421   6.071   2.747  0.2934  0.4587 -0.3193
 4991TIP3    H236389   0.510   6.049   2.626 -1.3207 -1.1781 -1.2740
 4992TIP3   OH236390   5.016   2.249   3.839 -0.3880 -0.0799 -0.3182
 4992TIP3    H136391   5.028   2.263   3.933  0.4408 -0.9375 -0.2815
 4992TIP3    H236392   4.938   2.193   3.833 -0.5525  0.1313 -0.1568
 4993TIP3   OH236393   6.604   6.451  12.002  0.0809 -0.1252 -0.2953
 4993TIP3    H136394   6.659   6.524  11.972 -0.4933  0.7358  0.6572
 4993TIP3    H236395   6.515   6.483  11.989 -0.2209  0.4696  2.5590
 4994TIP3   OH236396   1.886   5.462  12.001 -0.2566 -0.6051 -0.5442
 4994TIP3    H136397   1.878   5.461  11.906 -0.9925 -1.1817 -0.4844
 4994TIP3    H236398   1.973   5.426  12.018 -0.5411 -1.5319 -0.9668
 4995TIP3   OH236399   3.412   6.325  12.460  0.0881 -0.0469 -0.1231
 4995TIP3    H136400   3.318   6.316  12.443  0.5826 -0.1736 -3.3373
 4995TIP3    H236401   3.424   6.418  12.477 -0.4316  0.2590 -1.3353
 4996TIP3   OH236402   5.070   0.694   3.332  0.2042  0.0475  0.2940
 4996TIP3    H136403   5.072   0.759   3.402  0.2667 -0.3438  0.6587
 4996TIP3    H236404   5.160   0.660   3.328  0.1332 -0.1314  0.2134
 4997TIP3   OH236405   0.174   0.444  13.963  0.3212 -0.6220  0.1625
 4997TIP3    H136406   0.124   0.373  14.004 -0.4971  0.8700  1.8948
 4997TIP3    H236407   0.256   0.403  13.935 -0.6762 -2.5260 -0.1621
 4998TIP3   OH236408   0.314   3.510  14.295  0.4802 -0.1357  0.4201
 4998TIP3    H136409   0.321   3.478  14.205 -0.8595  2.5422 -0.7272
 4998TIP3    H236410   0.384   3.574  14.304 -0.5275  0.9883  0.5996
 4999TIP3   OH236411   1.041   6.752  11.373 -0.3079  0.2474  0.2451
 4999TIP3    H136412   0.960   6.719  11.411  1.1187 -0.4770  2.8709
 4999TIP3    H236413   1.062   6.690  11.303 -2.0135  0.5155 -0.5597
 5000TIP3   OH236414   3.433   3.209   1.143 -0.0682 -0.3090 -0.4698
 5000TIP3    H136415   3.426   3.116   1.164  2.4276 -1.1694 -2.8383
 5000TIP3    H236416   3.365   3.225   1.078  0.2164 -0.8093 -0.8983
 5001TIP3   OH236417   3.428   5.715   3.106  0.0405  0.2619 -0.2530
 5001TIP3    H136418   3.425   5.644   3.170  1.2515  0.7749  0.4226
 5001TIP3    H236419   3.342   5.755   3.110  0.4531  1.1114  2.0753
 5002TIP3   OH236420   5.817   4.581  11.796 -0.1383  0.0586  0.3913
 5002TIP3    H136421   5.834   4.658  11.741 -0.1665 -1.0453 -1.2184
 5002TIP3    H236422   5.723   4.585  11.814 -0.3694 -0.1927 -0.6675
 5003TIP3   OH236423   1.009   3.707   4.795  0.2888  0.3569 -0.0909
 5003TIP3    H136424   0.952   3.730   4.869  0.2364  1.6452 -0.5036
 5003TIP3    H236425   1.068   3.641   4.830 -1.5972 -1.2196  0.2946
 5004TIP3   OH236426   2.642   1.769  14.837 -0.3625  0.0284  0.2696
 5004TIP3    H136427   2.564   1.824  14.841 -1.7697 -1.8967  3.2084
 5004TIP3    H236428   2.701   1.806  14.903  0.9673  1.0043 -1.3956
 5005TIP3   OH236429   5.400   3.896   6.459  0.2232  0.4971  0.0197
 5005TIP3    H136430   5.419   3.805   6.482  1.0757  1.0666  1.7040
 5005TIP3    H236431   5.304   3.902   6.462  0.1700 -0.2797  0.1443
 5006TIP3   OH236432   3.221   2.847  14.502 -0.0008 -0.4182  0.3458
 5006TIP3    H136433   3.236   2.757  14.530  1.0798 -0.8157 -1.3501
 5006TIP3    H236434   3.302   2.892  14.522 -0.1143 -0.1097  0.1212
 5007TIP3   OH236435   4.051   6.016  11.884  0.4116 -0.0351 -0.8683
 5007TIP3    H136436   3.990   6.034  11.955 -0.1062 -0.3601 -1.2202
 5007TIP3    H236437   4.137   6.035  11.920  0.1057  0.3582 -0.3404
 5008TIP3   OH236438   6.758   2.640  14.150  0.7594  0.0579 -0.4230
 5008TIP3    H136439   6.669   2.666  14.174  0.7895 -0.3290  0.1133
 5008TIP3    H236440   6.750   2.603  14.062  0.0082 -2.0425  0.4799
 5009TIP3   OH236441   2.319   2.654   5.584 -0.1658 -0.7940 -0.2090
 5009TIP3    H136442   2.240   2.708   5.578 -0.7778 -1.7174 -0.6058
 5009TIP3    H236443   2.389   2.717   5.598 -0.6689  0.2508 -2.0625
 5010TIP3   OH236444   0.541   4.434   3.278  0.2907  0.0025 -0.2065
 5010TIP3    H136445   0.628   4.411   3.310  0.8833  2.9566  0.6467
 5010TIP3    H236446   0.558   4.488   3.201 -0.9791 -2.3119 -2.2379
 5011TIP3   OH236447   1.237   1.339   4.104  0.5905 -0.4934 -0.1402
 5011TIP3    H136448   1.266   1.427   4.127 -1.1134  0.0617  0.0652
 5011TIP3    H236449   1.225   1.341   4.009  1.1057 -0.6949 -0.2138
 5012TIP3   OH236450   6.234   0.254  12.589  0.4271 -0.4255 -0.5191
 5012TIP3    H136451   6.313   0.307  12.591  0.8313 -0.8630 -2.5626
 5012TIP3    H236452   6.191   0.278  12.508 -0.0711 -2.2208 -0.8372
 5013TIP3   OH236453   0.922   1.658   2.105 -0.3545 -0.3981 -0.5044
 5013TIP3    H136454   0.836   1.639   2.068 -1.0768  1.1576  0.2664
 5013TIP3    H236455   0.980   1.662   2.030 -0.9450 -1.5274 -1.0337
 5014TIP3   OH236456   6.314   1.010  12.264 -0.0904  0.3224  0.9140
 5014TIP3    H136457   6.249   0.952  12.302 -0.1281  0.3070  0.8275
 5014TIP3    H236458   6.372   1.033  12.336  0.5356 -0.6480  0.7351
 5015TIP3   OH236459   1.558   2.815   3.984  0.2932  0.2477 -0.8194
 5015TIP3    H136460   1.609   2.738   3.961  0.4738  0.7568 -2.2222
 5015TIP3    H236461   1.468   2.784   3.988  0.4871 -0.2514 -0.2984
 5016TIP3   OH236462   4.141   0.793   2.076  0.1136  0.1954 -0.5032
 5016TIP3    H136463   4.061   0.845   2.077 -0.1869 -0.2174 -1.5335
 5016TIP3    H236464   4.208   0.852   2.043  0.0922  0.3333 -0.3076
 5017TIP3   OH236465   3.990   3.689   2.935 -0.0455 -0.0288  0.0843
 5017TIP3    H136466   4.069   3.644   2.903 -0.1596  0.9699 -1.7851
 5017TIP3    H236467   4.023   3.749   3.001  0.7371  0.1493 -0.4441
 5018TIP3   OH236468   2.013   2.263  14.933 -0.7232 -0.2972 -0.1958
 5018TIP3    H136469   2.043   2.349  14.906 -0.3951 -0.2169  0.3948
 5018TIP3    H236470   1.992   2.273  15.027 -1.4183 -0.6630 -0.2986
 5019TIP3   OH236471   3.043   6.766  12.443  0.1516  0.2939  0.0424
 5019TIP3    H136472   3.103   6.748  12.372  0.9526  0.2672  0.7121
 5019TIP3    H236473   2.956   6.749  12.406  0.6038 -0.5195 -0.6790
 5020TIP3   OH236474   5.087   4.073  16.384 -0.2545  0.4653 -0.2607
 5020TIP3    H136475   5.163   4.130  16.399 -0.3215  0.6825 -0.7246
 5020TIP3    H236476   5.053   4.055  16.471  1.5210 -1.2933  0.1433
 5021TIP3   OH236477   4.575   1.832  15.390  0.0423  0.4219 -0.1390
 5021TIP3    H136478   4.538   1.745  15.375 -0.6512  0.2764  2.1306
 5021TIP3    H236479   4.665   1.815  15.418 -0.8083  0.1916  2.7464
 5022TIP3   OH236480   4.085   3.655  16.173 -0.1637  0.7792 -0.1136
 5022TIP3    H136481   4.136   3.628  16.097  0.7535  2.5364 -0.1547
 5022TIP3    H236482   4.039   3.734  16.146 -1.0235  0.5949  0.7051
 5023TIP3   OH236483   0.170   5.119   3.461 -0.0913 -0.2110 -0.0952
 5023TIP3    H136484   0.145   5.052   3.397 -2.2351  1.4842 -1.1683
 5023TIP3    H236485   0.223   5.181   3.412 -0.9714  0.6120 -0.0502
 5024TIP3   OH236486   0.506   3.492  13.362  0.1010  0.1305  0.1932
 5024TIP3    H136487   0.578   3.471  13.303  0.7062  0.0413  0.9407
 5024TIP3    H236488   0.457   3.411  13.371  0.4982 -0.0845  0.4608
 5025TIP3   OH236489   1.491   1.619   1.455 -0.0235  0.3378  0.2581
 5025TIP3    H136490   1.431   1.566   1.507 -0.5899 -0.4381 -1.1331
 5025TIP3    H236491   1.436   1.686   1.414  0.3199  0.6135  0.2366
 5026TIP3   OH236492   6.057   4.949   2.218  0.6016 -0.0100 -0.4290
 5026TIP3    H136493   6.142   4.905   2.214  1.5991  1.8058 -0.3261
 5026TIP3    H236494   6.033   4.962   2.126  1.0834  0.6220 -0.4743
 5027TIP3   OH236495   0.713   1.350  15.417  0.0496 -0.0392  0.2278
 5027TIP3    H136496   0.621   1.363  15.437  0.3488  0.7818  1.1282
 5027TIP3    H236497   0.732   1.411  15.346  0.3425  1.2392  1.3551
 5028TIP3   OH236498   6.631   3.127  16.581  0.5032 -0.3990 -0.2616
 5028TIP3    H136499   6.718   3.131  16.542  0.1520  0.3427 -0.9973
 5028TIP3    H236500   6.581   3.195  16.536 -0.9036 -1.8298 -0.9399
 5029TIP3   OH236501   6.613   6.252   1.082 -0.6522 -0.1421 -0.1950
 5029TIP3    H136502   6.692   6.269   1.133 -0.9444  1.4717 -0.2129
 5029TIP3    H236503   6.543   6.297   1.130 -1.4404 -0.9366 -0.5582
 5030TIP3   OH236504   4.284   6.493   0.110  0.5264 -0.5190  0.3216
 5030TIP3    H136505   4.302   6.452   0.195 -0.5382 -0.7659  0.4458
 5030TIP3    H236506   4.200   6.455   0.083  0.6656 -0.1450 -0.6544
 5031TIP3   OH236507   1.857   1.003  14.966  0.0568 -0.3722 -0.4837
 5031TIP3    H136508   1.846   0.963  15.053 -0.2944  0.1013 -0.3093
 5031TIP3    H236509   1.768   1.013  14.932  0.1871 -0.4548 -0.8552
 5032TIP3   OH236510   0.100   6.432  15.461 -0.1653  0.1467  0.3556
 5032TIP3    H136511   0.161   6.368  15.425  0.7824  1.5983 -0.7481
 5032TIP3    H236512   0.069   6.393  15.542  0.6416 -1.5352 -0.0997
 5033TIP3   OH236513   2.382   2.756  13.498 -0.2267  0.5927 -0.2171
 5033TIP3    H136514   2.378   2.729  13.406 -0.0955  2.0483 -0.6830
 5033TIP3    H236515   2.368   2.851  13.495  0.2590  0.7282  1.2245
 5034TIP3   OH236516   5.767   0.882  15.155  0.5725 -0.4889 -0.2960
 5034TIP3    H136517   5.688   0.922  15.119  0.7066  0.7005  0.6474
 5034TIP3    H236518   5.826   0.956  15.172  0.8822 -1.0747  1.3998
 5035TIP3   OH236519   0.181   5.337   0.990  0.7763  0.4267  0.1190
 5035TIP3    H136520   0.266   5.380   0.976  1.4358 -0.3620  1.4552
 5035TIP3    H236521   0.167   5.343   1.084 -0.0350 -0.5853  0.0782
 5036TIP3   OH236522   2.501   4.831  12.288  0.3234  0.0522 -0.6234
 5036TIP3    H136523   2.506   4.844  12.193 -0.3214  0.8408 -0.5561
 5036TIP3    H236524   2.592   4.826  12.316  0.5246  0.2155 -1.2282
 5037TIP3   OH236525   2.343   1.623   2.767 -0.1161  0.3964 -0.3421
 5037TIP3    H136526   2.438   1.617   2.753 -0.2121 -3.2533 -0.3291
 5037TIP3    H236527   2.306   1.563   2.702 -2.4565  1.5932 -0.2131
 5038TIP3   OH236528   4.140   6.484  16.396 -0.4074  0.2242  0.4472
 5038TIP3    H136529   4.063   6.431  16.374 -0.6586  1.0357 -0.7277
 5038TIP3    H236530   4.139   6.490  16.491 -2.5756  1.3487  0.4004
 5039TIP3   OH236531   3.180   0.256   2.679 -0.1673 -0.6984  0.2307
 5039TIP3    H136532   3.102   0.301   2.647  0.1875 -0.8039 -0.8260
 5039TIP3    H236533   3.231   0.237   2.600  1.0819 -0.3504  0.9148
 5040TIP3   OH236534   4.530   0.934   0.578 -0.1284 -0.1196 -0.6153
 5040TIP3    H136535   4.478   1.000   0.533 -0.4278  0.4635  0.5309
 5040TIP3    H236536   4.466   0.869   0.608  0.2159 -1.2044 -2.1454
 5041TIP3   OH236537   1.084   0.646   1.856  0.0406 -0.6813 -0.1962
 5041TIP3    H136538   1.179   0.639   1.856 -0.0153 -1.9986  0.9672
 5041TIP3    H236539   1.066   0.735   1.885  0.9326 -0.6370  0.2635
 5042TIP3   OH236540   6.636   3.666  12.793 -1.0822 -0.4772 -0.3015
 5042TIP3    H136541   6.725   3.685  12.763  0.4750 -4.6941  0.8985
 5042TIP3    H236542   6.631   3.704  12.881 -0.8399  0.4475 -0.6692
 5043TIP3   OH236543   2.845   6.315   1.062  0.3299  0.9546  0.2116
 5043TIP3    H136544   2.920   6.266   1.094 -2.4161 -1.5976  3.4018
 5043TIP3    H236545   2.820   6.372   1.134 -0.7688  1.8171 -0.7966
 5044TIP3   OH236546   4.963   4.190  11.280  0.3878  0.2878 -0.3486
 5044TIP3    H136547   5.008   4.119  11.326 -0.5137 -0.8273 -1.1552
 5044TIP3    H236548   5.029   4.225  11.220  1.1858  0.9279  0.8433
 5045TIP3   OH236549   5.266   4.333  14.490  0.2557 -0.4555  0.5098
 5045TIP3    H136550   5.175   4.357  14.473  0.9902  1.3941 -1.2909
 5045TIP3    H236551   5.298   4.401  14.550  1.1883  0.7294 -1.2195
 5046TIP3   OH236552   1.223   0.310  16.192 -0.7181  0.2707 -0.0369
 5046TIP3    H136553   1.170   0.231  16.208 -2.7969  1.7348  0.7649
 5046TIP3    H236554   1.257   0.333  16.279  1.2024 -0.5523 -0.5176
 5047TIP3   OH236555   2.482   4.916   1.140 -0.1981  0.0919  0.4561
 5047TIP3    H136556   2.442   4.859   1.075 -0.8985  0.2202  0.7713
 5047TIP3    H236557   2.409   4.959   1.184  0.3121  3.1100 -1.3870
 5048TIP3   OH236558   0.945   0.027  13.220  0.1047 -0.3906  0.4282
 5048TIP3    H136559   0.859   0.068  13.228  0.4854  0.2181  1.8204
 5048TIP3    H236560   1.000   0.095  13.181  0.1948 -0.3924  0.5498
 5049TIP3   OH236561   0.260   1.533  15.582  0.0928 -0.0977 -0.0897
 5049TIP3    H136562   0.279   1.604  15.644  0.4829  0.7444 -1.1347
 5049TIP3    H236563   0.181   1.492  15.616  0.0002  0.6840  0.6751
 5050TIP3   OH236564   4.242   5.804  11.871 -0.0828 -0.1725  1.2221
 5050TIP3    H136565   4.168   5.863  11.883  1.7424  2.2660  1.2117
 5050TIP3    H236566   4.263   5.812  11.778  0.8975  0.0823  1.4584
 5051TIP3   OH236567   4.223   3.070   4.853 -0.0581 -0.6108 -0.3279
 5051TIP3    H136568   4.192   3.160   4.839 -1.9834 -0.7265  2.4575
 5051TIP3    H236569   4.182   3.019   4.783  1.0314  0.5939 -1.9207
 5052TIP3   OH236570   4.990   5.459   2.150 -0.3505  0.1604  0.6383
 5052TIP3    H136571   4.991   5.512   2.230 -1.9625  1.1261  0.0696
 5052TIP3    H236572   5.080   5.461   2.119 -0.6667  4.7714 -0.7039
 5053TIP3   OH236573   6.730   2.789   3.575 -0.5027 -0.0793  0.2733
 5053TIP3    H136574   6.691   2.873   3.550 -1.1723 -0.4662 -0.0203
 5053TIP3    H236575   6.655   2.733   3.596 -0.0361 -0.3533  1.3166
 5054TIP3   OH236576   0.416   5.461  12.011 -0.5707 -0.5665 -0.1626
 5054TIP3    H136577   0.321   5.463  12.026 -0.8950 -1.2618 -1.8450
 5054TIP3    H236578   0.427   5.505  11.926  0.3585 -2.2635 -0.9700
 5055TIP3   OH236579   3.065   1.341   1.736  0.5851  0.0276  0.4694
 5055TIP3    H136580   3.099   1.254   1.755  0.4577  0.0503  0.8173
 5055TIP3    H236581   3.143   1.395   1.722  0.7198  0.1333  1.4978
 5056TIP3   OH236582   4.655   1.950   3.646 -0.0675 -0.2687  0.2569
 5056TIP3    H136583   4.629   1.999   3.569 -0.4202 -2.0155 -0.7860
 5056TIP3    H236584   4.573   1.928   3.690 -0.0124 -1.0406 -0.0138
 5057TIP3   OH236585   0.957   5.757   0.393  0.4858 -0.9655  0.1179
 5057TIP3    H136586   1.003   5.677   0.370  1.7397 -0.1008 -0.4957
 5057TIP3    H236587   0.982   5.776   0.483  1.4290 -0.4627 -0.2345
 5058TIP3   OH236588   5.028   6.621  15.308  0.0728  0.0094  0.2072
 5058TIP3    H136589   5.020   6.528  15.327 -1.2272  0.5932  3.0199
 5058TIP3    H236590   5.121   6.640  15.318  0.3254 -0.9317 -0.2306
 5059TIP3   OH236591   6.127   1.451   0.578  0.4213 -0.3105 -0.5562
 5059TIP3    H136592   6.149   1.531   0.531  0.7037 -0.5443 -0.8264
 5059TIP3    H236593   6.180   1.455   0.658 -0.5473  0.4024  0.0688
 5060TIP3   OH236594   2.709   2.712  15.982  0.2774  0.1092  0.1283
 5060TIP3    H136595   2.619   2.684  16.003  0.5624 -0.1573  1.0467
 5060TIP3    H236596   2.739   2.647  15.919  1.2434 -2.3749  2.9045
 5061TIP3   OH236597   1.903   0.630  12.590 -0.4453 -0.1960  0.5826
 5061TIP3    H136598   1.994   0.630  12.560 -0.7981 -0.3997 -0.5001
 5061TIP3    H236599   1.896   0.708  12.645 -0.0649  0.7526 -0.6948
 5062TIP3   OH236600   1.943   6.484   3.381  0.0703  0.8753  0.3083
 5062TIP3    H136601   2.017   6.481   3.441  0.2294 -0.4721  0.0856
 5062TIP3    H236602   1.968   6.547   3.314  2.2692 -1.5004 -1.2802
 5063TIP3   OH236603   5.098   6.468   1.517  0.7947 -0.3436  0.4826
 5063TIP3    H136604   5.053   6.547   1.486  0.5914 -1.2269 -1.6101
 5063TIP3    H236605   5.038   6.397   1.495  2.4659 -1.4000 -0.9142
 5064TIP3   OH236606   1.688   6.731  14.140  0.3476  0.0893  0.6024
 5064TIP3    H136607   1.647   6.691  14.216 -0.1147  1.5676  1.1627
 5064TIP3    H236608   1.652   6.820  14.137 -0.0812 -0.0923 -1.6699
 5065TIP3   OH236609   0.327   4.954  14.753  0.6274  0.1936 -0.1886
 5065TIP3    H136610   0.368   5.039  14.734 -0.3922  0.4937 -1.1697
 5065TIP3    H236611   0.318   4.952  14.848  1.3612  0.8460 -0.0922
 5066TIP3   OH236612   0.157   5.397  13.998 -0.7216 -0.0401  0.1311
 5066TIP3    H136613   0.076   5.346  13.999 -0.2586 -0.8018  1.0560
 5066TIP3    H236614   0.212   5.356  14.065  1.1103 -0.6591 -1.6377
 5067TIP3   OH236615   5.789   2.862   4.756  0.1548  0.1349  0.1893
 5067TIP3    H136616   5.858   2.920   4.723 -0.4996  1.9055  1.7554
 5067TIP3    H236617   5.836   2.796   4.807  0.7509  1.3749  1.3186
 5068TIP3   OH236618   6.740   5.849   2.713  0.1977 -0.7089  0.0831
 5068TIP3    H136619   6.718   5.770   2.763  0.2110 -3.4956 -3.8605
 5068TIP3    H236620   6.828   5.872   2.742  0.3582 -2.3706  1.0438
 5069TIP3   OH236621   5.441   0.532   0.527  0.0357 -0.4746 -0.2544
 5069TIP3    H136622   5.515   0.591   0.540  0.5084 -1.1273  0.0371
 5069TIP3    H236623   5.389   0.574   0.458  0.6342  0.0234 -0.4102
 5070TIP3   OH236624   1.882   1.957  14.396  0.0492 -0.0012  0.0723
 5070TIP3    H136625   1.875   1.921  14.485  0.5646 -0.9816 -0.2782
 5070TIP3    H236626   1.974   1.944  14.372 -0.2267 -0.2984 -0.8440
 5071TIP3   OH236627   2.341   6.770  14.000 -0.3285  0.3684 -0.4167
 5071TIP3    H136628   2.270   6.735  13.945  0.4493 -1.9023 -0.1096
 5071TIP3    H236629   2.394   6.822  13.939 -0.4875 -0.5998 -1.4256
 5072TIP3   OH236630   3.632   0.070   1.078  0.0595 -0.1622  0.1257
 5072TIP3    H136631   3.652   0.106   0.992 -0.2642 -1.6703 -0.6174
 5072TIP3    H236632   3.605  -0.020   1.061  1.9764 -1.1743  1.9803
 5073TIP3   OH236633   5.218   2.934   5.782 -0.2888 -0.4111  0.3418
 5073TIP3    H136634   5.252   2.988   5.711 -1.2651 -0.0031  0.1734
 5073TIP3    H236635   5.123   2.937   5.772 -0.6224  1.5960  3.0738
 5074TIP3   OH236636   1.320   3.064   2.858 -0.2734 -0.0178 -0.1237
 5074TIP3    H136637   1.351   3.002   2.792  1.3232 -0.1997  0.7469
 5074TIP3    H236638   1.225   3.066   2.847 -0.1168 -0.6702 -1.8529
 5075TIP3   OH236639   4.338   6.357   5.286 -0.1391  0.0638 -0.3318
 5075TIP3    H136640   4.377   6.274   5.314 -0.3107 -1.0300 -3.0119
 5075TIP3    H236641   4.410   6.420   5.287  1.0637 -1.1768 -2.2323
 5076TIP3   OH236642   2.968   4.921  14.881  0.4730 -0.4782 -0.1648
 5076TIP3    H136643   2.967   4.868  14.960  2.2253 -0.2921  0.0164
 5076TIP3    H236644   3.014   5.001  14.906  0.0324  0.0783 -1.0715
 5077TIP3   OH236645   5.819   0.072   1.268 -0.2396  0.0129  0.3978
 5077TIP3    H136646   5.831   0.166   1.280 -0.3928  0.0387  0.3489
 5077TIP3    H236647   5.782   0.064   1.180  0.4061 -0.1386  0.1293
 5078TIP3   OH236648   2.492   0.252   2.064 -0.0294  0.0461  0.0655
 5078TIP3    H136649   2.442   0.176   2.035 -0.7261  0.6558 -0.3525
 5078TIP3    H236650   2.537   0.283   1.985  0.3564 -0.0020  0.2608
 5079TIP3   OH236651   4.139   1.231   1.337 -0.5241 -0.6964  0.0569
 5079TIP3    H136652   4.182   1.316   1.337  1.4120 -1.6290 -0.7999
 5079TIP3    H236653   4.117   1.214   1.246 -0.7416 -1.1792  0.1930
 5080TIP3   OH236654   2.823   3.664  12.067  0.3833 -0.2211 -0.0276
 5080TIP3    H136655   2.904   3.627  12.103 -0.8558 -1.4936  1.6404
 5080TIP3    H236656   2.831   3.758  12.082  2.4544 -0.0353 -1.8820
 5081TIP3   OH236657   4.733   2.610   3.095  0.0321  0.3530 -0.2577
 5081TIP3    H136658   4.765   2.555   3.166 -2.0106  2.5254  2.5784
 5081TIP3    H236659   4.809   2.662   3.069  0.8008 -0.4346  0.3568
 5082TIP3   OH236660   3.994   6.731  14.429 -0.7312 -0.3691  0.3482
 5082TIP3    H136661   3.926   6.796  14.416 -0.0114  0.0812 -1.5488
 5082TIP3    H236662   3.947   6.649  14.446 -1.7715 -0.0795 -0.9615
 5083TIP3   OH236663   2.215   0.545  12.443  0.1556 -0.0253 -0.0118
 5083TIP3    H136664   2.286   0.576  12.499  1.5735 -1.9930 -0.6095
 5083TIP3    H236665   2.198   0.455  12.472 -0.4948 -0.3836 -1.3965
 5084TIP3   OH236666   3.751   2.383   6.318 -0.3529  0.6253 -0.4792
 5084TIP3    H136667   3.701   2.322   6.372  0.9520  0.6399  0.8238
 5084TIP3    H236668   3.826   2.331   6.287  0.0934  1.2305 -0.4205
 5085TIP3   OH236669   4.308   4.051  16.186  0.0187  0.2348 -0.2267
 5085TIP3    H136670   4.304   3.998  16.266 -1.4054 -2.1048 -1.7448
 5085TIP3    H236671   4.391   4.026  16.146 -0.6246 -0.8942 -0.9124
 5086TIP3   OH236672   0.086   4.660   5.773 -0.2488  0.6021  0.4722
 5086TIP3    H136673   0.013   4.600   5.784 -1.9364  2.2326 -1.0758
 5086TIP3    H236674   0.100   4.698   5.860 -4.0080  3.1330  0.2171
 5087TIP3   OH236675   5.272   4.063   4.515 -0.7239  0.1998  0.5867
 5087TIP3    H136676   5.342   4.126   4.496 -1.4394  0.5210 -1.2019
 5087TIP3    H236677   5.228   4.099   4.592  2.0791 -0.9255  2.9047
 5088TIP3   OH236678   2.989   3.315   5.806 -0.1421  0.2786  0.7801
 5088TIP3    H136679   3.054   3.259   5.763 -0.9323 -0.8606  1.0008
 5088TIP3    H236680   2.914   3.256   5.822 -1.4451  1.6713  0.0605
 5089TIP3   OH236681   1.510   5.422   1.060 -0.4618  0.1956 -0.2789
 5089TIP3    H136682   1.584   5.464   1.105 -1.0265  0.6282  0.2600
 5089TIP3    H236683   1.436   5.480   1.076 -0.6572  0.4243 -1.8987
 5090TIP3   OH236684   0.130   1.564  11.070  1.0780  0.6196  0.1004
 5090TIP3    H136685   0.081   1.594  10.994 -0.2863  1.5406  1.2882
 5090TIP3    H236686   0.217   1.543  11.036  0.5171  1.0292 -1.6850
 5091TIP3   OH236687   1.515   3.326   0.074 -0.4670  0.1565  0.4092
 5091TIP3    H136688   1.592   3.381   0.078  0.0994 -0.4887 -0.8042
 5091TIP3    H236689   1.533   3.266   0.001 -3.0304  1.4279 -1.4311
 5092TIP3   OH236690   4.846   5.155  16.287 -0.4892  0.4649 -0.1516
 5092TIP3    H136691   4.933   5.194  16.279 -0.2644  0.1773  0.7455
 5092TIP3    H236692   4.826   5.162  16.380 -1.4021  0.4622 -0.3403
 5093TIP3   OH236693   5.280   1.883   5.097 -0.0802 -0.2566 -0.0222
 5093TIP3    H136694   5.223   1.829   5.042 -0.7085  1.2801 -0.9660
 5093TIP3    H236695   5.237   1.883   5.183 -0.4194 -0.7143 -0.1838
 5094TIP3   OH236696   1.509   0.943   6.622  0.1536  0.2395 -0.5233
 5094TIP3    H136697   1.515   0.943   6.527  2.0801 -0.7775 -0.4686
 5094TIP3    H236698   1.419   0.917   6.641 -0.2825  0.5542 -2.0654
 5095TIP3   OH236699   3.053   1.686   0.789  0.1164  0.0973 -0.2663
 5095TIP3    H136700   2.991   1.675   0.717  0.0931  0.5799 -0.3217
 5095TIP3    H236701   3.064   1.598   0.825  0.7688 -0.3094 -1.3996
 5096TIP3   OH236702   1.891   5.518  15.748 -0.0915 -0.2327  0.1008
 5096TIP3    H136703   1.845   5.438  15.722 -0.6659  0.2924 -0.5732
 5096TIP3    H236704   1.821   5.584  15.755  0.4769  0.4134 -0.2313
 5097TIP3   OH236705   6.755   0.299   3.602  0.2639  0.3196 -0.2285
 5097TIP3    H136706   6.713   0.290   3.688  3.2655  1.2435  1.4838
 5097TIP3    H236707   6.704   0.367   3.557  0.4364  2.1262  2.1136
 5098TIP3   OH236708   0.329   3.842  11.947  0.0274  0.0183 -0.3515
 5098TIP3    H136709   0.343   3.777  12.016 -1.8479 -0.0153  0.0606
 5098TIP3    H236710   0.248   3.815  11.905 -0.2931  1.5474 -0.7980
 5099TIP3   OH236711   5.322   4.191  13.011  0.1602 -0.2765 -0.2044
 5099TIP3    H136712   5.243   4.227  12.972  0.0731  0.1391  0.3373
 5099TIP3    H236713   5.356   4.262  13.066  2.4380  0.6083 -2.5016
 5100TIP3   OH236714   5.274   1.711   3.384  0.5271 -0.0578  0.0809
 5100TIP3    H136715   5.333   1.650   3.339  0.8094 -0.0175  0.3980
 5100TIP3    H236716   5.290   1.795   3.341 -0.1743 -0.2779 -0.6548
 5101TIP3   OH236717   6.561   5.107   2.656 -0.2532  0.4409 -0.4919
 5101TIP3    H136718   6.624   5.110   2.728 -2.0435  1.0926  1.1398
 5101TIP3    H236719   6.535   5.016   2.651  1.1777  0.0516 -1.5672
 5102TIP3   OH236720   3.772   1.440  13.051  0.1976  0.3972 -0.5385
 5102TIP3    H136721   3.726   1.357  13.061  0.0910  0.3854 -1.0833
 5102TIP3    H236722   3.827   1.428  12.974  0.0571  0.8877 -0.7171
 5103TIP3   OH236723   1.505   3.343   4.670 -0.1833 -0.4182 -0.3162
 5103TIP3    H136724   1.537   3.421   4.715  1.6036 -1.5816  0.6074
 5103TIP3    H236725   1.571   3.325   4.603 -1.0467 -0.6265 -1.1260
 5104TIP3   OH236726   6.771   0.694   5.959 -0.3723 -0.3242  0.0822
 5104TIP3    H136727   6.719   0.716   5.882  0.9875 -1.1109 -1.1087
 5104TIP3    H236728   6.706   0.675   6.027 -1.6637  3.2835  0.1034
 5105TIP3   OH236729   3.310   5.347   1.863  0.1624 -0.3421 -0.1988
 5105TIP3    H136730   3.369   5.331   1.790  2.2507 -1.2184  1.5433
 5105TIP3    H236731   3.366   5.342   1.941 -2.0841 -0.4566  1.5428
 5106TIP3   OH236732   3.312   0.408  15.109  0.2009 -0.3785 -0.0691
 5106TIP3    H136733   3.278   0.322  15.082 -1.3968  0.2410 -0.1542
 5106TIP3    H236734   3.266   0.428  15.190  0.7027  0.3177  0.0532
 5107TIP3   OH236735   4.622   6.393  12.818  0.4165  0.6623  0.1868
 5107TIP3    H136736   4.613   6.383  12.723 -0.1214 -0.2940  0.3238
 5107TIP3    H236737   4.658   6.481  12.830 -0.9265  1.3847 -0.8250
 5108TIP3   OH236738   0.346   2.738   3.797  0.0609 -0.0385  0.8532
 5108TIP3    H136739   0.316   2.824   3.767  0.0020 -0.5398 -0.5714
 5108TIP3    H236740   0.435   2.730   3.762  0.1901 -0.4187  1.2610
 5109TIP3   OH236741   5.139   0.582   5.081 -0.3415 -0.0132 -0.2476
 5109TIP3    H136742   5.057   0.538   5.058  1.5362 -3.5110 -0.9498
 5109TIP3    H236743   5.170   0.619   4.998 -0.1790 -0.6135 -0.4607
 5110TIP3   OH236744   1.295   0.047   1.703  0.7246 -0.0452  0.4502
 5110TIP3    H136745   1.260   0.086   1.622 -0.3995 -0.8467  0.5235
 5110TIP3    H236746   1.261   0.103   1.773  1.3917  0.4323  0.4003
 5111TIP3   OH236747   1.632   6.160   3.143  0.7122 -0.3357 -1.0233
 5111TIP3    H136748   1.678   6.110   3.211 -0.0978  0.0197 -0.1992
 5111TIP3    H236749   1.681   6.242   3.136  0.0653  0.1533  0.0440
 5112TIP3   OH236750   5.249   5.089   0.376  0.2196 -0.0864  0.6775
 5112TIP3    H136751   5.314   5.036   0.422  0.9700 -1.0597 -1.3755
 5112TIP3    H236752   5.194   5.025   0.331 -0.0460  0.8192 -0.3218
 5113TIP3   OH236753   3.643   2.374   5.410 -0.4638 -0.0769 -0.4713
 5113TIP3    H136754   3.646   2.286   5.448 -0.5726  0.5382  1.0171
 5113TIP3    H236755   3.609   2.360   5.321 -1.9406 -1.3813  0.2522
 5114TIP3   OH236756   3.391   2.158  13.654  0.1538  0.5044 -0.0811
 5114TIP3    H136757   3.482   2.136  13.638 -0.1335 -0.4891 -0.4454
 5114TIP3    H236758   3.360   2.089  13.713 -0.0268  1.5623  1.1222
 5115TIP3   OH236759   2.207   1.330   2.331 -0.5577  0.4419 -0.4945
 5115TIP3    H136760   2.283   1.273   2.314 -0.5917  0.5861 -1.1745
 5115TIP3    H236761   2.217   1.402   2.269 -2.3462 -0.6040 -2.0956
 5116TIP3   OH236762   0.272   2.102  16.339  0.0460 -0.1197 -0.0369
 5116TIP3    H136763   0.254   2.045  16.414 -0.2109 -0.2717 -0.2089
 5116TIP3    H236764   0.227   2.184  16.360  0.5777  0.0852  0.2990
 5117TIP3   OH236765   5.065   3.412   2.705 -0.2187  0.6592  0.5361
 5117TIP3    H136766   4.981   3.386   2.669  0.3452  0.4831 -0.7140
 5117TIP3    H236767   5.044   3.465   2.782 -1.4331 -0.7311  1.2069
 5118TIP3   OH236768   2.404   4.775   5.858  0.1183 -0.3201 -0.1209
 5118TIP3    H136769   2.349   4.804   5.785  2.5167 -2.6815 -3.1188
 5118TIP3    H236770   2.353   4.707   5.902 -1.2317  0.9206  0.3163
 5119TIP3   OH236771   1.887   4.372  17.091  0.1337 -0.3465 -0.0304
 5119TIP3    H136772   1.889   4.279  17.070 -0.4898 -0.0000 -1.7824
 5119TIP3    H236773   1.907   4.376  17.185  1.2462 -2.1487 -0.1459
 5120TIP3   OH236774   6.442   2.704  13.981  0.6468  0.0294 -0.2295
 5120TIP3    H136775   6.415   2.731  13.894  0.4727 -0.8133 -0.4384
 5120TIP3    H236776   6.362   2.676  14.025  0.8277 -0.1667 -0.0173
 5121TIP3   OH236777   2.427   5.888   3.275 -0.0246 -0.0141 -0.0970
 5121TIP3    H136778   2.398   5.873   3.365  0.5702 -0.0206  0.0985
 5121TIP3    H236779   2.471   5.973   3.278 -4.3233  2.5643 -1.4128
 5122TIP3   OH236780   6.278   2.275   0.852  0.7342 -0.1125  0.0258
 5122TIP3    H136781   6.293   2.218   0.776 -1.7311  0.8269 -1.2710
 5122TIP3    H236782   6.219   2.343   0.820  1.0899  1.4048  2.3456
 5123TIP3   OH236783   2.185   2.108  14.056 -0.4068 -0.2423  0.3207
 5123TIP3    H136784   2.201   2.022  14.017  1.8474  0.7227 -1.0612
 5123TIP3    H236785   2.205   2.097  14.149  0.2041 -1.1201  0.0910
 5124TIP3   OH236786   4.666   1.208  13.924  0.8312 -0.3017 -0.2224
 5124TIP3    H136787   4.715   1.285  13.895 -0.7220  0.2882 -1.3743
 5124TIP3    H236788   4.649   1.159  13.844 -3.2491  1.1827 -0.4908
 5125TIP3   OH236789   5.399   1.889   1.728  0.3212 -0.6633  0.2970
 5125TIP3    H136790   5.354   1.825   1.673 -1.1728 -0.2215  0.9642
 5125TIP3    H236791   5.406   1.967   1.673 -1.2497 -0.1925  0.7154
 5126TIP3   OH236792   2.151   6.373  12.742 -1.0264 -0.5232 -0.7035
 5126TIP3    H136793   2.078   6.426  12.712 -1.2046 -0.3571 -0.0024
 5126TIP3    H236794   2.157   6.301  12.679 -1.3049 -0.1253 -1.1932
 5127TIP3   OH236795   4.946   4.623   5.227 -0.1135  0.1953 -0.1084
 5127TIP3    H136796   4.966   4.717   5.232 -0.1302  0.1774  0.3212
 5127TIP3    H236797   5.006   4.590   5.159  0.1486  0.4487 -0.0066
 5128TIP3   OH236798   0.555   4.653  12.004 -0.0531 -0.1252  0.2244
 5128TIP3    H136799   0.587   4.742  12.015 -0.6584  0.5516 -2.6713
 5128TIP3    H236800   0.495   4.640  12.077  0.0936  1.8170  0.7456
 5129TIP3   OH236801   5.694   0.970   2.482  0.0058 -0.7847  0.1651
 5129TIP3    H136802   5.688   0.887   2.434 -0.6262  0.0226 -1.2226
 5129TIP3    H236803   5.787   0.991   2.482  0.0135 -0.7411 -0.8642
 5130TIP3   OH236804   5.259   3.616   0.282  0.4529 -0.7734  0.2487
 5130TIP3    H136805   5.272   3.626   0.376  0.1224 -1.2371  0.3497
 5130TIP3    H236806   5.297   3.695   0.243  0.5336 -0.5523  0.7752
 5131TIP3   OH236807   2.781   0.473  10.688  0.0966 -0.3988  0.3558
 5131TIP3    H136808   2.724   0.535  10.642  0.4961 -0.2208  0.0931
 5131TIP3    H236809   2.725   0.433  10.755 -0.4179 -0.4572 -0.1049
 5132TIP3   OH236810   1.665   6.713   4.059 -0.0417  0.4102  0.1961
 5132TIP3    H136811   1.630   6.665   3.984  2.0700  0.3700 -0.8492
 5132TIP3    H236812   1.614   6.793   4.062  0.5162  0.9451 -2.0489
 5133TIP3   OH236813   3.261   2.294   2.344  0.2044 -0.3445  0.4252
 5133TIP3    H136814   3.209   2.221   2.310 -1.3724 -0.0394  2.0346
 5133TIP3    H236815   3.271   2.275   2.438 -1.2513  2.0154  1.1429
 5134TIP3   OH236816   6.537   1.783   5.951  0.7381  0.3821  0.4894
 5134TIP3    H136817   6.501   1.843   5.886  0.4858  0.6770  0.8920
 5134TIP3    H236818   6.463   1.765   6.009  0.0839 -2.2819 -1.0057
 5135TIP3   OH236819   4.930   3.697   5.785 -0.2408  0.1372  0.2910
 5135TIP3    H136820   4.914   3.682   5.692 -1.9608 -2.0948  0.8644
 5135TIP3    H236821   4.987   3.774   5.787  0.5424 -0.2344 -2.6196
 5136TIP3   OH236822   1.642   4.047  12.806  0.0461 -0.0176  0.4639
 5136TIP3    H136823   1.591   3.979  12.849 -0.3277 -1.2712 -1.8199
 5136TIP3    H236824   1.659   4.111  12.875 -1.7714 -1.1653  2.0828
 5137TIP3   OH236825   0.621   1.832  11.772  0.2345  0.3062  0.1721
 5137TIP3    H136826   0.711   1.849  11.799  0.1705 -1.1780  1.4654
 5137TIP3    H236827   0.571   1.905  11.808  0.6537  0.1287  1.1462
 5138TIP3   OH236828   5.456   2.729  15.359  0.3326  0.5341  0.1060
 5138TIP3    H136829   5.476   2.743  15.452 -0.8930  1.1712  0.2984
 5138TIP3    H236830   5.494   2.806  15.315 -1.3658  1.6026  0.4346
 5139TIP3   OH236831   0.407   4.241  10.909 -0.1629  0.5199  0.1720
 5139TIP3    H136832   0.356   4.305  10.858 -2.3148 -1.0310  0.2168
 5139TIP3    H236833   0.342   4.176  10.937  1.6132 -0.6891  1.7147
 5140TIP3   OH236834   0.379   6.528   3.122 -0.3703 -0.4676 -0.3713
 5140TIP3    H136835   0.319   6.531   3.196  1.1487 -0.6048  0.9228
 5140TIP3    H236836   0.391   6.434   3.104 -0.6778 -0.4368 -0.7446
 5141TIP3   OH236837   0.036   1.122  14.606 -0.2564  0.8291 -0.2637
 5141TIP3    H136838   0.041   1.039  14.654 -0.1448 -0.0015 -1.6293
 5141TIP3    H236839   0.001   1.185  14.669 -0.4033 -0.2713  0.7935
 5142TIP3   OH236840   3.791   1.768   3.559  0.0888  0.6974  0.1436
 5142TIP3    H136841   3.829   1.798   3.477 -0.4149  0.1928 -0.2905
 5142TIP3    H236842   3.781   1.673   3.547 -0.0888  0.6345  0.7452
 5143TIP3   OH236843   5.200   4.673  15.520 -0.1721  0.3013  0.3081
 5143TIP3    H136844   5.285   4.649  15.485 -1.4488 -1.9471 -1.5103
 5143TIP3    H236845   5.212   4.673  15.615  2.4963  2.9382  0.1178
 5144TIP3   OH236846   2.071   1.864  13.572 -0.1978  0.0182 -0.2861
 5144TIP3    H136847   2.140   1.821  13.521 -0.3134 -0.0982 -0.3449
 5144TIP3    H236848   2.078   1.825  13.659 -1.7548 -1.8148 -0.8958
 5145TIP3   OH236849   0.772   4.269  15.850 -0.2494 -0.0599  0.2964
 5145TIP3    H136850   0.831   4.212  15.899  1.3182  3.1818  2.4904
 5145TIP3    H236851   0.685   4.249  15.884  0.2316 -1.2386  0.8824
 5146TIP3   OH236852   6.733   1.611   2.519 -0.2938  0.4302 -0.5767
 5146TIP3    H136853   6.703   1.549   2.452 -0.9745  0.4637 -0.2990
 5146TIP3    H236854   6.821   1.636   2.489 -0.3275 -0.0585 -1.1109
 5147TIP3   OH236855   2.576   0.337   4.214  0.0050 -0.5620  0.3402
 5147TIP3    H136856   2.622   0.307   4.292  0.5085 -0.7376 -0.0213
 5147TIP3    H236857   2.643   0.344   4.146 -0.6183 -1.5923 -0.4169
 5148TIP3   OH236858   5.763   3.624   0.088  0.4813  0.1886 -0.8379
 5148TIP3    H136859   5.709   3.681   0.142  0.0544 -0.6875 -0.3262
 5148TIP3    H236860   5.849   3.668   0.086  0.2050  0.7681 -0.3371
 5149TIP3   OH236861   0.052   1.411  15.714 -0.0657  0.4984 -0.7439
 5149TIP3    H136862   0.102   1.424  15.795  1.1829  0.6210 -1.4976
 5149TIP3    H236863  -0.038   1.432  15.737 -0.0372 -1.0201  1.0170
 5150TIP3   OH236864   2.881   5.081   4.150  0.0561 -0.6096  0.3144
 5150TIP3    H136865   2.865   5.070   4.243 -0.1245 -0.1138  0.3405
 5150TIP3    H236866   2.973   5.108   4.145 -0.2614  0.5291  0.4315
 5151TIP3   OH236867   0.377   4.451  12.526  0.2252 -0.4103  0.1074
 5151TIP3    H136868   0.327   4.519  12.571  0.5501 -1.1604  1.6429
 5151TIP3    H236869   0.451   4.434  12.583  0.0725 -2.1567 -0.1682
 5152TIP3   OH236870   2.922   5.778  17.315  0.2864  0.4871  0.1048
 5152TIP3    H136871   2.947   5.860  17.357 -1.6761  1.0846  0.2208
 5152TIP3    H236872   2.960   5.710  17.371 -0.2931  1.3034  1.5612
 5153TIP3   OH236873   4.939   4.520  16.953  0.0169  0.1684 -0.1415
 5153TIP3    H136874   4.953   4.567  16.871 -0.8924 -0.7869 -0.8823
 5153TIP3    H236875   5.027   4.505  16.988  0.5714 -1.0488 -1.9213
 5154TIP3   OH236876   5.050   0.155  12.737 -0.4849 -0.0711 -0.0005
 5154TIP3    H136877   4.982   0.114  12.683 -0.5072  0.0879 -0.0935
 5154TIP3    H236878   5.024   0.134  12.827  0.0239 -1.0809 -0.0652
 5155TIP3   OH236879   3.067   3.205   4.273  0.3194  0.1801 -0.8551
 5155TIP3    H136880   3.086   3.262   4.198 -0.8705  2.3866  0.4178
 5155TIP3    H236881   3.152   3.190   4.314  0.7330  0.5531 -1.5554
 5156TIP3   OH236882   2.244   4.206   6.124  0.0294 -0.0070 -0.0691
 5156TIP3    H136883   2.286   4.123   6.147  1.8590  1.0554  0.6055
 5156TIP3    H236884   2.154   4.182   6.102  0.0382 -1.9725  1.7209
 5157TIP3   OH236885   2.875   3.834  14.648  0.1607  0.4442  0.9126
 5157TIP3    H136886   2.801   3.781  14.678  1.9883 -1.2561  2.7922
 5157TIP3    H236887   2.946   3.812  14.709  1.6363  3.6062  0.5227
 5158TIP3   OH236888   6.250   0.901   3.292 -0.0606 -0.7017  0.4921
 5158TIP3    H136889   6.337   0.863   3.293 -0.2193 -1.1786 -0.9129
 5158TIP3    H236890   6.263   0.994   3.310  1.0737 -0.2500 -2.2577
 5159TIP3   OH236891   0.913   6.658  11.688  0.4442 -0.4073 -0.6895
 5159TIP3    H136892   1.005   6.672  11.669 -0.2435  1.1607 -3.5163
 5159TIP3    H236893   0.871   6.655  11.602 -2.1811 -0.7561  0.4967
 5160TIP3   OH236894   2.245   5.969   4.281  0.6991  0.4494  0.1628
 5160TIP3    H136895   2.298   5.900   4.241  1.4206  0.6137  0.8019
 5160TIP3    H236896   2.284   5.982   4.368  1.1094  2.2252 -0.2344
 5161TIP3   OH236897   1.257   6.449  14.949  0.5262 -0.1203  0.6223
 5161TIP3    H136898   1.293   6.390  14.883 -1.0522  0.6136 -0.9665
 5161TIP3    H236899   1.208   6.391  15.008 -1.5182 -0.4435 -1.2695
 5162TIP3   OH236900   1.469   6.064  16.603 -0.4760 -0.0119  0.1040
 5162TIP3    H136901   1.560   6.089  16.585 -0.0169 -1.5454  0.1734
 5162TIP3    H236902   1.470   6.030  16.692 -1.0378 -0.3582 -0.0161
 5163TIP3   OH236903   6.414   1.592  16.288 -0.3015 -0.9429 -0.3439
 5163TIP3    H136904   6.344   1.581  16.353 -0.6927 -1.0668 -0.7842
 5163TIP3    H236905   6.409   1.684  16.262 -0.0245 -0.8478 -0.0631
 5164TIP3   OH236906   0.736   5.654   0.900  0.5630  0.0289  0.1413
 5164TIP3    H136907   0.831   5.653   0.890  0.9015  2.8805  2.0516
 5164TIP3    H236908   0.706   5.719   0.837 -0.2526 -1.1713 -0.7681
 5165TIP3   OH236909   3.524   3.020   1.624 -0.6481 -0.0735 -0.0433
 5165TIP3    H136910   3.534   2.928   1.647 -0.0725 -0.5583 -2.0538
 5165TIP3    H236911   3.461   3.021   1.553 -0.4125  1.0460 -0.2611
 5166TIP3   OH236912   5.971   5.622  10.671  0.7096  0.1334  0.3011
 5166TIP3    H136913   6.053   5.670  10.659  1.0892 -0.6639 -0.3640
 5166TIP3    H236914   5.993   5.531  10.651 -0.3029 -0.1177  0.2751
 5167TIP3   OH236915   4.436   0.286  14.696 -0.6402 -0.3992  0.2737
 5167TIP3    H136916   4.504   0.219  14.703  0.0334  0.3523  1.1105
 5167TIP3    H236917   4.429   0.324  14.784 -1.0992  0.5357 -0.1447
 5168TIP3   OH236918   4.675   5.353  15.170  0.4874  0.2189 -0.3760
 5168TIP3    H136919   4.761   5.326  15.200  0.4793  0.0722 -0.4823
 5168TIP3    H236920   4.616   5.284  15.199  0.6043 -0.3677 -1.4536
 5169TIP3   OH236921   1.912   3.525   4.445 -0.0405 -0.0617  0.9205
 5169TIP3    H136922   1.823   3.559   4.453  0.1684  0.6971  0.1887
 5169TIP3    H236923   1.933   3.533   4.352  0.1281 -1.9807  0.7662
 5170TIP3   OH236924   2.465   4.690  15.771  0.5705 -0.0625 -0.5830
 5170TIP3    H136925   2.408   4.633  15.822 -1.6425  1.4816 -1.1916
 5170TIP3    H236926   2.492   4.636  15.697  0.0337 -0.8867 -0.1953
 5171TIP3   OH236927   2.092   6.049   5.815 -0.0540  0.2521 -0.5604
 5171TIP3    H136928   2.028   6.073   5.748 -0.2696  1.2361 -0.0129
 5171TIP3    H236929   2.164   6.112   5.804 -0.1877  0.5590  0.2623
 5172TIP3   OH236930   2.458   4.278  14.492  0.3356 -0.1713  0.5828
 5172TIP3    H136931   2.409   4.197  14.506  0.8615 -0.6309 -0.1367
 5172TIP3    H236932   2.533   4.272  14.552  0.6114 -0.4281  0.2158
 5173TIP3   OH236933   0.350   4.405   3.835  0.4550  0.5796 -0.2674
 5173TIP3    H136934   0.388   4.343   3.896 -0.6035 -0.6509 -0.8163
 5173TIP3    H236935   0.263   4.425   3.871 -0.5664 -0.8762 -1.7556
 5174TIP3   OH236936   5.186   1.415   3.432 -0.0811  0.5002  0.0501
 5174TIP3    H136937   5.218   1.502   3.409 -0.6848  0.6293 -0.3198
 5174TIP3    H236938   5.093   1.428   3.450 -0.5947 -0.3782 -1.7796
 5175TIP3   OH236939   4.083   6.055   2.612  0.4647  0.3495 -0.4297
 5175TIP3    H136940   4.008   6.023   2.662 -0.4214  0.5870 -1.5551
 5175TIP3    H236941   4.052   6.137   2.572  1.9063  1.3940  0.4729
 5176TIP3   OH236942   5.752   5.375   2.882 -0.6839  0.1591 -0.5233
 5176TIP3    H136943   5.806   5.301   2.911 -2.3708 -0.9567 -0.1094
 5176TIP3    H236944   5.815   5.436   2.842  0.7146 -1.6467 -1.2109
 5177TIP3   OH236945   1.396   5.169  16.802  0.1600 -0.0218  0.6182
 5177TIP3    H136946   1.308   5.194  16.774  0.9885  1.0795 -1.1240
 5177TIP3    H236947   1.454   5.205  16.735  2.0434  0.2565  2.3167
 5178TIP3   OH236948   1.166   6.592  12.157  0.6670  0.2271 -0.2150
 5178TIP3    H136949   1.093   6.611  12.097 -0.2861  0.8456  1.0824
 5178TIP3    H236950   1.156   6.499  12.177 -0.3116  0.4896  0.6105
 5179TIP3   OH236951   0.060   0.667  14.104  0.9136 -0.2526  0.6847
 5179TIP3    H136952   0.110   0.727  14.049  0.4802  0.0777  0.6510
 5179TIP3    H236953   0.043   0.591  14.047 -1.2814  0.9140 -0.3446
 5180TIP3   OH236954   0.436   2.659  12.301 -0.0078  0.4280  0.2105
 5180TIP3    H136955   0.399   2.747  12.300 -2.6676 -0.5953 -0.1682
 5180TIP3    H236956   0.436   2.632  12.209 -0.1736 -0.3296  0.4255
 5181TIP3   OH236957   1.283   5.478  12.718 -0.2565  0.3804 -0.1756
 5181TIP3    H136958   1.258   5.389  12.740 -0.6791  0.8658  1.4833
 5181TIP3    H236959   1.345   5.469  12.646 -0.3522 -1.2358 -0.0875
 5182TIP3   OH236960   4.143   4.762   3.263 -0.3589  0.9835  0.7049
 5182TIP3    H136961   4.098   4.715   3.333  0.5020 -0.2970  0.4251
 5182TIP3    H236962   4.173   4.693   3.204  0.2174  1.9516 -0.1488
 5183TIP3   OH236963   4.457   0.107   1.901  0.3510  0.4405 -0.2864
 5183TIP3    H136964   4.511   0.045   1.950  1.3697  0.1151 -1.7425
 5183TIP3    H236965   4.398   0.052   1.849 -1.4388  0.7971  1.2840
 5184TIP3   OH236966   6.538   2.215   4.303  0.5378 -0.4416  0.1640
 5184TIP3    H136967   6.523   2.153   4.232 -2.9279 -0.9971  1.1851
 5184TIP3    H236968   6.501   2.298   4.272  0.4529 -0.2688  0.7089
 5185TIP3   OH236969   2.055   6.661   3.192  0.6237 -0.5099 -0.2472
 5185TIP3    H136970   2.105   6.722   3.246  1.3858 -0.7240 -0.6982
 5185TIP3    H236971   2.092   6.671   3.104  0.4534 -1.2848 -0.4177
 5186TIP3   OH236972   5.644   1.804  11.862  0.1143  0.3250 -0.2355
 5186TIP3    H136973   5.653   1.868  11.934 -2.0084  2.8250 -1.9886
 5186TIP3    H236974   5.720   1.821  11.806  0.0212  0.7159 -0.2482
 5187TIP3   OH236975   2.211   2.064  16.236  0.0709  0.0368  0.2266
 5187TIP3    H136976   2.212   1.984  16.289  1.4214 -0.2929 -0.2496
 5187TIP3    H236977   2.144   2.119  16.277 -0.3859 -1.0500  0.9931
 5188TIP3   OH236978   6.757   3.726  13.047  0.5445 -0.1774 -0.0068
 5188TIP3    H136979   6.818   3.797  13.029  2.4055 -1.4970  0.7256
 5188TIP3    H236980   6.747   3.727  13.143  0.4110 -0.7513 -0.0105
 5189TIP3   OH236981   3.768   1.117  16.490  0.0586  0.4441 -0.0916
 5189TIP3    H136982   3.751   1.178  16.418  0.9899 -1.5641 -2.1416
 5189TIP3    H236983   3.860   1.091  16.479 -0.2613 -1.2099  0.7669
 5190TIP3   OH236984   5.889   1.198  12.155 -0.0107 -0.4592  0.3813
 5190TIP3    H136985   5.866   1.106  12.162  0.1819 -0.5076  0.3739
 5190TIP3    H236986   5.807   1.245  12.174 -0.0053 -0.6222  0.8097
 5191TIP3   OH236987   5.596   0.098   4.137 -0.1777 -0.6832  0.3097
 5191TIP3    H136988   5.689   0.106   4.158 -0.3991  1.2065  0.7368
 5191TIP3    H236989   5.577   0.172   4.079 -1.4118 -1.0350  0.2190
 5192TIP3   OH236990   1.405   4.680  14.447  0.0560 -0.3414  0.1528
 5192TIP3    H136991   1.439   4.637  14.369  0.1453  0.7886 -0.4644
 5192TIP3    H236992   1.311   4.691  14.429 -0.1632 -1.1548  0.7404
 5193TIP3   OH236993   4.125   5.214   2.557 -0.7409 -0.5487 -0.8754
 5193TIP3    H136994   4.051   5.231   2.616 -1.8488 -2.6203 -1.5708
 5193TIP3    H236995   4.137   5.297   2.510 -1.6318  0.2934  0.3113
 5194TIP3   OH236996   1.434   6.206  16.069 -0.0678  0.0311  0.1682
 5194TIP3    H136997   1.413   6.121  16.107  0.1061 -0.4026 -0.6836
 5194TIP3    H236998   1.466   6.186  15.981  0.4489  0.9409  0.1329
 5195TIP3   OH236999   2.079   1.796  17.025  0.1844  0.2037  0.0470
 5195TIP3    H137000   2.080   1.885  16.989 -0.2627  0.2304  0.0918
 5195TIP3    H237001   2.011   1.799  17.093  0.5395 -0.0299  0.4193
 5196TIP3   OH237002   4.468   0.773  12.159  0.5950  0.2218 -0.0999
 5196TIP3    H137003   4.374   0.788  12.173  0.5404 -1.3178  1.6590
 5196TIP3    H237004   4.490   0.828  12.084 -1.0358  3.0897  1.3264
 5197TIP3   OH237005   4.187   6.696   4.777 -0.5019 -0.6295 -0.2779
 5197TIP3    H137006   4.132   6.735   4.709 -0.4551 -1.8124 -1.0189
 5197TIP3    H237007   4.275   6.725   4.756 -0.4296 -1.3415 -0.9905
 5198TIP3   OH237008   4.585   4.596  11.582  0.1904 -0.3891 -0.2853
 5198TIP3    H137009   4.649   4.604  11.512 -2.6505 -0.8346 -3.1633
 5198TIP3    H237010   4.511   4.550  11.542 -2.4014  1.0623  2.4358
 5199TIP3   OH237011   6.756   6.323   1.328 -0.7613 -0.3745 -0.0609
 5199TIP3    H137012   6.687   6.348   1.390  0.4170  0.1650  1.0888
 5199TIP3    H237013   6.785   6.406   1.289 -0.8346 -0.6069 -0.6148
 5200TIP3   OH237014   3.140   5.564  15.698 -0.4193 -0.8858 -0.2547
 5200TIP3    H137015   3.101   5.588  15.614 -0.8001  2.4440  0.6998
 5200TIP3    H237016   3.071   5.516  15.744 -1.9414  1.2026 -0.2154
 5201TIP3   OH237017   4.769   3.258   1.759 -0.2414  0.6576 -0.1142
 5201TIP3    H137018   4.696   3.253   1.698 -0.2056 -0.3883 -0.0853
 5201TIP3    H237019   4.847   3.252   1.703 -0.1978 -2.9324  0.1548
 5202TIP3   OH237020   2.536   6.005  13.269 -0.0329 -0.4937 -0.0034
 5202TIP3    H137021   2.529   6.057  13.349 -0.5689 -0.0121 -0.3640
 5202TIP3    H237022   2.576   6.064  13.205 -1.4464 -0.2289 -0.6655
 5203TIP3   OH237023   1.549   0.229   5.044 -0.4601  0.0024 -0.3984
 5203TIP3    H137024   1.576   0.313   5.079 -0.3673  1.0503 -2.7996
 5203TIP3    H237025   1.454   0.228   5.053 -0.5126  0.6167 -0.8488
 5204TIP3   OH237026   2.163   0.321  10.928  0.5144 -0.1613 -0.2144
 5204TIP3    H137027   2.160   0.302  10.834  3.0222  0.2294 -0.4303
 5204TIP3    H237028   2.155   0.416  10.933 -1.7718 -0.3150  0.1782
 5205TIP3   OH237029   1.138   3.153   1.624 -0.1244 -0.6634  0.1168
 5205TIP3    H137030   1.128   3.170   1.718 -1.4735  1.2138 -0.3059
 5205TIP3    H237031   1.232   3.163   1.608 -0.1823  1.6548  0.8680
 5206TIP3   OH237032   3.351   4.615   6.195 -0.0517  0.6612 -0.2333
 5206TIP3    H137033   3.366   4.638   6.286 -0.8340 -1.7600  0.5768
 5206TIP3    H237034   3.376   4.694   6.146  2.1053  1.4310  1.8999
 5207TIP3   OH237035   5.990   0.637   3.827 -0.3136  1.1469 -0.3337
 5207TIP3    H137036   5.898   0.620   3.847 -1.3386  3.2996 -2.6522
 5207TIP3    H237037   6.002   0.601   3.740  1.2868  0.2887  0.2119
 5208TIP3   OH237038   3.934   4.480  12.224 -0.6397 -0.3161  0.6572
 5208TIP3    H137039   3.846   4.446  12.240 -0.2057 -2.4196 -1.0594
 5208TIP3    H237040   3.919   4.565  12.182 -1.8262 -0.2335  1.1988
 5209TIP3   OH237041   5.787   0.974  16.677  0.2285 -0.4986 -0.1181
 5209TIP3    H137042   5.764   0.995  16.586  0.2417  2.6575  0.4881
 5209TIP3    H237043   5.728   0.902  16.701  0.0332 -1.2231 -2.5044
 5210TIP3   OH237044   1.898   4.697  15.600 -0.5049 -0.5333 -0.4390
 5210TIP3    H137045   1.967   4.736  15.655 -1.3218  0.0345  0.2053
 5210TIP3    H237046   1.891   4.607  15.632 -0.7467 -0.3001  0.1836
 5211TIP3   OH237047   4.332   4.441  15.954 -0.0755  0.1155 -0.1376
 5211TIP3    H137048   4.344   4.489  15.872  1.6159  0.5968  0.3461
 5211TIP3    H237049   4.266   4.375  15.934  0.2688  0.2525 -1.8643
 5212TIP3   OH237050   1.976   0.250  13.937 -0.6099 -0.2434 -0.5950
 5212TIP3    H137051   2.009   0.208  13.858  0.2211 -0.6823 -0.0332
 5212TIP3    H237052   1.881   0.239  13.933 -0.3739 -3.2221  0.0726
 5213TIP3   OH237053   0.355   5.712   0.366  0.0916  0.3321 -0.6804
 5213TIP3    H137054   0.410   5.755   0.300 -0.9112  0.9424 -1.1417
 5213TIP3    H237055   0.285   5.775   0.383 -1.5438 -1.1682 -1.5226
 5214TIP3   OH237056   0.995   1.695  16.734 -0.1931  0.5763  0.7392
 5214TIP3    H137057   0.925   1.644  16.775  0.0347  0.2717  0.7561
 5214TIP3    H237058   1.038   1.739  16.807 -0.3551  0.7454  0.7308
 5215TIP3   OH237059   4.062   0.227  12.746 -0.0199 -0.1936 -0.3883
 5215TIP3    H137060   4.043   0.279  12.667 -0.3552  0.8442  0.3574
 5215TIP3    H237061   3.981   0.232  12.798  0.4347 -0.3000  0.3408
 5216TIP3   OH237062   3.056   2.499  12.465  0.3865 -0.5449  0.4163
 5216TIP3    H137063   2.993   2.572  12.461  0.4374 -0.5495 -1.6240
 5216TIP3    H237064   3.068   2.483  12.558 -2.0852 -0.0564  0.8892
 5217TIP3   OH237065   0.191   0.755   0.001  0.2622  0.0644 -0.4311
 5217TIP3    H137066   0.279   0.785  -0.021 -0.8768  3.1585 -1.2769
 5217TIP3    H237067   0.182   0.671  -0.044  2.8314 -0.4664 -0.0913
 5218TIP3   OH237068   3.362   4.062   4.366 -0.1517 -0.5093 -0.3299
 5218TIP3    H137069   3.287   4.008   4.391 -0.1096  0.7119  2.7620
 5218TIP3    H237070   3.325   4.148   4.347  0.3494 -0.2036  0.0709
 5219TIP3   OH237071   6.273   4.706  16.946 -0.6152  0.1433  0.5352
 5219TIP3    H137072   6.340   4.692  17.013 -1.9998 -0.9509  1.7549
 5219TIP3    H237073   6.306   4.780  16.895  0.8592  0.5255  1.9386
 5220TIP3   OH237074   3.068   0.719  12.392 -0.8528  0.1353 -0.0810
 5220TIP3    H137075   3.002   0.777  12.427  0.3877  1.0557  0.8139
 5220TIP3    H237076   3.083   0.654  12.461 -1.3046 -0.5034 -0.5631
 5221TIP3   OH237077   6.545   1.788   3.586  0.4656  0.0488  0.4140
 5221TIP3    H137078   6.522   1.725   3.518  1.3091  1.5526 -1.3620
 5221TIP3    H237079   6.640   1.800   3.577  0.3183  1.6093  0.6240
 5222TIP3   OH237080   1.857   6.191   1.294  0.2097 -0.9186 -0.0548
 5222TIP3    H137081   1.933   6.187   1.236  1.0891  0.1644  0.9638
 5222TIP3    H237082   1.782   6.196   1.236  1.0888  0.6589 -1.1179
 5223TIP3   OH237083   0.270   0.074  11.516  0.6198 -0.1282  0.2208
 5223TIP3    H137084   0.232   0.158  11.540 -0.1748  0.7192 -3.4563
 5223TIP3    H237085   0.362   0.080  11.543  0.2526  1.3436  1.2333
 5224TIP3   OH237086   5.897   0.646  10.694  0.0299  0.1477 -0.2375
 5224TIP3    H137087   5.843   0.647  10.615 -0.3604 -0.2763  0.0208
 5224TIP3    H237088   5.949   0.566  10.686  0.4014  0.3988 -0.3380
 5225TIP3   OH237089   3.849   2.506   3.378  0.2612 -0.6620  0.0991
 5225TIP3    H137090   3.763   2.487   3.339 -0.6470 -1.1127  2.1971
 5225TIP3    H237091   3.910   2.502   3.304 -1.6427  0.8355 -1.6730
 5226TIP3   OH237092   2.424   1.161  16.442  0.4749  0.6725  0.0571
 5226TIP3    H137093   2.493   1.131  16.383  0.8933 -0.3309  1.0364
 5226TIP3    H237094   2.349   1.177  16.384  0.5796 -1.1928 -0.6550
 5227TIP3   OH237095   2.926   5.948  14.574  0.3173 -0.4067  0.2426
 5227TIP3    H137096   2.889   5.883  14.634 -0.0450 -0.0138  0.4457
 5227TIP3    H237097   2.887   6.031  14.601  4.8226  1.0447  3.7446
 5228TIP3   OH237098   5.958   0.103  12.912 -0.0109 -0.3447 -0.4000
 5228TIP3    H137099   5.943   0.008  12.904  3.0007 -0.9368 -0.1341
 5228TIP3    H237100   5.875   0.137  12.945 -0.6581 -3.1613  1.2422
 5229TIP3   OH237101   1.185   1.120  16.886  0.0874 -0.0603 -0.2398
 5229TIP3    H137102   1.093   1.117  16.911  0.3451 -1.1120  0.6593
 5229TIP3    H237103   1.186   1.171  16.804 -1.2308  0.2688 -0.0784
 5230TIP3   OH237104   2.940   2.275  13.022 -0.1426  0.1815 -0.5721
 5230TIP3    H137105   2.913   2.318  13.103  0.3349  0.3742 -0.5122
 5230TIP3    H237106   3.034   2.290  13.017  0.7850 -3.7366  1.2018
 5231TIP3   OH237107   5.640   4.738   1.708  0.2844 -0.5073 -0.2157
 5231TIP3    H137108   5.582   4.801   1.666 -0.7048 -1.8923 -1.0075
 5231TIP3    H237109   5.663   4.779   1.792 -0.1311  0.9828 -0.7936
 5232TIP3   OH237110   3.913   5.914  17.092 -0.2766  0.8640 -0.1617
 5232TIP3    H137111   3.948   5.903  17.181  1.6811 -0.7323 -1.0457
 5232TIP3    H237112   3.855   5.838  17.080 -0.2108  0.8497 -0.3890
 5233TIP3   OH237113   5.098   3.725   3.213 -0.3010  0.4417 -0.5531
 5233TIP3    H137114   5.193   3.717   3.205 -0.2810  1.1166 -1.0640
 5233TIP3    H237115   5.084   3.804   3.265 -0.5738 -0.1286  0.2615
 5234TIP3   OH237116   4.081   5.525   5.696  0.0641 -0.6757 -0.9272
 5234TIP3    H137117   4.084   5.466   5.771 -0.8316 -0.7283 -0.9325
 5234TIP3    H237118   4.142   5.596   5.719 -1.5603  0.2810  0.6764
 5235TIP3   OH237119   2.145   5.225   3.263  0.0770 -0.8799 -0.4228
 5235TIP3    H137120   2.150   5.296   3.199 -0.7380 -2.6723 -2.6167
 5235TIP3    H237121   2.066   5.176   3.238 -0.0864 -1.8579  1.7872
 5236TIP3   OH237122   6.383   4.696   1.403 -0.1117 -0.4900 -0.0259
 5236TIP3    H137123   6.323   4.705   1.330  0.4659 -2.0914 -0.7603
 5236TIP3    H237124   6.443   4.770   1.395 -0.4540 -0.2902 -0.7853
 5237TIP3   OH237125   2.427   2.712  12.421  0.2762  0.0024  0.2498
 5237TIP3    H137126   2.388   2.669  12.345 -1.2746  1.7079  0.0146
 5237TIP3    H237127   2.353   2.731  12.479  1.1426  0.7769  1.1418
 5238TIP3   OH237128   0.461   4.944   3.480  0.2116  0.1841 -0.8062
 5238TIP3    H137129   0.445   4.910   3.392  0.1079  0.0936 -0.7521
 5238TIP3    H237130   0.553   4.924   3.497  0.4862  1.0164 -1.2547
 5239TIP3   OH237131   5.976   5.796  13.730  0.3164 -0.5956 -0.5830
 5239TIP3    H137132   5.931   5.863  13.679 -0.0997  0.6639  1.3284
 5239TIP3    H237133   5.930   5.715  13.709 -1.9331  0.4183  0.1814
 5240TIP3   OH237134   5.707   4.441  13.229 -0.2705  0.4124  0.4015
 5240TIP3    H137135   5.702   4.534  13.248 -0.3398  0.3711  0.5881
 5240TIP3    H237136   5.621   4.406  13.255  0.1609  0.0924  1.4458
 5241TIP3   OH237137   5.379   3.150  16.245 -0.3965 -0.2646  0.3705
 5241TIP3    H137138   5.347   3.240  16.246  0.4630  0.0397  0.6723
 5241TIP3    H237139   5.425   3.140  16.328  0.1576 -0.7568  0.0077
 5242TIP3   OH237140   4.302   2.333  15.821  0.4333 -0.1497 -0.1085
 5242TIP3    H137141   4.294   2.299  15.910 -0.9018 -0.6536 -0.3909
 5242TIP3    H237142   4.395   2.329  15.801  0.5408 -1.7586  0.6132
 5243TIP3   OH237143   5.475   4.578   2.017  0.3110  0.4270 -0.3022
 5243TIP3    H137144   5.532   4.580   1.940  0.9525  1.9173  0.1888
 5243TIP3    H237145   5.398   4.530   1.988  1.1104 -0.2113 -1.4669
 5244TIP3   OH237146   4.901   2.632  14.393  0.4919  0.1702  0.2868
 5244TIP3    H137147   4.945   2.695  14.336 -1.5366  1.1454 -0.2760
 5244TIP3    H237148   4.885   2.680  14.475  0.6494 -0.2489  0.5693
 5245TIP3   OH237149   5.219   0.258  13.694  1.1983 -0.1353 -0.0838
 5245TIP3    H137150   5.141   0.213  13.727  1.5909  1.1396  2.8833
 5245TIP3    H237151   5.196   0.283  13.605 -1.0299 -1.4892  0.0331
 5246TIP3   OH237152   0.706   1.285  10.580  0.2088 -0.4280  0.4604
 5246TIP3    H137153   0.669   1.257  10.663 -0.0628  0.1149  0.5225
 5246TIP3    H237154   0.775   1.220  10.561 -0.6295 -1.3319  0.4326
 5247TIP3   OH237155   6.485   5.592  14.752 -0.0767  0.2672 -0.0108
 5247TIP3    H137156   6.439   5.508  14.753 -2.6758  1.5927  0.0132
 5247TIP3    H237157   6.472   5.627  14.664  1.1121  0.5972 -0.0755
 5248TIP3   OH237158   5.369   5.888  13.285 -0.6008  0.2579  0.2067
 5248TIP3    H137159   5.282   5.849  13.278 -0.4323 -0.4127  1.5161
 5248TIP3    H237160   5.357   5.966  13.339 -0.7554  1.4664 -1.5235
 5249TIP3   OH237161   6.242   5.281  11.602 -0.0121  0.1095  0.3083
 5249TIP3    H137162   6.281   5.312  11.520  1.0717  0.4346  0.9210
 5249TIP3    H237163   6.219   5.361  11.649 -1.2546 -0.0796  0.0526
 5250TIP3   OH237164   0.372   4.069   0.481 -0.8234 -0.0421  0.3338
 5250TIP3    H137165   0.313   4.144   0.475 -0.2057  0.5657  1.5598
 5250TIP3    H237166   0.314   3.993   0.484 -1.4492  0.3098 -1.5066
 5251TIP3   OH237167   3.825   0.674   3.157  0.2448 -0.3602 -0.4965
 5251TIP3    H137168   3.740   0.717   3.150  1.3488  2.5725  2.0089
 5251TIP3    H237169   3.815   0.612   3.229  0.3601  0.4435  0.2235
 5252TIP3   OH237170   6.112   0.237   4.197 -0.2799 -0.1991  0.5045
 5252TIP3    H137171   6.142   0.227   4.107  0.1588  0.1405  0.6074
 5252TIP3    H237172   6.193   0.251   4.247 -0.6057  0.5979  0.8137
 5253TIP3   OH237173   2.253   6.698  15.399 -0.1108  1.2566 -0.2654
 5253TIP3    H137174   2.273   6.630  15.334 -0.2714  0.9075  0.0453
 5253TIP3    H237175   2.187   6.752  15.357  1.2836  2.3074 -1.2299
 5254TIP3   OH237176   6.607   1.048  13.692 -0.0467 -0.2533 -0.4822
 5254TIP3    H137177   6.532   1.017  13.641  0.2108 -1.1121 -0.3551
 5254TIP3    H237178   6.602   0.999  13.773 -1.1301  1.9330  0.8789
 5255TIP3   OH237179   5.595   0.685  12.140 -1.0323 -0.2440  0.0193
 5255TIP3    H137180   5.585   0.656  12.231  0.9309 -0.7587  0.1248
 5255TIP3    H237181   5.567   0.776  12.141 -0.6244 -0.1073  1.2479
 5256TIP3   OH237182   1.738   4.749   0.265  0.1567 -0.0097  0.0365
 5256TIP3    H137183   1.798   4.790   0.327 -1.8855 -0.9172  2.8000
 5256TIP3    H237184   1.669   4.814   0.253  0.1293 -0.1624 -0.6618
 5257TIP3   OH237185   4.798   6.734  11.878 -0.1665 -0.4603 -0.4060
 5257TIP3    H137186   4.847   6.736  11.960  0.6105  2.4078 -0.8139
 5257TIP3    H237187   4.825   6.653  11.835  2.1221 -0.3231  0.6238
 5258TIP3   OH237188   2.187   0.375  16.668 -0.2163 -0.4045 -0.5961
 5258TIP3    H137189   2.142   0.447  16.625  1.9419  0.8809 -0.8304
 5258TIP3    H237190   2.271   0.369  16.624  0.2960 -2.0127  0.4995
 5259TIP3   OH237191   1.843   5.550   1.463 -0.2513  0.3479  0.4989
 5259TIP3    H137192   1.853   5.488   1.535 -1.9134  0.6823  1.0497
 5259TIP3    H237193   1.923   5.603   1.466  0.6446 -0.9550  0.7726
 5260TIP3   OH237194   6.054   0.567  12.024  0.0580  0.2987  0.1463
 5260TIP3    H137195   6.035   0.564  11.930 -0.3191  0.5195  0.2130
 5260TIP3    H237196   6.148   0.550  12.030 -0.1238 -0.9471 -0.1814
 5261TIP3   OH237197   6.042   1.309  16.789 -0.2776 -0.2825 -0.2628
 5261TIP3    H137198   6.025   1.362  16.711 -0.1124  3.1513  1.7903
 5261TIP3    H237199   6.104   1.362  16.840 -1.3988 -1.6884  2.7962
 5262TIP3   OH237200   4.265   5.932   2.928  0.2062 -0.2792 -0.6397
 5262TIP3    H137201   4.222   5.853   2.896 -1.8933  0.9304 -0.9637
 5262TIP3    H237202   4.279   5.986   2.849 -0.5749  0.6725 -0.1430
 5263TIP3   OH237203   3.879   3.045   2.610  0.0485 -0.1664 -0.7423
 5263TIP3    H137204   3.854   3.077   2.696 -1.1358 -0.3392 -0.9994
 5263TIP3    H237205   3.961   2.998   2.624 -0.5770 -0.9567  0.4467
 5264TIP3   OH237206   0.322   0.223   0.096 -0.0166  0.0005 -0.2945
 5264TIP3    H137207   0.363   0.242   0.181 -0.3454 -0.5637 -0.0037
 5264TIP3    H237208   0.338   0.129   0.082  0.2794  0.1478 -0.9943
 5265TIP3   OH237209   1.984   0.561   5.707  0.1628 -0.4130  0.0421
 5265TIP3    H137210   1.996   0.505   5.783  1.4613  0.8769  0.8402
 5265TIP3    H237211   1.974   0.649   5.744 -1.5995 -0.0538 -1.1803
 5266TIP3   OH237212   3.949   0.305  17.165  0.4614  0.3580 -0.4909
 5266TIP3    H137213   3.946   0.349  17.250 -0.5133 -0.4329 -0.1006
 5266TIP3    H237214   4.041   0.307  17.141  0.6254  1.3972  0.1557
 5267TIP3   OH237215   4.101   5.529  12.787 -0.2942  0.4256  0.3450
 5267TIP3    H137216   4.071   5.438  12.789 -0.3663  0.2602 -3.1201
 5267TIP3    H237217   4.196   5.523  12.788 -0.2964  0.2933 -0.1769
 5268TIP3   OH237218   2.879   2.050   4.764 -0.5762 -0.1394 -0.0927
 5268TIP3    H137219   2.820   2.100   4.708  0.1515  0.9045  0.0417
 5268TIP3    H237220   2.930   2.116   4.810  0.8250 -1.0135 -0.3421
 5269TIP3   OH237221   5.568   5.883   3.371  0.8720  0.3774 -0.1563
 5269TIP3    H137222   5.528   5.797   3.389 -0.0733  0.8768  0.2039
 5269TIP3    H237223   5.596   5.878   3.280 -0.4906  0.1812 -0.5867
 5270TIP3   OH237224   3.012   4.846  15.989 -0.3554 -0.6034 -1.1507
 5270TIP3    H137225   3.076   4.915  15.970 -0.3897 -0.8698 -2.3187
 5270TIP3    H237226   2.931   4.877  15.949 -1.2063  0.0801  0.9587
 5271TIP3   OH237227   5.546   5.447  16.321  0.6818  0.6697 -0.4111
 5271TIP3    H137228   5.534   5.525  16.377  0.5409 -0.0369  0.5665
 5271TIP3    H237229   5.635   5.455  16.288  0.5364  1.4481 -0.6439
 5272TIP3   OH237230   0.093   1.810   0.505  0.0944 -0.3685 -0.6595
 5272TIP3    H137231   0.170   1.866   0.501 -0.3344  0.2309 -0.7185
 5272TIP3    H237232   0.023   1.862   0.466 -0.7263 -0.2309  0.8981
 5273TIP3   OH237233   1.064   3.352  16.121 -0.3338  0.4026  0.4733
 5273TIP3    H137234   1.153   3.329  16.094 -0.2606  0.7810  0.3856
 5273TIP3    H237235   1.052   3.305  16.204 -0.5554 -0.7350 -0.1878
 5274TIP3   OH237236   2.228   3.981   5.678 -0.5501  0.4055  0.0999
 5274TIP3    H137237   2.204   3.898   5.719  1.9496 -0.9054 -0.9038
 5274TIP3    H237238   2.300   4.014   5.731 -0.6890  1.3182 -0.2577
 5275TIP3   OH237239   0.849   5.497   1.481 -0.2104 -0.9353  0.0960
 5275TIP3    H137240   0.940   5.521   1.498 -0.9019  0.8714  1.5538
 5275TIP3    H237241   0.806   5.499   1.567 -2.2392  1.0651 -0.8557
 5276TIP3   OH237242   0.918   2.352  16.132 -0.0447 -0.1428  0.0433
 5276TIP3    H137243   0.867   2.374  16.210  1.3760 -1.5070  1.3975
 5276TIP3    H237244   0.907   2.258  16.122  0.6349 -0.1387 -0.8159
 5277TIP3   OH237245   3.326   3.949   5.707  0.8353 -0.2667 -0.1428
 5277TIP3    H137246   3.286   3.908   5.784 -2.8507  1.0336 -1.1797
 5277TIP3    H237247   3.345   4.039   5.735  1.7120 -0.4625 -0.0919
 5278TIP3   OH237248   5.943   2.068   1.793 -0.3038 -0.3726  0.3610
 5278TIP3    H137249   5.884   2.049   1.866 -0.0737 -0.2855  0.5711
 5278TIP3    H237250   5.914   2.010   1.723 -0.6701 -0.2939  0.4474
 5279TIP3   OH237251   4.887   5.259   2.473  0.2303 -0.1949 -0.1719
 5279TIP3    H137252   4.917   5.350   2.479  2.0487 -0.8198  1.7016
 5279TIP3    H237253   4.810   5.256   2.529 -0.0383  0.2711 -0.5143
 5280TIP3   OH237254   5.085   0.150  14.613 -0.2327  0.0143 -0.0673
 5280TIP3    H137255   5.032   0.160  14.534  0.6431 -0.2806 -0.7067
 5280TIP3    H237256   5.154   0.216  14.603 -0.4076  0.3229  0.7049
 5281TIP3   OH237257   6.253   2.686   3.099 -0.0059 -0.3576  0.5187
 5281TIP3    H137258   6.292   2.751   3.157 -1.1547  0.1658  0.7382
 5281TIP3    H237259   6.299   2.697   3.016 -1.4159  2.1139 -0.0603
 5282TIP3   OH237260   4.176   1.709  14.501  0.4970  0.3918  0.0947
 5282TIP3    H137261   4.139   1.656  14.430  0.3923  2.8457 -1.8241
 5282TIP3    H237262   4.102   1.726  14.559  0.2883 -0.6578  0.1434
 5283TIP3   OH237263   3.627   0.315   1.224 -0.3590  0.0042 -0.0890
 5283TIP3    H137264   3.548   0.273   1.259  0.7292 -1.4657  0.7230
 5283TIP3    H237265   3.658   0.254   1.156 -0.3965  1.0069 -1.0225
 5284TIP3   OH237266   4.432   6.341  12.142  0.0606  0.3718  0.1602
 5284TIP3    H137267   4.477   6.314  12.222 -0.3749  0.4874  0.4523
 5284TIP3    H237268   4.500   6.345  12.076  0.2346 -0.8446  0.2462
 5285TIP3   OH237269   2.349   0.294   2.881  0.0125 -0.3211 -0.4891
 5285TIP3    H137270   2.402   0.220   2.911  0.7017  1.3831  3.0547
 5285TIP3    H237271   2.374   0.305   2.789  2.3271 -2.4415 -0.2423
 5286TIP3   OH237272   5.792   3.903  14.082  0.1862 -0.2291 -0.3802
 5286TIP3    H137273   5.705   3.930  14.109  0.2088  0.4567 -0.9446
 5286TIP3    H237274   5.780   3.861  13.997  0.5250  1.0232 -1.0861
 5287TIP3   OH237275   0.832   1.063   3.070  0.3067 -0.3918  0.9908
 5287TIP3    H137276   0.813   0.995   3.005  1.0276 -0.5006  0.8812
 5287TIP3    H237277   0.834   1.016   3.154 -2.7292  0.0696  1.4462
 5288TIP3   OH237278   6.376   2.653   1.237  0.1575 -0.1631 -0.0634
 5288TIP3    H137279   6.354   2.603   1.158 -0.4389  0.2163 -0.1432
 5288TIP3    H237280   6.468   2.632   1.253  0.1918 -0.5120 -0.6623
 5289TIP3   OH237281   0.771   5.851  11.886 -0.2855 -0.3172 -0.1824
 5289TIP3    H137282   0.817   5.931  11.862  1.5775 -1.1613  0.3723
 5289TIP3    H237283   0.684   5.880  11.913 -0.3978  1.2652 -2.0347
 5290TIP3   OH237284   1.133   2.607  14.654  0.9262 -0.2710  0.1638
 5290TIP3    H137285   1.206   2.589  14.594  1.2932 -0.7961  0.7495
 5290TIP3    H237286   1.101   2.520  14.679 -0.6226 -0.0511 -0.9227
 5291TIP3   OH237287   3.914   4.328  11.967  0.4730 -0.1517 -0.5221
 5291TIP3    H137288   3.924   4.375  12.050  0.7977 -0.8498 -0.1600
 5291TIP3    H237289   3.999   4.336  11.924  0.5883 -0.5590 -0.3761
 5292TIP3   OH237290   5.028   3.279   3.068  0.1691 -0.0184 -0.0181
 5292TIP3    H137291   4.940   3.290   3.103  0.8163  0.5300  1.5623
 5292TIP3    H237292   5.064   3.204   3.115  1.1948  0.9634  0.8464
 5293TIP3   OH237293   4.775   0.098   1.934 -0.0071 -0.8456  0.3192
 5293TIP3    H137294   4.868   0.116   1.946 -0.3305 -0.3526  2.3579
 5293TIP3    H237295   4.762   0.104   1.839  1.9640 -0.6568  0.0151
 5294TIP3   OH237296   1.256   2.521  11.190 -0.0552 -1.0864  0.4670
 5294TIP3    H137297   1.256   2.425  11.186  0.8526 -1.1172  0.8406
 5294TIP3    H237298   1.345   2.544  11.216  0.4027 -0.0426 -1.7612
 5295TIP3   OH237299   1.720   6.301  11.886 -0.0521  0.3499 -0.0175
 5295TIP3    H137300   1.667   6.273  11.960  1.4643 -1.1550  0.5412
 5295TIP3    H237301   1.788   6.357  11.924  0.6553 -0.3222 -0.2709
 5296TIP3   OH237302   6.612   3.465  13.386 -0.1087 -0.6196 -0.3816
 5296TIP3    H137303   6.612   3.429  13.297 -2.2791  1.7985 -1.4976
 5296TIP3    H237304   6.629   3.558  13.374 -3.1237  0.2976  1.3638
 5297TIP3   OH237305   5.262   6.751   0.957  0.5133 -0.4399 -0.3222
 5297TIP3    H137306   5.327   6.721   1.021  0.0341  0.8325  0.8052
 5297TIP3    H237307   5.286   6.841   0.938 -1.4754  0.4349  0.9355
 5298TIP3   OH237308   2.185   6.267  15.044 -0.3633 -0.5337  1.1277
 5298TIP3    H137309   2.173   6.289  14.951  1.0841  1.9757  1.4422
 5298TIP3    H237310   2.238   6.188  15.043  1.4133  0.5748 -0.2684
 5299TIP3   OH237311   6.434   4.657   5.662  0.0400  0.0740 -0.1298
 5299TIP3    H137312   6.381   4.590   5.619 -0.3442  1.5776 -2.2009
 5299TIP3    H237313   6.371   4.709   5.712  0.1658 -0.4354  0.5619
 5300TIP3   OH237314   1.256   0.938   4.845  0.4331 -0.7297 -0.0233
 5300TIP3    H137315   1.337   0.989   4.847 -1.0540  1.7283  0.3332
 5300TIP3    H237316   1.240   0.921   4.751  0.7794 -0.2867 -0.1627
 5301TIP3   OH237317   1.852   0.615   4.349 -0.4550  0.1445 -0.5919
 5301TIP3    H137318   1.827   0.703   4.378  0.4905  0.2044  0.0943
 5301TIP3    H237319   1.803   0.556   4.407 -0.8425  0.2215 -0.8397
 5302TIP3   OH237320   0.256   6.011   2.541 -0.2975 -0.1657  0.8943
 5302TIP3    H137321   0.314   6.086   2.554  1.1419 -0.6238 -1.9140
 5302TIP3    H237322   0.168   6.048   2.539  0.4398  1.7400 -1.4443
 5303TIP3   OH237323   4.127   6.386   0.586  0.8692 -0.0168 -0.0184
 5303TIP3    H137324   4.130   6.329   0.663  1.8780 -0.8292 -0.6178
 5303TIP3    H237325   4.119   6.474   0.621 -2.0459 -0.5641  0.9160
 5304TIP3   OH237326   3.489   0.329  11.553 -0.0188 -0.0635 -0.1176
 5304TIP3    H137327   3.496   0.333  11.648 -0.3751  2.4419 -0.1207
 5304TIP3    H237328   3.574   0.297  11.524 -0.2440 -1.8643  1.0324
 5305TIP3   OH237329   5.205   0.689  16.030  0.0036  0.2007 -0.0673
 5305TIP3    H137330   5.220   0.710  16.123  1.8998 -2.2903  0.2856
 5305TIP3    H237331   5.282   0.726  15.986  0.4013 -0.8182 -0.2474
 5306TIP3   OH237332   0.482   3.775   3.749  0.2266  0.6400  0.1014
 5306TIP3    H137333   0.528   3.717   3.810  0.1372 -0.8108 -1.1512
 5306TIP3    H237334   0.390   3.751   3.758  0.0745  1.2849  0.2795
 5307TIP3   OH237335   2.923   3.165   3.432 -0.4217 -0.5399 -0.0791
 5307TIP3    H137336   3.000   3.220   3.450 -1.3514  0.6657  0.3471
 5307TIP3    H237337   2.888   3.199   3.349 -0.3148 -1.3179 -0.4577
 5308TIP3   OH237338   2.423   1.937   1.862 -0.0261  0.3563  0.2439
 5308TIP3    H137339   2.409   1.931   1.767 -1.9218  1.9729  0.3459
 5308TIP3    H237340   2.375   2.016   1.888  0.2557 -0.1703  2.5956
 5309TIP3   OH237341   2.089   3.092  15.498 -0.4465  0.0885  0.0227
 5309TIP3    H137342   2.170   3.143  15.504 -0.1871 -0.3307  0.0794
 5309TIP3    H237343   2.038   3.121  15.573 -1.3957  2.1454 -1.3065
 5310TIP3   OH237344   5.880   5.068  14.317 -0.2835  0.0655 -0.2238
 5310TIP3    H137345   5.915   5.157  14.310 -1.0427  0.4829  1.0900
 5310TIP3    H237346   5.817   5.062  14.245  1.1268 -0.0966 -1.5107
 5311TIP3   OH237347   2.960   5.020  11.912  0.1412 -0.3280 -0.1405
 5311TIP3    H137348   2.868   5.029  11.885  0.2028  1.2549  0.0777
 5311TIP3    H237349   2.959   5.040  12.005  0.6263 -0.9941  0.0166
 5312TIP3   OH237350   2.699   6.319   2.852  0.5618 -0.0927  0.2397
 5312TIP3    H137351   2.683   6.225   2.857  0.6573 -0.1772 -0.8322
 5312TIP3    H237352   2.771   6.335   2.912  0.6442 -0.7282  0.3142
 5313TIP3   OH237353   2.160   5.196  12.443 -0.3716  0.4315  0.0799
 5313TIP3    H137354   2.196   5.278  12.409  0.0681  0.3754  0.3890
 5313TIP3    H237355   2.237   5.150  12.479 -0.4865 -0.4626 -0.7913
 5314TIP3   OH237356   5.511   2.165  13.880  0.4587  0.1103  0.5083
 5314TIP3    H137357   5.427   2.192  13.918  1.6464  0.8097  2.8187
 5314TIP3    H237358   5.503   2.071  13.869 -0.3692  0.0589  1.4089
 5315TIP3   OH237359   6.366   4.591   4.544  0.0906  0.2073 -0.2536
 5315TIP3    H137360   6.344   4.668   4.491 -0.5573  0.0595 -0.2078
 5315TIP3    H237361   6.437   4.549   4.497 -0.7846 -0.1834 -1.2790
 5316TIP3   OH237362   3.869   6.299  16.308 -0.4490  0.5710  0.0258
 5316TIP3    H137363   3.860   6.393  16.297 -0.3443  0.5859  0.0610
 5316TIP3    H237364   3.804   6.261  16.250  0.0312  0.6495 -0.5798
 5317TIP3   OH237365   2.465   0.297   1.181 -0.3187 -0.0148  0.5231
 5317TIP3    H137366   2.488   0.247   1.259  1.9518 -0.3282 -0.2650
 5317TIP3    H237367   2.398   0.359   1.210  0.0473 -0.5195  2.5590
 5318TIP3   OH237368   4.667   3.140  16.931  0.4976 -0.4139 -0.6193
 5318TIP3    H137369   4.621   3.134  17.014  0.4081 -0.6759 -0.6858
 5318TIP3    H237370   4.705   3.228  16.930  2.1444 -1.0626  0.5617
 5319TIP3   OH237371   2.866   3.921  13.335  0.6185 -0.3960  0.5170
 5319TIP3    H137372   2.943   3.974  13.318 -0.7987  1.3807 -0.7463
 5319TIP3    H237373   2.840   3.944  13.425 -1.2147  2.9376 -0.6831
 5320TIP3   OH237374   4.914   1.708   1.962  0.6122  0.4770  0.2273
 5320TIP3    H137375   4.875   1.753   2.037 -2.2481  0.3097 -0.9852
 5320TIP3    H237376   4.955   1.778   1.911  0.1706  1.0211  0.6073
 5321TIP3   OH237377   0.757   2.774  11.386 -0.1206  0.1156  0.2038
 5321TIP3    H137378   0.721   2.825  11.312  0.6519  0.3011 -0.0582
 5321TIP3    H237379   0.789   2.694  11.346  0.6382  0.3759  0.2679
 5322TIP3   OH237380   5.034   2.061  12.362 -0.3565 -0.7679  0.0838
 5322TIP3    H137381   5.060   2.071  12.270  0.4846 -0.9249  0.2999
 5322TIP3    H237382   4.941   2.085  12.363  0.3638  2.5983 -0.2675
 5323TIP3   OH237383   4.361   1.784   1.613  0.2203 -0.6789  0.0463
 5323TIP3    H137384   4.405   1.867   1.631 -0.0923 -0.7164  1.0194
 5323TIP3    H237385   4.290   1.807   1.553 -0.6991  0.0043  1.3466
 5324TIP3   OH237386   3.458   5.750  12.143  0.1123  0.0057 -0.1845
 5324TIP3    H137387   3.400   5.826  12.135  1.7839  1.3811 -0.1182
 5324TIP3    H237388   3.401   5.678  12.166 -1.2717  1.8201  2.6371
 5325TIP3   OH237389   4.554   0.499  12.861  0.6965  0.5481 -0.1001
 5325TIP3    H137390   4.526   0.500  12.769 -0.4762 -1.7101  0.1700
 5325TIP3    H237391   4.639   0.456  12.859  0.8585  0.8630 -0.1470
 5326TIP3   OH237392   3.479   0.121   3.127  0.6630  0.5188 -0.2184
 5326TIP3    H137393   3.422   0.082   3.061  0.8050  0.2820 -0.2033
 5326TIP3    H237394   3.468   0.215   3.116  1.1093  0.4951 -0.9608
 5327TIP3   OH237395   0.899   1.824   4.400  0.6934  0.1961  0.4343
 5327TIP3    H137396   0.981   1.864   4.372  1.0920  0.1386  1.4536
 5327TIP3    H237397   0.924   1.739   4.436  0.1911  0.1543  0.7088
 5328TIP3   OH237398   3.904   3.886   0.669 -0.4433 -0.6334  0.3519
 5328TIP3    H137399   3.911   3.951   0.738  2.3908 -0.6354  0.1912
 5328TIP3    H237400   3.914   3.802   0.714  2.1766 -0.6061 -0.0159
 5329TIP3   OH237401   0.380   5.607  16.209 -0.1194  0.3761 -0.1230
 5329TIP3    H137402   0.381   5.662  16.287 -0.2169  1.0992 -0.6281
 5329TIP3    H237403   0.376   5.517  16.243  2.3014  0.5270  0.7772
 5330TIP3   OH237404   2.084   2.787  16.467  0.2164 -0.3061 -0.0886
 5330TIP3    H137405   2.011   2.732  16.495 -0.7348  1.5265  1.2245
 5330TIP3    H237406   2.069   2.800  16.373 -2.3645  1.6095  0.4696
 5331TIP3   OH237407   3.309   5.298   2.629 -0.4613  0.7645  0.1555
 5331TIP3    H137408   3.260   5.226   2.588  0.3597  0.9500 -1.2201
 5331TIP3    H237409   3.361   5.256   2.697 -1.0115  0.2644  0.2727
 5332TIP3   OH237410   0.508   3.866   5.358  0.3683 -0.5513  0.1766
 5332TIP3    H137411   0.510   3.771   5.372 -0.8704 -0.3473  2.1395
 5332TIP3    H237412   0.415   3.887   5.347  0.7252  0.3126 -1.5353
 5333TIP3   OH237413   2.082   5.691   1.438 -0.0029 -0.4017 -0.2694
 5333TIP3    H137414   2.122   5.774   1.410 -0.3247 -0.6590 -1.5670
 5333TIP3    H237415   2.156   5.631   1.447  0.1251 -0.2645 -0.3883
 5334TIP3   OH237416   1.668   5.217   5.212  0.0586 -0.0922  0.2420
 5334TIP3    H137417   1.716   5.140   5.182  0.9204 -0.4271  2.2766
 5334TIP3    H237418   1.716   5.291   5.177 -0.7798 -0.4305 -1.7424
 5335TIP3   OH237419   0.673   2.193   2.785  0.1208  0.1440  0.2521
 5335TIP3    H137420   0.717   2.264   2.832 -2.0388  2.3157 -0.7721
 5335TIP3    H237421   0.670   2.121   2.848  1.8178  1.1771  1.5883
 5336TIP3   OH237422   0.458   2.691  15.557 -0.5938  0.0341 -0.4081
 5336TIP3    H137423   0.541   2.735  15.578 -0.9281  0.3266  0.3444
 5336TIP3    H237424   0.434   2.646  15.638  0.3097 -2.5202 -1.4729
 5337TIP3   OH237425   0.577   1.484   2.106 -0.5848  0.7815  0.3047
 5337TIP3    H137426   0.542   1.420   2.044  0.5566  0.5220 -0.0791
 5337TIP3    H237427   0.621   1.548   2.052  0.0741  0.7748  0.8239
 5338TIP3   OH237428   3.881   5.701  12.740 -0.3048  0.4557 -0.0733
 5338TIP3    H137429   3.949   5.643  12.774 -0.9423 -0.8491 -0.9370
 5338TIP3    H237430   3.823   5.717  12.815  0.4861  0.9108  0.4560
 5339TIP3   OH237431   5.402   0.661   0.900  0.2329  0.2165  0.6311
 5339TIP3    H137432   5.310   0.685   0.893  0.2769  0.0904 -0.6796
 5339TIP3    H237433   5.404   0.590   0.965 -0.8746 -1.0425 -0.6431
 5340TIP3   OH237434   1.872   5.447   0.115 -0.3953  0.8449 -0.1033
 5340TIP3    H137435   1.806   5.503   0.156  0.3748  1.4499  0.3296
 5340TIP3    H237436   1.881   5.373   0.175 -0.6038  0.8014 -0.1219
 5341TIP3   OH237437   3.672   2.411  11.496 -0.1179  0.7511  0.2347
 5341TIP3    H137438   3.745   2.473  11.502  1.4933 -1.0023 -0.1484
 5341TIP3    H237439   3.691   2.347  11.565  0.6297 -1.5947 -1.9952
 5342TIP3   OH237440   5.341   6.166  13.764  0.0461  0.2891 -0.0236
 5342TIP3    H137441   5.421   6.117  13.747  0.1325  0.2507  0.4842
 5342TIP3    H237442   5.365   6.257  13.746 -0.0389  0.1859 -0.6956
 5343TIP3   OH237443   5.369   1.975  15.512  0.3654  0.5575  0.2943
 5343TIP3    H137444   5.344   2.042  15.449  1.3981  1.2264  0.5747
 5343TIP3    H237445   5.422   2.021  15.577  1.6992 -0.6371  0.1154
 5344TIP3   OH237446   2.247   0.683   3.302 -0.0697  0.2366  0.3380
 5344TIP3    H137447   2.189   0.757   3.321 -1.8952 -1.6581  2.8538
 5344TIP3    H237448   2.194   0.626   3.246  0.6520  0.0318 -0.1403
 5345TIP3   OH237449   1.553   5.212  16.460  0.2731  0.6243 -0.2347
 5345TIP3    H137450   1.481   5.149  16.458  0.1686  0.7531 -0.5882
 5345TIP3    H237451   1.511   5.297  16.452  0.4172  0.7403  0.2173
 5346TIP3   OH237452   0.816   3.847  13.498  0.0895  0.1817 -0.1279
 5346TIP3    H137453   0.899   3.895  13.500  1.1787 -1.5661 -0.7055
 5346TIP3    H237454   0.843   3.755  13.492 -1.8731 -0.3200 -3.5797
 5347TIP3   OH237455   2.065   3.433   1.878  0.3489 -0.3614  0.0099
 5347TIP3    H137456   2.030   3.350   1.912  1.2711 -0.1571  1.5807
 5347TIP3    H237457   2.138   3.406   1.822 -2.0577 -0.7837 -3.2255
 5348TIP3   OH237458   3.405   2.705   5.577 -0.0657  0.4069  0.0067
 5348TIP3    H137459   3.347   2.659   5.638 -1.2867  2.7789  0.7672
 5348TIP3    H237460   3.491   2.668   5.593 -0.6200 -0.1116  2.0914
 5349TIP3   OH237461   1.743   5.036   0.885  0.0384 -0.0702 -0.4335
 5349TIP3    H137462   1.707   5.020   0.972  1.0209 -1.3898 -0.2478
 5349TIP3    H237463   1.666   5.045   0.828 -0.5986 -1.3339  0.1979
 5350TIP3   OH237464   4.067   5.377  16.744  0.0271  0.2653 -0.3704
 5350TIP3    H137465   4.099   5.294  16.778 -2.1678 -0.6532 -0.3928
 5350TIP3    H237466   4.145   5.423  16.714  1.2529 -1.9668 -0.7803
 5351TIP3   OH237467   1.762   3.331   5.774  0.6934  0.7811  0.2445
 5351TIP3    H137468   1.744   3.241   5.801 -0.1614  1.3822  1.8659
 5351TIP3    H237469   1.697   3.383   5.822  1.1923  2.2672 -0.6283
 5352TIP3   OH237470   3.282   5.477  14.939 -0.0670  0.2807 -0.3743
 5352TIP3    H137471   3.229   5.509  14.866  1.9405  0.9714 -1.6068
 5352TIP3    H237472   3.351   5.542  14.948  0.0043 -0.0262  1.8904
 5353TIP3   OH237473   6.381   1.883  14.833 -0.4944  0.6553  0.3884
 5353TIP3    H137474   6.397   1.960  14.778 -0.1329 -1.1881 -2.2715
 5353TIP3    H237475   6.468   1.856  14.861 -0.2916 -0.3344 -1.0511
 5354TIP3   OH237476   4.234   6.582  14.499  0.0557 -0.1123 -0.2569
 5354TIP3    H137477   4.155   6.627  14.469 -0.4378  0.0374  1.1862
 5354TIP3    H237478   4.281   6.648  14.549 -0.8299 -1.2164  2.1604
 5355TIP3   OH237479   1.790   1.072  16.494 -0.3875  0.5127 -0.0197
 5355TIP3    H137480   1.766   1.165  16.493 -1.5441  0.2297 -1.4431
 5355TIP3    H237481   1.711   1.027  16.463  0.7267 -0.7909 -1.0546
 5356TIP3   OH237482   1.077   5.806  13.641  0.3674 -0.3938  0.0080
 5356TIP3    H137483   1.156   5.753  13.651  0.3230 -0.2869  1.0532
 5356TIP3    H237484   1.007   5.754  13.681  0.5230  0.8686  2.1159
 5357TIP3   OH237485   3.964   5.255  16.347 -0.5423 -0.4622  0.8648
 5357TIP3    H137486   3.961   5.187  16.280  0.5671  2.0625 -1.9423
 5357TIP3    H237487   3.917   5.329  16.308 -2.2333  0.3199  4.0186
 5358TIP3   OH237488   0.240   3.918   4.423  0.1426  0.9297 -0.2901
 5358TIP3    H137489   0.177   3.948   4.357 -0.3203  0.8038  0.0954
 5358TIP3    H237490   0.259   3.996   4.475  0.0655  0.8966 -0.2115
 5359TIP3   OH237491   2.438   6.507  12.294 -0.0491  0.3213 -0.6499
 5359TIP3    H137492   2.450   6.501  12.199 -0.0822  2.3211 -0.8278
 5359TIP3    H237493   2.502   6.573  12.322 -2.3026  2.2935  0.1792
 5360TIP3   OH237494   2.395   0.695  14.413 -0.0271 -0.2590 -0.4121
 5360TIP3    H137495   2.357   0.635  14.478 -1.3074  1.1857  0.2244
 5360TIP3    H237496   2.412   0.775  14.461 -0.2788  0.5881 -1.6898
 5361TIP3   OH237497   4.408   6.163  13.485  0.0662 -0.1481 -0.9154
 5361TIP3    H137498   4.426   6.143  13.577 -0.0079 -1.1654 -1.1083
 5361TIP3    H237499   4.471   6.231  13.462 -0.8945  1.2154  0.2880
 5362TIP3   OH237500   5.686   1.990   3.760  0.3211 -0.1593  0.0255
 5362TIP3    H137501   5.764   1.996   3.814 -0.9356 -0.7980  2.0038
 5362TIP3    H237502   5.708   2.038   3.680  1.7659  2.0678  1.6740
 5363TIP3   OH237503   5.777   3.339  16.957  0.1676  0.8488 -0.0311
 5363TIP3    H137504   5.851   3.396  16.979  0.3434 -0.0155  1.7523
 5363TIP3    H237505   5.702   3.376  17.003  0.0478  0.2756  0.2505
 5364TIP3   OH237506   6.623   4.119   4.682  0.1547 -0.0371  0.3847
 5364TIP3    H137507   6.690   4.068   4.728  0.2445  0.3512  0.6843
 5364TIP3    H237508   6.609   4.071   4.600  1.0749  0.0944  0.1450
 5365TIP3   OH237509   0.528   6.609   1.922 -0.4381  0.2009 -0.9458
 5365TIP3    H137510   0.523   6.567   2.008 -0.0113 -2.2728 -2.0424
 5365TIP3    H237511   0.507   6.700   1.939  2.3745  0.4586  2.2451
 5366TIP3   OH237512   5.290   4.179  14.830 -0.2217  1.1360 -0.0472
 5366TIP3    H137513   5.210   4.158  14.783  0.7266 -1.3164 -0.7216
 5366TIP3    H237514   5.345   4.223  14.765  0.2627 -0.3283 -0.6796
 5367TIP3   OH237515   2.696   5.743   5.130  0.4622  0.0082  0.0580
 5367TIP3    H137516   2.738   5.683   5.192  0.7095  1.5147  1.4213
 5367TIP3    H237517   2.602   5.733   5.146  0.4890 -0.2221  0.0753
 5368TIP3   OH237518   5.134   6.307  15.296  0.4068  1.3080 -0.2937
 5368TIP3    H137519   5.220   6.348  15.301  0.0996  2.2686 -2.1640
 5368TIP3    H237520   5.130   6.269  15.208  0.7797 -3.1813  1.3522
 5369TIP3   OH237521   5.808   0.866   1.787  0.0840 -0.3635  0.6974
 5369TIP3    H137522   5.757   0.947   1.780  0.2722 -0.2989  0.0352
 5369TIP3    H237523   5.897   0.892   1.765 -0.2138 -1.1405 -1.7228
 5370TIP3   OH237524   5.532   5.789  15.582 -0.7071  0.1481 -0.2130
 5370TIP3    H137525   5.441   5.758  15.577 -0.0642 -1.7947 -0.9179
 5370TIP3    H237526   5.531   5.874  15.539 -1.9311 -0.5403 -1.6421
 5371TIP3   OH237527   1.732   2.003  17.198 -0.3261 -0.1717 -0.4370
 5371TIP3    H137528   1.728   2.048  17.114 -2.3930  0.9380  0.1756
 5371TIP3    H237529   1.659   1.941  17.195 -2.5409  2.1015  1.6326
 5372TIP3   OH237530   0.854   4.058   5.162  1.0200  0.1253  0.5951
 5372TIP3    H137531   0.771   4.091   5.194  0.8014 -0.3907  0.5657
 5372TIP3    H237532   0.843   4.052   5.067  0.6622 -1.0931  0.6959
 5373TIP3   OH237533   5.011   0.521   1.043 -0.5896  0.1462 -0.3652
 5373TIP3    H137534   5.020   0.460   1.117 -1.8298  0.8953  0.4376
 5373TIP3    H237535   5.005   0.465   0.966  0.8441 -0.6561  0.0630
 5374TIP3   OH237536   3.942   1.839  15.158  0.9103 -0.1159 -0.3381
 5374TIP3    H137537   3.879   1.856  15.228  1.5475 -1.1247  0.5227
 5374TIP3    H237538   3.925   1.748  15.132  0.6454  0.2589 -1.5647
 5375TIP3   OH237539   1.069   6.521  14.187  0.2001  0.3434  0.3309
 5375TIP3    H137540   1.157   6.545  14.157  0.3209 -0.7689 -0.2748
 5375TIP3    H237541   1.078   6.509  14.281  0.5753  0.7387  0.3482
 5376TIP3   OH237542   0.319   1.558   6.657 -0.5231  0.1517 -0.5519
 5376TIP3    H137543   0.249   1.528   6.599 -1.0850  0.5746 -0.1136
 5376TIP3    H237544   0.354   1.479   6.696 -0.0166 -0.1559 -1.5907
 5377TIP3   OH237545   3.374   3.276  13.381  0.3254  0.2879 -0.3337
 5377TIP3    H137546   3.280   3.293  13.380  0.1954 -0.4167 -1.3481
 5377TIP3    H237547   3.390   3.236  13.467 -0.5450 -0.8600 -0.6870
 5378TIP3   OH237548   1.513   6.676   4.512 -0.2401 -0.8102 -0.3890
 5378TIP3    H137549   1.457   6.737   4.465 -1.8149 -1.5955  0.4207
 5378TIP3    H237550   1.463   6.651   4.589  1.2440 -1.5213  0.3852
 5379TIP3   OH237551   2.740   1.981   6.744 -0.2831  0.2206 -0.4103
 5379TIP3    H137552   2.821   1.946   6.781  0.1108  1.3463 -0.1409
 5379TIP3    H237553   2.680   1.987   6.818 -1.1531 -2.0038 -0.8813
 5380TIP3   OH237554   5.206   2.223   1.144  0.2269 -0.2521 -0.2469
 5380TIP3    H137555   5.199   2.318   1.154 -1.2035 -0.1805 -1.4322
 5380TIP3    H237556   5.116   2.195   1.126  0.8851 -1.5741 -1.7231
 5381TIP3   OH237557   1.567   4.196  16.176 -0.3841 -0.6051 -0.3515
 5381TIP3    H137558   1.499   4.263  16.182 -0.4996 -0.3718 -3.0167
 5381TIP3    H237559   1.536   4.125  16.231 -1.3782  0.6120  0.7274
 5382TIP3   OH237560   5.147   5.474  15.795  0.1545 -0.2436  0.2311
 5382TIP3    H137561   5.210   5.437  15.734 -2.1285 -1.4897 -1.5429
 5382TIP3    H237562   5.143   5.410  15.867  1.6894  0.4229  0.9356
 5383TIP3   OH237563   1.517   0.372   3.379  0.2659  0.6840  0.3824
 5383TIP3    H137564   1.567   0.298   3.413 -1.2199 -0.8688 -0.6539
 5383TIP3    H237565   1.510   0.355   3.285  0.8810  2.7830 -0.1099
 5384TIP3   OH237566   0.381   6.006  17.296 -0.2450  0.1137  0.2301
 5384TIP3    H137567   0.290   6.006  17.325 -0.2944 -1.0019  0.1169
 5384TIP3    H237568   0.377   5.970  17.207  0.2912  0.1885  0.1772
 5385TIP3   OH237569   0.459   0.738   1.014  0.1589  0.5780  0.1324
 5385TIP3    H137570   0.437   0.654   0.975  0.5150 -0.1296  1.3807
 5385TIP3    H237571   0.387   0.756   1.074  1.4309 -0.3320  2.0655
 5386TIP3   OH237572   5.614   1.079  12.682  0.6161  0.1469 -0.2804
 5386TIP3    H137573   5.656   1.065  12.597 -0.4289 -0.6716 -0.6798
 5386TIP3    H237574   5.615   0.994  12.725  2.1821  0.7837  1.0562
 5387TIP3   OH237575   1.336   2.246  16.341 -0.1944  0.1891 -0.2519
 5387TIP3    H137576   1.264   2.200  16.300  0.3855 -0.4441 -0.5896
 5387TIP3    H237577   1.295   2.305  16.404 -1.1030  1.1914 -1.7211
 5388TIP3   OH237578   4.653   0.478  13.624 -0.0047  0.1036 -0.2037
 5388TIP3    H137579   4.697   0.409  13.674 -0.2890 -0.7552 -1.1043
 5388TIP3    H237580   4.718   0.506  13.559  0.3960  1.2772  0.6783
 5389TIP3   OH237581   1.722   3.228   4.066  0.5229 -0.0796 -0.2477
 5389TIP3    H137582   1.803   3.278   4.075  0.7952 -0.4476 -0.5949
 5389TIP3    H237583   1.678   3.237   4.150  0.4417  0.9535 -0.3849
 5390TIP3   OH237584   2.698   6.272   5.299  0.7363  0.3452  0.0016
 5390TIP3    H137585   2.639   6.198   5.308 -0.0088  0.9844  0.4886
 5390TIP3    H237586   2.779   6.234   5.265  0.5458 -0.7598  0.7398
 5391TIP3   OH237587   1.258   2.941   6.394  0.0767  0.1689 -0.4866
 5391TIP3    H137588   1.165   2.952   6.376 -0.6628 -3.0641  0.6822
 5391TIP3    H237589   1.268   2.961   6.487  0.7405  1.1749 -0.7492
 5392TIP3   OH237590   0.823   5.615  15.158 -0.1929 -0.6325  0.2474
 5392TIP3    H137591   0.873   5.561  15.220  0.6773  1.7219  1.7757
 5392TIP3    H237592   0.885   5.684  15.132 -1.2087 -0.3835 -1.6529
 5393TIP3   OH237593   3.436   1.124   3.978 -0.4180  0.2198 -0.4645
 5393TIP3    H137594   3.450   1.032   3.998 -0.4511  0.0006 -1.3758
 5393TIP3    H237595   3.392   1.160   4.055 -2.0461 -0.9408 -0.8024
 5394TIP3   OH237596   1.504   2.653   0.250  0.1173  0.9727 -0.1294
 5394TIP3    H137597   1.491   2.559   0.245 -1.2631  1.0427  1.3023
 5394TIP3    H237598   1.587   2.669   0.205  0.7215 -0.9933  0.2279
 5395TIP3   OH237599   6.691   0.616  15.253  0.2583  0.8447 -0.2151
 5395TIP3    H137600   6.681   0.540  15.196 -1.5683  0.2741  0.7733
 5395TIP3    H237601   6.738   0.680  15.199  2.1978 -1.0749 -0.9291
 5396TIP3   OH237602   0.668   5.702  17.047  0.1925 -0.2707 -0.8473
 5396TIP3    H137603   0.763   5.711  17.042  0.0003  1.4221 -3.3131
 5396TIP3    H237604   0.639   5.712  16.956 -2.2758 -1.9595 -0.3214
 5397TIP3   OH237605   2.286   3.522  14.407 -0.2380  0.6751 -0.3955
 5397TIP3    H137606   2.211   3.469  14.380  0.5149 -1.3169  1.2062
 5397TIP3    H237607   2.362   3.466  14.391  0.6754  1.6315  0.4699
 5398TIP3   OH237608   3.793   4.835   0.960  0.0209  0.1268  0.1897
 5398TIP3    H137609   3.811   4.919   1.002  0.5737  0.4143 -0.5947
 5398TIP3    H237610   3.699   4.836   0.943 -0.2667 -0.1181  1.6450
 5399TIP3   OH237611   2.979   2.788   3.061  0.0151  0.6000  0.6696
 5399TIP3    H137612   2.930   2.773   2.981  1.2600  0.2946 -0.0674
 5399TIP3    H237613   2.913   2.809   3.127 -1.1879 -1.0345  0.0343
 5400TIP3   OH237614   6.317   2.870   6.183  0.6733 -0.3637  0.4213
 5400TIP3    H137615   6.274   2.870   6.269  0.8487  1.3653  0.5347
 5400TIP3    H237616   6.271   2.937   6.133 -0.2181 -2.1541 -1.2975
 5401TIP3   OH237617   2.493   2.047   5.310  0.0915  0.2363  0.6452
 5401TIP3    H137618   2.564   2.065   5.249  0.3921  0.9115  1.1764
 5401TIP3    H237619   2.416   2.084   5.268 -0.5819 -2.9215 -1.2705
 5402TIP3   OH237620   0.157   3.918   1.416  0.1894  0.1434  0.4247
 5402TIP3    H137621   0.135   3.876   1.499  0.6332  0.6398  0.7997
 5402TIP3    H237622   0.134   4.010   1.429 -0.6357  0.0559 -0.3335
 5403TIP3   OH237623   3.852   0.174  12.907  0.0293 -0.3946 -0.5870
 5403TIP3    H137624   3.832   0.185  13.000  1.6720 -1.6976 -0.0220
 5403TIP3    H237625   3.769   0.147  12.868 -1.1297  1.9054  0.1133
 5404TIP3   OH237626   1.620   2.615  12.623 -0.3282  0.2772 -0.3811
 5404TIP3    H137627   1.681   2.627  12.551 -0.5837 -1.0856 -0.8467
 5404TIP3    H237628   1.658   2.666  12.695  1.1637 -0.2412 -0.7628
 5405TIP3   OH237629   0.476   4.827  16.310 -0.0712  0.2749 -0.0831
 5405TIP3    H137630   0.510   4.913  16.287  1.8061 -0.9436 -2.4168
 5405TIP3    H237631   0.515   4.808  16.395  0.8123  1.0971 -0.2790
 5406TIP3   OH237632   5.528   3.953  14.179 -0.3039 -0.3079  0.4547
 5406TIP3    H137633   5.512   3.986  14.268  2.4025  0.0942  0.8893
 5406TIP3    H237634   5.508   4.028  14.123 -1.5815 -0.4168  0.7165
 5407TIP3   OH237635   3.747   6.019  13.885  0.2158 -0.3733  0.3585
 5407TIP3    H137636   3.677   5.955  13.880  0.8219 -0.9423 -2.4226
 5407TIP3    H237637   3.798   6.006  13.805  0.5328  3.3707 -0.2424
 5408TIP3   OH237638   3.404   2.397   6.689  0.4221  0.0351  0.0491
 5408TIP3    H137639   3.405   2.489   6.662 -0.1634 -0.1478 -0.6439
 5408TIP3    H237640   3.311   2.378   6.707  0.2386 -0.8826 -1.5746
 5409TIP3   OH237641   5.136   6.390  13.370 -0.5359  0.1632  0.0090
 5409TIP3    H137642   5.149   6.351  13.456 -0.2834  0.0464 -0.0800
 5409TIP3    H237643   5.219   6.435  13.351 -0.0400 -1.0154 -0.7868
 5410TIP3   OH237644   2.064   4.215  12.804  0.2600  0.1505  0.0762
 5410TIP3    H137645   2.047   4.177  12.718 -0.7719  0.2511  0.2259
 5410TIP3    H237646   2.057   4.309  12.790 -1.0249  0.1348  0.4778
 5411TIP3   OH237647   3.512   6.205  12.943 -0.1609 -0.0630  0.9779
 5411TIP3    H137648   3.487   6.295  12.924  0.0959 -0.2303 -0.1812
 5411TIP3    H237649   3.606   6.202  12.928 -0.3762 -0.8438 -0.3037
 5412TIP3   OH237650   4.923   5.287  13.595  0.1872 -0.7091  0.8767
 5412TIP3    H137651   4.858   5.294  13.525  0.6934  2.9377  0.5601
 5412TIP3    H237652   4.883   5.228  13.659 -2.4069 -0.4141 -0.3438
 5413TIP3   OH237653   2.768   5.176  12.465  0.1874 -0.0873 -0.0805
 5413TIP3    H137654   2.848   5.140  12.504  0.4777  0.9319  0.3036
 5413TIP3    H237655   2.703   5.171  12.535  0.1622 -0.0779 -0.1033
 5414TIP3   OH237656   5.447   5.767  15.133  0.3719 -0.0157  0.3910
 5414TIP3    H137657   5.493   5.835  15.183 -1.1202  0.3098  1.4115
 5414TIP3    H237658   5.502   5.690  15.140  1.1413  0.5651  0.9047
 5415TIP3   OH237659   0.147   5.891   2.909  0.8599 -0.4107  0.5873
 5415TIP3    H137660   0.070   5.871   2.962  0.3223  0.4862  0.1655
 5415TIP3    H237661   0.215   5.910   2.973  0.5121 -0.3894  0.9606
 5416TIP3   OH237662   0.838   2.807  12.837 -0.2266 -0.4982 -0.2212
 5416TIP3    H137663   0.851   2.748  12.911  0.6485  0.6722  0.5854
 5416TIP3    H237664   0.806   2.889  12.876  0.7645  0.3181 -1.0611
 5417TIP3   OH237665   2.512   2.156   2.383 -0.5216 -0.5184 -0.5730
 5417TIP3    H137666   2.418   2.141   2.381 -0.5791 -0.1335 -0.8764
 5417TIP3    H237667   2.537   2.168   2.291 -0.3639  0.4893 -0.4058
 5418TIP3   OH237668   6.311   0.116   0.171  0.6181 -0.1352  0.0504
 5418TIP3    H137669   6.259   0.052   0.121  0.2878 -0.3371  0.6368
 5418TIP3    H237670   6.249   0.187   0.190  0.9166  0.2427 -0.3787
 5419TIP3   OH237671   0.280   2.822   5.130 -0.9677 -0.3813  0.1960
 5419TIP3    H137672   0.324   2.754   5.181 -0.5957 -0.0324  0.3460
 5419TIP3    H237673   0.219   2.862   5.192  0.0811  0.6062  0.6306
 5420TIP3   OH237674   0.656   6.589  14.518 -0.6190 -0.3098  0.1265
 5420TIP3    H137675   0.659   6.553  14.606 -0.0554  0.3471  0.3873
 5420TIP3    H237676   0.700   6.524  14.463 -0.5895 -0.5221  0.4054
 5421TIP3   OH237677   6.586   0.974   2.764 -0.5874 -0.1880 -0.3641
 5421TIP3    H137678   6.539   0.923   2.698  0.6202  0.8079 -2.0888
 5421TIP3    H237679   6.606   1.057   2.720 -1.1334  1.1626  1.8326
 5422TIP3   OH237680   6.344   3.170   2.457  0.4014 -0.0598  0.2152
 5422TIP3    H137681   6.423   3.220   2.437  0.7881 -1.5649 -2.5477
 5422TIP3    H237682   6.376   3.082   2.479 -0.4137 -0.0546  1.5185
 5423TIP3   OH237683   2.694   3.328  12.554 -0.1223  0.1139  0.4843
 5423TIP3    H137684   2.710   3.299  12.644  1.7706 -1.0983 -0.1824
 5423TIP3    H237685   2.740   3.412  12.548  0.0254  0.0395  0.5601
 5424TIP3   OH237686   0.533   3.488   1.616  0.5009  0.3202  0.1458
 5424TIP3    H137687   0.518   3.460   1.525 -2.4983 -0.5936  0.7964
 5424TIP3    H237688   0.559   3.580   1.609  1.2884 -0.0008 -1.6674
 5425TIP3   OH237689   5.841   3.209  16.711  0.0109 -0.0272  0.2389
 5425TIP3    H137690   5.833   3.273  16.782 -0.5763 -1.3619  1.4240
 5425TIP3    H237691   5.784   3.243  16.642 -2.1636 -0.3928  1.7491
 5426TIP3   OH237692   1.952   6.442   1.664 -0.2151 -0.1406 -0.3423
 5426TIP3    H137693   2.032   6.478   1.628  0.1552 -0.0998  0.4873
 5426TIP3    H237694   1.969   6.435   1.758 -1.0038 -0.5942 -0.2208
 5427TIP3   OH237695   3.643   5.642   5.112  0.3245 -0.0277 -0.2470
 5427TIP3    H137696   3.664   5.549   5.115 -2.0933 -0.6043  1.0270
 5427TIP3    H237697   3.686   5.679   5.189  0.1012 -0.3744  0.0453
 5428TIP3   OH237698   1.291   1.174   5.115  0.3635  0.2862 -0.0555
 5428TIP3    H137699   1.310   1.164   5.021  1.2677  1.7453 -0.0607
 5428TIP3    H237700   1.251   1.261   5.121  0.9731  0.5009  1.0004
 5429TIP3   OH237701   1.014   5.176  11.565  0.1834  0.1166  0.1145
 5429TIP3    H137702   1.053   5.089  11.560 -0.1580  0.0201 -0.9080
 5429TIP3    H237703   1.006   5.193  11.659  1.0874 -0.5755  0.3270
 5430TIP3   OH237704   0.251   1.499  12.681  0.4584  0.2581  0.1214
 5430TIP3    H137705   0.244   1.552  12.760 -0.8800 -1.0786  0.9632
 5430TIP3    H237706   0.345   1.484  12.670  0.6448 -0.0125  1.8130
 5431TIP3   OH237707   6.223   3.008  14.287 -0.6918 -0.5016  0.3567
 5431TIP3    H137708   6.143   3.042  14.248  0.1837 -0.1922 -1.2562
 5431TIP3    H237709   6.293   3.036  14.228  0.8917  0.9927  2.7593
 5432TIP3   OH237710   0.500   0.750  11.514  0.7228 -0.6251 -0.1402
 5432TIP3    H137711   0.518   0.835  11.555 -0.1123  0.7281 -2.4136
 5432TIP3    H237712   0.432   0.768  11.450 -0.7454 -3.4038  0.5061
 5433TIP3   OH237713   6.452   3.615   3.461  0.1212 -0.6627 -0.4269
 5433TIP3    H137714   6.411   3.652   3.382  0.6306 -2.5720 -1.6529
 5433TIP3    H237715   6.543   3.603   3.436  0.2807 -1.3430  0.4566
 5434TIP3   OH237716   3.772   2.942   0.348 -0.1812  0.4918 -0.3825
 5434TIP3    H137717   3.805   2.853   0.361  0.4699  0.8237  0.3099
 5434TIP3    H237718   3.752   2.947   0.255  2.4873  0.5028 -1.0259
 5435TIP3   OH237719   5.857   5.898  15.490  0.5894  0.0638  0.1331
 5435TIP3    H137720   5.909   5.892  15.570 -0.4689  1.5530  0.9857
 5435TIP3    H237721   5.781   5.843  15.507 -0.5131  1.7544  0.9191
 5436TIP3   OH237722   3.804   2.654   6.322  0.1384  0.1493  0.2415
 5436TIP3    H137723   3.775   2.563   6.317  0.4690  0.0399  0.3223
 5436TIP3    H237724   3.746   2.700   6.262 -0.4985  0.0077  0.7306
 5437TIP3   OH237725   3.786   3.762   5.242  0.7417 -0.9341  0.1558
 5437TIP3    H137726   3.803   3.825   5.312 -0.4463  0.8658 -1.0826
 5437TIP3    H237727   3.691   3.762   5.232  0.9173  0.3758 -2.6656
 5438TIP3   OH237728   2.870   1.674   2.415 -0.0185  0.4580  0.4461
 5438TIP3    H137729   2.816   1.597   2.401 -0.6543  0.4222  2.7489
 5438TIP3    H237730   2.848   1.732   2.341 -0.9885 -0.7444 -0.2513
 5439TIP3   OH237731   4.226   1.045  14.244  0.1414 -0.1906  0.2887
 5439TIP3    H137732   4.167   1.110  14.282  0.3478 -1.5052  3.1512
 5439TIP3    H237733   4.312   1.085  14.249 -0.1685  0.9513 -2.0761
 5440TIP3   OH237734   4.091   6.770  14.157 -0.3431 -0.1568 -0.8387
 5440TIP3    H137735   4.083   6.860  14.190 -1.1438 -0.7088  0.5395
 5440TIP3    H237736   4.017   6.723  14.195 -1.3523 -0.8857 -3.4366
 5441TIP3   OH237737   5.291   2.155  16.240 -0.0980 -0.0808  0.3435
 5441TIP3    H137738   5.331   2.072  16.265 -2.0269 -1.0813  0.2190
 5441TIP3    H237739   5.352   2.192  16.176 -0.3311 -2.5282 -1.4109
 5442TIP3   OH237740   2.418   2.075   1.127  0.1191 -0.3184 -0.5752
 5442TIP3    H137741   2.448   2.117   1.207  0.7418  0.4761 -1.1971
 5442TIP3    H237742   2.392   2.148   1.070 -1.2161 -0.9088 -0.7516
 5443TIP3   OH237743   5.423   5.689  11.219  0.0927  0.1290  0.1392
 5443TIP3    H137744   5.380   5.699  11.133  0.2299 -1.3860 -0.1330
 5443TIP3    H237745   5.419   5.777  11.258 -0.1704  0.8003 -1.3212
 5444TIP3   OH237746   1.271   4.073   2.303 -0.4713  0.1715  0.0313
 5444TIP3    H137747   1.196   4.053   2.246 -2.0067  1.1299  1.6122
 5444TIP3    H237748   1.329   3.998   2.293 -1.2667 -0.2671 -1.8105
 5445TIP3   OH237749   0.588   6.219  15.209  0.2986 -0.0325 -0.5208
 5445TIP3    H137750   0.562   6.268  15.131 -1.1527 -1.2466 -0.8203
 5445TIP3    H237751   0.541   6.262  15.281 -0.0840 -0.2820 -0.6223
 5446TIP3   OH237752   4.455   5.541   1.540 -0.2710 -0.0803 -0.6188
 5446TIP3    H137753   4.547   5.513   1.540  0.2725  1.4264  1.5227
 5446TIP3    H237754   4.407   5.466   1.576  0.7272  0.4644  2.0752
 5447TIP3   OH237755   4.202   0.767  11.716  0.0487 -0.0206  0.5425
 5447TIP3    H137756   4.199   0.862  11.708 -1.9679  0.0839  1.7508
 5447TIP3    H237757   4.287   0.749  11.756  0.5746  1.2350  0.0389
 5448TIP3   OH237758   1.113   5.987   4.014  0.0368 -0.2536 -0.4096
 5448TIP3    H137759   1.044   6.009   3.951  0.3625 -1.0932 -1.0755
 5448TIP3    H237760   1.104   5.893   4.028 -0.1061 -0.0688  0.9081
 5449TIP3   OH237761   0.765   2.444  11.506 -0.1208  0.0665 -0.3044
 5449TIP3    H137762   0.704   2.507  11.546  2.1250  0.9720  1.9808
 5449TIP3    H237763   0.780   2.478  11.418 -0.7067  1.4394  0.0970
 5450TIP3   OH237764   6.600   2.896   2.965 -0.3035  0.3591  0.9980
 5450TIP3    H137765   6.588   2.875   3.058 -0.1670 -1.7515  0.6010
 5450TIP3    H237766   6.669   2.837   2.936 -1.7417 -0.5114 -0.8936
 5451TIP3   OH237767   2.547   4.244  16.458  0.7153  0.5014 -0.1741
 5451TIP3    H137768   2.520   4.160  16.420  3.3987 -0.3431 -0.3985
 5451TIP3    H237769   2.507   4.244  16.545 -1.7691  0.4190 -1.2126
 5452TIP3   OH237770   6.534   4.141  12.365 -0.0040 -0.5515  0.1039
 5452TIP3    H137771   6.615   4.165  12.321 -0.9341  1.2053 -0.7575
 5452TIP3    H237772   6.478   4.106  12.295  0.8699 -4.3893  1.1159
 5453TIP3   OH237773   5.831   3.776   3.705  0.1357 -0.4102 -0.2885
 5453TIP3    H137774   5.909   3.738   3.664  0.4113  0.4481 -0.6014
 5453TIP3    H237775   5.761   3.714   3.685 -0.3034  1.0395 -4.3186
 5454TIP3   OH237776   6.326   3.867  11.507  0.4146  0.5157  0.1097
 5454TIP3    H137777   6.240   3.842  11.473  1.2786 -1.0548 -1.0564
 5454TIP3    H237778   6.308   3.938  11.569 -1.7332  0.0808  0.0571
 5455TIP3   OH237779   1.138   6.164   4.207  0.1546  0.2205 -0.7103
 5455TIP3    H137780   1.125   6.106   4.132  2.5192 -1.7906  0.3103
 5455TIP3    H237781   1.119   6.251   4.173 -0.3950 -0.7863 -3.1924
 5456TIP3   OH237782   3.779   1.532   3.446 -0.1230  0.1567  0.3005
 5456TIP3    H137783   3.724   1.548   3.369  1.2944 -2.4482 -1.4055
 5456TIP3    H237784   3.742   1.452   3.485  1.0886 -0.3666  0.4087
 5457TIP3   OH237785   5.031   0.101  11.778  0.2082  0.1606 -0.1653
 5457TIP3    H137786   5.052   0.008  11.776 -0.2079 -0.0370  2.2186
 5457TIP3    H237787   4.940   0.105  11.805  0.4766  1.2615  0.6718
 5458TIP3   OH237788   4.671   3.661   3.408 -0.2972 -0.0729  0.3425
 5458TIP3    H137789   4.576   3.675   3.408 -0.9581 -3.3431  2.3544
 5458TIP3    H237790   4.695   3.662   3.500  1.2812 -1.1046 -0.0271
 5459TIP3   OH237791   6.650   0.697  15.912 -0.1144  0.7415  0.1598
 5459TIP3    H137792   6.676   0.764  15.975  0.3084 -1.1584  2.1240
 5459TIP3    H237793   6.557   0.682  15.929  0.0288  0.1405  0.4593
 5460TIP3   OH237794   0.447   1.796   5.592  0.2609  0.3083  0.6892
 5460TIP3    H137795   0.380   1.757   5.535  1.2647 -1.0020  0.3495
 5460TIP3    H237796   0.399   1.821   5.671 -0.9658  1.1941 -0.2919
 5461TIP3   OH237797   0.688   0.428   6.083 -0.2904  0.2258 -0.2377
 5461TIP3    H137798   0.755   0.437   6.015 -1.1676  0.1666 -1.1329
 5461TIP3    H237799   0.649   0.515   6.089  1.6014  1.0137  2.1909
 5462TIP3   OH237800   1.269   5.533   6.067 -1.1287 -0.0057  0.5966
 5462TIP3    H137801   1.315   5.567   5.990  0.1087  0.7004  1.6029
 5462TIP3    H237802   1.203   5.599   6.086 -0.2646  0.7326  1.1574
 5463TIP3   OH237803   0.272   0.774  13.947 -0.2183  0.1370  0.0898
 5463TIP3    H137804   0.350   0.758  14.000 -0.2796 -0.3641  0.0336
 5463TIP3    H237805   0.279   0.866  13.920  1.5100 -0.4755 -1.7843
 5464TIP3   OH237806   3.378   4.268   3.518 -0.1176 -0.3114  0.3207
 5464TIP3    H137807   3.422   4.203   3.463  0.8833  0.2420  0.4416
 5464TIP3    H237808   3.287   4.267   3.488  0.0073 -1.3493 -0.0678
 5465TIP3   OH237809   5.766   6.108  16.766  0.3372 -0.0457 -0.1591
 5465TIP3    H137810   5.791   6.132  16.677  1.1139 -1.9999 -0.5046
 5465TIP3    H237811   5.731   6.189  16.803  0.9452  1.0660 -1.8875
 5466TIP3   OH237812   5.243   2.089   2.626 -0.3558  0.6329 -0.4706
 5466TIP3    H137813   5.228   2.008   2.675 -0.5182  0.2198 -1.1800
 5466TIP3    H237814   5.338   2.101   2.627 -0.1513 -0.5639 -1.8785
 5467TIP3   OH237815   1.292   1.282   5.437  0.4153 -0.4276 -0.2843
 5467TIP3    H137816   1.293   1.280   5.341  0.5745  1.5322 -0.3605
 5467TIP3    H237817   1.224   1.345   5.459  0.4366 -0.8009  0.9060
 5468TIP3   OH237818   0.183   6.751   4.661  0.1586  0.5796  0.2470
 5468TIP3    H137819   0.195   6.695   4.584  1.1528 -0.7368  1.3071
 5468TIP3    H237820   0.268   6.750   4.705 -0.6680  0.4574  1.9046
 5469TIP3   OH237821   4.264   6.429   5.628  0.2813 -0.2856 -0.2821
 5469TIP3    H137822   4.184   6.414   5.577  0.6636 -0.2300 -0.9077
 5469TIP3    H237823   4.313   6.493   5.577  0.2029  0.5546  0.6871
 5470TIP3   OH237824   5.160   1.951   3.528 -0.6100 -0.1102  0.2407
 5470TIP3    H137825   5.195   1.921   3.612 -2.0966 -0.8307  0.6373
 5470TIP3    H237826   5.227   1.927   3.464  1.2567  1.8126  1.3442
 5471TIP3   OH237827   5.546   4.430  15.942 -0.6627 -0.1148  0.1806
 5471TIP3    H137828   5.563   4.338  15.925 -0.1835 -0.2753  1.4503
 5471TIP3    H237829   5.565   4.442  16.035  1.5860  1.7586 -0.4274
 5472TIP3   OH237830   5.093   5.471   4.594 -0.0673  0.8204 -0.0231
 5472TIP3    H137831   5.048   5.388   4.579 -1.4039  1.2671  1.2761
 5472TIP3    H237832   5.031   5.538   4.565  0.3319  1.4130  0.4684
 5473TIP3   OH237833   4.807   0.315   3.635 -0.5873 -0.3321 -0.0964
 5473TIP3    H137834   4.761   0.397   3.654 -1.1494 -0.0122 -2.4561
 5473TIP3    H237835   4.893   0.343   3.604 -0.1085 -0.7564  0.8079
 5474TIP3   OH237836   0.426   0.979  16.534 -0.1097  0.1430 -0.2250
 5474TIP3    H137837   0.471   0.910  16.583 -1.5918 -1.3942 -0.9642
 5474TIP3    H237838   0.471   0.981  16.449 -1.3789 -1.4162 -0.9765
 5475TIP3   OH237839   0.547   3.577   0.173  0.1174 -0.2106  0.0076
 5475TIP3    H137840   0.605   3.510   0.138 -0.3713  0.8917 -3.2839
 5475TIP3    H237841   0.476   3.583   0.109 -0.5269  2.5176  0.8222
 5476TIP3   OH237842   2.406   3.345   1.106  0.6158  0.0610 -0.2281
 5476TIP3    H137843   2.398   3.437   1.082  1.7238  0.2741  0.1365
 5476TIP3    H237844   2.452   3.305   1.032  0.4917 -0.1160 -0.2108
 5477TIP3   OH237845   3.410   6.016   1.205  0.3539 -0.2635  0.2777
 5477TIP3    H137846   3.442   6.096   1.163 -0.2833 -0.6935 -1.0931
 5477TIP3    H237847   3.349   5.979   1.142 -0.8145 -0.8498  1.6947
 5478TIP3   OH237848   5.832   0.381   4.807 -0.3149 -0.7078 -0.0730
 5478TIP3    H137849   5.826   0.291   4.774 -0.7401 -1.2812  1.4459
 5478TIP3    H237850   5.877   0.372   4.891 -0.8608  0.4375  0.3592
 5479TIP3   OH237851   4.896   1.900   4.243 -0.1369  0.2722 -0.2595
 5479TIP3    H137852   4.966   1.850   4.202 -0.0154 -0.5472  0.9074
 5479TIP3    H237853   4.824   1.838   4.253  0.0370  0.2842  1.2717
 5480TIP3   OH237854   5.782   5.915  11.787  0.0156  0.1309  0.3836
 5480TIP3    H137855   5.733   5.997  11.795  1.7378  1.3160 -0.7376
 5480TIP3    H237856   5.769   5.872  11.872 -2.6358  0.5100  0.2787
 5481TIP3   OH237857   5.124   2.097   3.242 -0.4043 -0.3740 -0.4590
 5481TIP3    H137858   5.200   2.040   3.254 -0.3624 -0.5429 -1.3803
 5481TIP3    H237859   5.161   2.184   3.231 -0.4287 -0.2592  0.3479
 5482TIP3   OH237860   2.156   4.739  15.726 -0.6813  0.1533  0.0167
 5482TIP3    H137861   2.193   4.704  15.645  0.9019 -2.4457  1.7145
 5482TIP3    H237862   2.187   4.829  15.729  2.1161 -0.6902 -0.6800
 5483TIP3   OH237863   5.008   4.418  14.063 -0.4586 -0.3012  0.1439
 5483TIP3    H137864   5.080   4.444  14.120 -2.6494 -1.0589  3.5108
 5483TIP3    H237865   4.949   4.494  14.062 -0.0488  0.0658 -2.0284
 5484TIP3   OH237866   5.944   2.155  11.779  0.1820 -0.0710  0.5255
 5484TIP3    H137867   6.009   2.214  11.741  0.7542 -0.6773  0.5606
 5484TIP3    H237868   5.897   2.120  11.703 -1.0454  1.3994  0.5477
 5485TIP3   OH237869   4.990   5.155  15.846  0.1023 -0.0937 -0.4870
 5485TIP3    H137870   5.068   5.164  15.899  1.2140 -3.1115 -1.3716
 5485TIP3    H237871   5.021   5.162  15.755 -0.5468 -1.4945 -0.8526
 5486TIP3   OH237872   1.108   1.761  16.474 -0.5491  0.4918  0.0108
 5486TIP3    H137873   1.180   1.822  16.489 -0.2192 -0.0618  0.6949
 5486TIP3    H237874   1.073   1.742  16.561  0.9626 -2.2249  0.1478
 5487TIP3   OH237875   1.687   2.929   1.738  0.1117 -0.8907  0.3713
 5487TIP3    H137876   1.655   2.852   1.692  1.0503 -1.3330  0.4570
 5487TIP3    H237877   1.616   2.952   1.799 -1.5294  0.2040 -1.8108
 5488TIP3   OH237878   1.755   0.223  11.601 -0.4410 -0.1553 -0.1952
 5488TIP3    H137879   1.691   0.294  11.596 -0.5892 -0.3213 -0.6357
 5488TIP3    H237880   1.767   0.194  11.511 -2.4258 -2.5039  0.1715
 5489TIP3   OH237881   5.231   1.697   4.311 -0.4772  0.9836  0.5698
 5489TIP3    H137882   5.303   1.759   4.301 -0.5894  0.9005 -0.8522
 5489TIP3    H237883   5.264   1.632   4.374  1.3877 -0.0305 -1.3437
 5490TIP3   OH237884   4.642   3.201   3.737  0.3695  0.3440  0.2529
 5490TIP3    H137885   4.551   3.230   3.729  0.2087 -0.0204  0.7089
 5490TIP3    H237886   4.639   3.107   3.719  0.6765  0.3517  0.1504
 5491TIP3   OH237887   1.917   2.071   1.247 -0.6400 -0.2104 -0.2946
 5491TIP3    H137888   1.993   2.046   1.195 -1.1639  0.1001 -1.2336
 5491TIP3    H237889   1.861   1.993   1.247 -0.8028 -0.0963 -0.5096
 5492TIP3   OH237890   2.827   4.355  11.324 -0.0936 -0.0691  0.0389
 5492TIP3    H137891   2.897   4.344  11.260 -0.3934 -0.8445 -0.1674
 5492TIP3    H237892   2.748   4.372  11.272 -0.1613  0.2502  0.2437
 5493TIP3   OH237893   3.091   1.759   5.396 -0.2949  0.4512  0.3343
 5493TIP3    H137894   3.012   1.756   5.450 -0.2466 -0.5534  0.3744
 5493TIP3    H237895   3.081   1.839   5.344 -0.6379  1.1021  1.3687
 5494TIP3   OH237896   5.359   2.128   5.833 -0.0603 -0.1304  0.3172
 5494TIP3    H137897   5.360   2.045   5.881  0.2543 -0.4098 -0.1559
 5494TIP3    H237898   5.267   2.154   5.831 -0.3338 -1.0816 -0.5493
 5495TIP3   OH237899   0.274   3.636  14.730  0.8454  0.4726  0.4235
 5495TIP3    H137900   0.278   3.583  14.810  0.8650  1.2251  0.9361
 5495TIP3    H237901   0.270   3.726  14.762 -2.4264  0.7226 -0.2904
 5496TIP3   OH237902   0.237   1.082  10.645  0.6234  0.1247 -0.4553
 5496TIP3    H137903   0.256   1.162  10.595  0.0086  0.0297 -0.8487
 5496TIP3    H237904   0.153   1.052  10.611  1.8431 -1.8942 -1.8438
 5497TIP3   OH237905   2.177   2.047   2.270 -0.3242 -0.4169  0.1735
 5497TIP3    H137906   2.195   2.074   2.180 -1.1642 -0.6160 -0.0628
 5497TIP3    H237907   2.087   2.075   2.286 -0.4578 -1.1030  0.6772
 5498TIP3   OH237908   2.259   5.553   5.973  0.2064 -0.1469  0.1891
 5498TIP3    H137909   2.247   5.589   5.885 -1.1809 -0.7416  0.1080
 5498TIP3    H237910   2.187   5.491   5.984 -0.0964  0.4508  2.0306
 5499TIP3   OH237911   4.988   1.843   1.146  0.5019  0.3637 -0.5804
 5499TIP3    H137912   4.998   1.760   1.099 -0.7929 -0.7717  1.0097
 5499TIP3    H237913   5.041   1.832   1.225  0.7488  1.2780 -0.6056
 5500TIP3   OH237914   4.978   2.388   1.314  0.1968 -0.3927  0.0170
 5500TIP3    H137915   5.013   2.437   1.240  0.7903 -1.0266 -0.1249
 5500TIP3    H237916   4.939   2.310   1.275  0.0135 -0.4544  0.3221
 5501TIP3   OH237917   5.751   5.127  12.017  0.6513  0.6652  0.6943
 5501TIP3    H137918   5.667   5.120  11.972  0.3653 -1.4217  1.4659
 5501TIP3    H237919   5.793   5.204  11.978 -0.6081  0.3691 -1.3597
 5502TIP3   OH237920   1.426   5.214   2.176  0.5273  0.2246  0.1320
 5502TIP3    H137921   1.370   5.281   2.136  2.1462  1.4954 -0.1142
 5502TIP3    H237922   1.406   5.220   2.270 -2.5479 -2.0773 -0.2080
 5503TIP3   OH237923   0.022   5.887  16.395  0.4557 -0.5609 -0.1162
 5503TIP3    H137924   0.034   5.792  16.393  1.3055 -0.4634 -0.0489
 5503TIP3    H237925  -0.068   5.901  16.366 -0.0334 -1.4431  0.9258
 5504TIP3   OH237926   3.668   4.406  15.062  0.0252 -0.5175  0.0414
 5504TIP3    H137927   3.687   4.494  15.028  0.3287 -0.6301 -0.0850
 5504TIP3    H237928   3.685   4.348  14.989  1.0185 -0.7938  0.4788
 5505TIP3   OH237929   2.798   2.020   5.073  0.0202  0.1206  0.5022
 5505TIP3    H137930   2.726   2.083   5.082 -0.3332 -0.2548  0.3068
 5505TIP3    H237931   2.827   2.029   4.982  0.0822  0.1238  0.5222
 5506TIP3   OH237932   2.154   6.604   1.552 -0.5761  0.1178 -0.0002
 5506TIP3    H137933   2.230   6.657   1.578 -0.8171 -0.1481  1.3218
 5506TIP3    H237934   2.113   6.654   1.481 -0.2718  1.2417  0.5947
 5507TIP3   OH237935   2.386   1.937   3.601 -0.3843  0.0310 -0.6172
 5507TIP3    H137936   2.396   1.848   3.634 -1.7952 -0.3507 -1.1767
 5507TIP3    H237937   2.444   1.989   3.657 -2.2215 -0.6775  2.2018
 5508TIP3   OH237938   4.350   6.367  12.520  0.3170 -0.2898 -0.3230
 5508TIP3    H137939   4.292   6.439  12.493 -0.7987 -1.3870 -0.9615
 5508TIP3    H237940   4.372   6.322  12.439  0.6161 -0.9524  0.1222
 5509TIP3   OH237941   1.505   4.721  12.503  0.0944 -0.2542 -0.1165
 5509TIP3    H137942   1.526   4.646  12.448 -0.6328  1.2815 -2.6635
 5509TIP3    H237943   1.588   4.767  12.513  0.3346 -0.8164  0.5675
 5510TIP3   OH237944   1.394   4.221  11.979  0.4132  0.3245 -0.4020
 5510TIP3    H137945   1.427   4.305  11.950  1.4403 -0.0578 -0.3841
 5510TIP3    H237946   1.466   4.183  12.029 -0.0827 -0.5033 -0.2971
 5511TIP3   OH237947   0.322   6.555   4.200  0.0666 -0.3359  0.5480
 5511TIP3    H137948   0.359   6.469   4.221  0.4208 -0.4210 -0.3936
 5511TIP3    H237949   0.390   6.617   4.225 -0.6844 -0.2217  2.4291
 5512TIP3   OH237950   6.352   6.588   5.051 -0.0669  0.7233  0.2483
 5512TIP3    H137951   6.392   6.618   4.969  3.1953  0.4822  1.5868
 5512TIP3    H237952   6.328   6.668   5.097 -1.9324  0.8621 -0.8537
 5513TIP3   OH237953   6.105   5.924   4.803  0.3776  0.2985 -0.2346
 5513TIP3    H137954   6.109   6.019   4.787 -0.6573  0.6374  1.2928
 5513TIP3    H237955   6.177   5.907   4.863 -0.8252  0.5984  1.3881
 5514TIP3   OH237956   5.510   3.587  15.539  0.4638 -0.6289 -0.6826
 5514TIP3    H137957   5.586   3.531  15.556  0.9355  0.6433  2.0428
 5514TIP3    H237958   5.536   3.673  15.573 -2.2521 -0.2074  0.6160
 5515TIP3   OH237959   4.466   3.345   1.927 -0.6419 -0.0985 -0.3540
 5515TIP3    H137960   4.474   3.423   1.872 -3.8781 -0.5884 -1.7466
 5515TIP3    H237961   4.441   3.378   2.013  0.0061  0.4589 -0.3691
 5516TIP3   OH237962   5.306   0.952  12.837 -0.4910 -0.0956  0.7220
 5516TIP3    H137963   5.342   1.016  12.775  0.7130 -0.7861  0.6795
 5516TIP3    H237964   5.233   0.998  12.878 -0.4491  0.8631 -0.2084
 5517TIP3   OH237965   5.017   6.329   4.283 -0.3302  0.4536  0.9460
 5517TIP3    H137966   5.047   6.408   4.327  0.4157  0.6304  0.1375
 5517TIP3    H237967   5.064   6.258   4.327  0.1160  0.5989  0.7186
 5518TIP3   OH237968   2.690   0.349   0.049 -0.3897 -0.7806  0.2564
 5518TIP3    H137969   2.780   0.368   0.075 -0.6000 -1.0700  1.2506
 5518TIP3    H237970   2.661   0.281   0.110 -0.8206 -1.7348 -0.9590
 5519TIP3   OH237971   3.556   2.337   3.634  0.0351  0.1143  0.4111
 5519TIP3    H137972   3.560   2.242   3.625  0.1007  0.0685  0.8947
 5519TIP3    H237973   3.648   2.364   3.635  0.0621  0.0190  1.8819
 5520TIP3   OH237974   4.553   1.735   4.854 -0.5245  0.1006  0.1042
 5520TIP3    H137975   4.463   1.705   4.871 -1.1391  2.9609  2.8623
 5520TIP3    H237976   4.608   1.676   4.906 -0.9929 -0.4799 -0.0502
 5521TIP3   OH237977   5.447   3.114  16.917  0.1945 -0.0324 -0.7522
 5521TIP3    H137978   5.445   3.138  17.010 -0.7584 -0.8249 -0.5533
 5521TIP3    H237979   5.387   3.176  16.875 -1.9320 -1.6741 -0.3044
 5522TIP3   OH237980   6.412   3.391  11.217 -0.1027  0.6403  0.1508
 5522TIP3    H137981   6.342   3.404  11.281 -0.1862  0.4694  0.0947
 5522TIP3    H237982   6.396   3.304  11.181  0.6722  0.2048  0.8091
 5523TIP3   OH237983   3.902   5.759   2.956  0.2798  0.3366  0.0075
 5523TIP3    H137984   3.901   5.684   2.897 -0.1886  0.3583 -0.0122
 5523TIP3    H237985   3.931   5.724   3.040  0.9351  0.3010 -0.2237
 5524TIP3   OH237986   3.746   4.388   0.559 -0.7802 -0.3552  0.2000
 5524TIP3    H137987   3.792   4.400   0.642 -1.3464 -0.2588  0.5005
 5524TIP3    H237988   3.721   4.296   0.558 -0.0624 -0.5595 -0.2413
 5525TIP3   OH237989   2.295   5.997  12.146 -0.8438 -0.2967  0.7339
 5525TIP3    H137990   2.225   5.936  12.121 -0.6447  0.1206 -0.9981
 5525TIP3    H237991   2.360   5.942  12.190 -0.2046 -1.6294 -1.6561
 5526TIP3   OH237992   1.859   4.583   4.966  0.2517  0.3998  0.3599
 5526TIP3    H137993   1.878   4.517   5.033  2.1572  0.5679  0.0360
 5526TIP3    H237994   1.822   4.534   4.893  1.3012 -0.2579  0.2640
 5527TIP3   OH237995   5.665   5.695  14.745 -0.0115  0.3078  0.3634
 5527TIP3    H137996   5.758   5.688  14.727  0.1466  2.6137 -0.0941
 5527TIP3    H237997   5.626   5.617  14.706  1.3272  0.9592 -2.4993
 5528TIP3   OH237998   2.628   0.307  14.297  0.2541 -0.1023  0.6284
 5528TIP3    H137999   2.632   0.325  14.391  0.6153  0.0691  0.5820
 5528TIP3    H238000   2.716   0.328  14.265 -0.3542  1.5267 -0.0429
 5529TIP3   OH238001   3.682   4.072   1.295 -0.3984 -0.4162 -0.5490
 5529TIP3    H138002   3.758   4.080   1.239 -0.6147  0.7852 -0.7206
 5529TIP3    H238003   3.650   4.162   1.304 -1.8124 -0.8944 -0.5174
 5530TIP3   OH238004   0.485   3.549  14.562  1.0629 -0.6167  0.7007
 5530TIP3    H138005   0.523   3.629  14.525  0.1856 -0.9200 -0.9482
 5530TIP3    H238006   0.408   3.580  14.611  1.2913 -0.3640  0.9044
 5531TIP3   OH238007   3.660   1.356   3.105  0.6179 -0.2500  0.3332
 5531TIP3    H138008   3.733   1.298   3.087  0.7480  0.2601 -0.8532
 5531TIP3    H238009   3.602   1.347   3.029 -0.0066  0.1846  0.7408
 5532TIP3   OH238010   3.929   5.762  10.969  0.0736  0.0134 -0.2139
 5532TIP3    H138011   3.932   5.715  11.052  2.4011  0.6829  0.1378
 5532TIP3    H238012   3.899   5.850  10.991  1.1574  0.3346  0.0127
 5533TIP3   OH238013   3.912   4.417  14.884  0.0348  1.1180  0.0407
 5533TIP3    H138014   3.989   4.365  14.907 -1.4870 -0.5467  1.7163
 5533TIP3    H238015   3.938   4.508  14.899  2.3611  0.8239 -1.7131
 5534TIP3   OH238016   2.408   3.551  12.702 -0.1789  0.5845  0.8151
 5534TIP3    H138017   2.480   3.553  12.638  1.4624  0.7455  2.5720
 5534TIP3    H238018   2.372   3.462  12.695  0.4240  0.3820  0.1504
 5535TIP3   OH238019   5.503   4.047   0.610 -0.4800  0.4359 -0.5381
 5535TIP3    H138020   5.522   4.050   0.704 -0.2210  1.6962 -0.6097
 5535TIP3    H238021   5.587   4.061   0.568  0.1768 -3.9537 -1.1170
 5536TIP3   OH238022   3.578   6.326  12.224  0.1583 -0.3968  0.5949
 5536TIP3    H138023   3.598   6.401  12.280 -0.8253 -0.1018  0.5805
 5536TIP3    H238024   3.513   6.276  12.273 -0.7666 -0.1023 -0.2750
 5537TIP3   OH238025   6.400   2.842   0.477 -0.4313  0.3117 -0.1769
 5537TIP3    H138026   6.401   2.786   0.554  0.0857  0.2938 -0.1967
 5537TIP3    H238027   6.318   2.892   0.484 -0.3051  0.4286  0.4591
 5538TIP3   OH238028   3.384   3.404  14.187  0.2624  0.2962  0.6054
 5538TIP3    H138029   3.308   3.400  14.245  0.1233 -0.0859  0.3954
 5538TIP3    H238030   3.354   3.457  14.112 -0.0133 -0.4062  0.2077
 5539TIP3   OH238031   2.678   4.570  14.931  0.3712  0.4529  0.1085
 5539TIP3    H138032   2.652   4.614  14.851  1.4924 -1.0584 -1.1527
 5539TIP3    H238033   2.658   4.633  15.001 -0.5861  1.8232 -1.3296
 5540TIP3   OH238034   0.668   3.257   2.581  0.3707 -0.1523  0.0929
 5540TIP3    H138035   0.651   3.345   2.549  1.8378  0.3475  0.5975
 5540TIP3    H238036   0.598   3.239   2.644 -0.5592  0.2053 -0.8206
 5541TIP3   OH238037   0.552   2.027  16.588  1.1260 -0.4435 -0.4956
 5541TIP3    H138038   0.493   2.076  16.645  0.3091  0.2349 -1.8769
 5541TIP3    H238039   0.597   1.965  16.647 -0.9177 -0.9643  0.6081
 5542TIP3   OH238040   4.721   3.065  12.900 -0.4844 -0.0860  0.5510
 5542TIP3    H138041   4.785   3.052  12.831 -1.9479  0.6603 -1.0254
 5542TIP3    H238042   4.654   3.121  12.860 -1.4351  0.2921  2.5498
 5543TIP3   OH238043   6.100   0.694   2.930 -0.1902  0.5504  0.4009
 5543TIP3    H138044   6.030   0.759   2.936 -1.4097 -0.3576 -2.2003
 5543TIP3    H238045   6.073   0.624   2.989 -2.0973 -0.2101 -1.2491
 5544TIP3   OH238046   1.150   3.771   6.036  0.8014 -0.6557 -0.3769
 5544TIP3    H138047   1.172   3.821   6.115 -2.5115  2.2087 -1.0760
 5544TIP3    H238048   1.077   3.715   6.063  0.2716 -0.3574 -1.1852
 5545TIP3   OH238049   4.589   1.711   1.955 -0.3587  0.0070 -0.0456
 5545TIP3    H138050   4.626   1.782   1.902 -1.4160  1.2651  0.8494
 5545TIP3    H238051   4.657   1.644   1.956  0.8352  1.1710 -0.5829
 5546TIP3   OH238052   5.458   1.690  16.320 -0.1491  0.1672  0.2471
 5546TIP3    H138053   5.469   1.597  16.300  0.7140 -0.3102  2.5738
 5546TIP3    H238054   5.381   1.692  16.377  0.3473  0.7415  0.9076
 5547TIP3   OH238055   5.674   2.136  12.781 -0.0516 -0.1185  0.1297
 5547TIP3    H138056   5.605   2.104  12.723 -2.4980  1.5613  1.8998
 5547TIP3    H238057   5.696   2.061  12.837  0.0722 -0.8563 -0.8924
 5548TIP3   OH238058   4.326   2.917   5.239 -0.1590  0.1724 -0.2211
 5548TIP3    H138059   4.415   2.915   5.205  0.1666 -1.2255  0.6254
 5548TIP3    H238060   4.309   2.827   5.267 -0.9422  0.9174  1.9066
 5549TIP3   OH238061   5.858   6.613   3.089  0.0249 -0.2222 -0.1408
 5549TIP3    H138062   5.839   6.519   3.091 -0.9810 -0.0813 -1.7827
 5549TIP3    H238063   5.949   6.619   3.117  0.1010 -1.6849  0.0132
 5550TIP3   OH238064   1.457   6.207   4.211 -0.1185  0.6433  0.7207
 5550TIP3    H138065   1.536   6.233   4.259 -0.1512  2.3722 -0.0822
 5550TIP3    H238066   1.394   6.277   4.229 -0.2460  1.1747 -1.5291
 5551TIP3   OH238067   1.232   2.406  14.935  0.1552 -0.0003 -0.3732
 5551TIP3    H138068   1.230   2.341  15.006 -0.2962  0.4680  0.0541
 5551TIP3    H238069   1.181   2.366  14.865 -1.7891  0.6509  0.5862
 5552TIP3   OH238070   4.025   3.693   5.612  0.0313  0.0243 -0.1218
 5552TIP3    H138071   3.953   3.729   5.560  1.0756  0.2696 -1.4530
 5552TIP3    H238072   4.075   3.769   5.640  0.8199 -0.2199 -0.8106
 5553TIP3   OH238073   6.509   2.430   2.200 -0.3073 -0.7096 -0.5380
 5553TIP3    H138074   6.540   2.353   2.246  2.1091 -0.1816 -1.1416
 5553TIP3    H238075   6.559   2.502   2.237 -0.5844  0.1719 -1.7966
 5554TIP3   OH238076   0.417   3.627  12.640 -0.0649  0.5803  0.7261
 5554TIP3    H138077   0.453   3.601  12.555 -1.6088 -1.3438  0.6066
 5554TIP3    H238078   0.465   3.707  12.662  0.8357  0.7795 -1.6348
 5555TIP3   OH238079   3.719   2.924   2.208 -0.8434 -0.2068 -0.7153
 5555TIP3    H138080   3.626   2.907   2.195 -0.8138 -1.3545  0.3563
 5555TIP3    H238081   3.758   2.837   2.222  0.2553  0.3137 -0.3720
 5556TIP3   OH238082   2.806   6.754  13.093  0.4256 -0.6543  0.5807
 5556TIP3    H138083   2.776   6.843  13.074  0.7234 -0.3766  1.3939
 5556TIP3    H238084   2.764   6.700  13.025 -1.5776 -0.2288  1.4037
 5557TIP3   OH238085   3.023   2.385   4.661  0.3389 -0.0378 -0.3826
 5557TIP3    H138086   3.082   2.460   4.655  1.4109 -0.7042  1.1408
 5557TIP3    H238087   3.061   2.320   4.601  0.2985  0.0656 -0.5218
 5558TIP3   OH238088   4.357   3.606  13.129 -0.1906  0.2622 -0.6752
 5558TIP3    H138089   4.270   3.592  13.167  0.0943 -0.2303 -0.1802
 5558TIP3    H238090   4.416   3.596  13.203  0.1979  2.1334 -0.6862
 5559TIP3   OH238091   0.544   3.948  14.483 -0.0875 -0.2518  0.4743
 5559TIP3    H138092   0.600   4.022  14.460  2.1108 -2.4204 -1.8793
 5559TIP3    H238093   0.558   3.934  14.576  1.0559  1.0585  0.5239
 5560TIP3   OH238094   5.960   4.360   0.264  0.5081 -0.3169  0.0903
 5560TIP3    H138095   6.020   4.291   0.236  1.3991 -0.1743  1.5560
 5560TIP3    H238096   5.991   4.384   0.351 -1.8406 -0.4274  1.0239
 5561TIP3   OH238097   2.470   1.291  11.438 -0.3598  0.8671  0.1789
 5561TIP3    H138098   2.450   1.385  11.443 -0.5372  0.7827  1.4324
 5561TIP3    H238099   2.516   1.272  11.520 -0.5929 -0.2048  0.0729
 5562TIP3   OH238100   2.494   6.399   6.259 -0.4312 -0.5777 -0.2533
 5562TIP3    H138101   2.572   6.353   6.288 -0.9117 -0.6155  1.0444
 5562TIP3    H238102   2.519   6.439   6.175  2.0854  2.1128  1.5640
 5563TIP3   OH238103   5.516   5.681  17.353 -0.1961  0.5543  0.3793
 5563TIP3    H138104   5.562   5.686  17.437  2.4483  0.5565 -0.9793
 5563TIP3    H238105   5.497   5.772  17.330 -1.0113  0.5485  0.9722
 5564TIP3   OH238106   3.609   4.324   1.370 -0.3284  0.0713  0.4890
 5564TIP3    H138107   3.548   4.389   1.335 -1.1377 -0.2137  1.3452
 5564TIP3    H238108   3.566   4.290   1.447 -0.0422 -1.6985 -0.0987
 5565TIP3   OH238109   3.194   0.034  14.629  0.3179 -0.1370 -1.0917
 5565TIP3    H138110   3.266   0.002  14.683  1.2574  0.8749 -1.6691
 5565TIP3    H238111   3.209  -0.007  14.543  0.2255  0.0725 -1.2104
 5566TIP3   OH238112   5.859   2.688  12.932  0.3768  0.6434  0.4837
 5566TIP3    H138113   5.771   2.650  12.925  0.6612 -0.6114  2.6676
 5566TIP3    H238114   5.918   2.613  12.923  1.1899  1.3376 -0.0541
 5567TIP3   OH238115   6.005   5.840  13.330  0.1783  0.1213  0.5894
 5567TIP3    H138116   5.980   5.896  13.256  0.0513  1.0982  1.3469
 5567TIP3    H238117   6.053   5.768  13.290 -1.1488 -0.1490 -0.5957
 5568TIP3   OH238118   0.877   4.195  12.428  0.3439 -0.0317  0.9593
 5568TIP3    H138119   0.890   4.276  12.477  0.7354 -0.1458  1.0410
 5568TIP3    H238120   0.782   4.179  12.433  0.1125  0.9741  0.0623
 5569TIP3   OH238121   5.259   2.303   0.833  0.2256  0.2408 -0.0116
 5569TIP3    H138122   5.176   2.255   0.824  0.7703 -1.0897  1.7383
 5569TIP3    H238123   5.286   2.289   0.923  0.6512  3.5523  0.4930
 5570TIP3   OH238124   5.851   0.709  11.197 -0.1849 -0.2114 -0.4538
 5570TIP3    H138125   5.871   0.798  11.227 -1.9467 -0.1155  0.5687
 5570TIP3    H238126   5.789   0.722  11.125 -0.4614 -0.6016 -0.2886
 5571TIP3   OH238127   2.598   1.585  17.031  0.0239  0.2900  0.5067
 5571TIP3    H138128   2.597   1.637  16.951  1.2832 -1.2426 -0.5869
 5571TIP3    H238129   2.518   1.532  17.026  1.4160 -1.8677 -1.3070
 5572TIP3   OH238130   3.607   3.509   4.943  0.1854  0.1773 -0.4880
 5572TIP3    H138131   3.542   3.439   4.952  0.2516  0.3137  1.7159
 5572TIP3    H238132   3.557   3.584   4.912 -0.7552  0.2362  1.0268
 5573TIP3   OH238133   6.706   4.704   2.462 -0.1936  0.1977 -0.1462
 5573TIP3    H138134   6.618   4.722   2.430 -0.1401 -0.1147 -0.4764
 5573TIP3    H238135   6.733   4.785   2.505 -0.6098  0.3216 -0.1185
 5574TIP3   OH238136   3.059   5.004  12.269 -0.3162 -0.5045  0.4768
 5574TIP3    H138137   3.040   5.019  12.362  0.7979 -2.5250  1.0789
 5574TIP3    H238138   3.037   4.912  12.254  2.4564 -1.1055 -0.4343
 5575TIP3   OH238139   5.736   2.365   4.321  0.0785  0.2705  0.0516
 5575TIP3    H138140   5.736   2.385   4.415 -1.2980  0.0097  0.1321
 5575TIP3    H238141   5.654   2.402   4.288  0.9769  1.1863 -1.2640
 5576TIP3   OH238142   2.426   5.726   5.333 -0.4112  0.0351  0.3716
 5576TIP3    H138143   2.435   5.758   5.423 -0.0673  1.4436 -0.1329
 5576TIP3    H238144   2.333   5.738   5.313  0.0821  3.3347 -0.6544
 5577TIP3   OH238145   6.476   0.163   3.965  0.5136 -0.1398  0.4027
 5577TIP3    H138146   6.386   0.129   3.967  0.3468  0.2704 -0.0390
 5577TIP3    H238147   6.530   0.085   3.956  0.4152 -0.7030  3.3801
 5578TIP3   OH238148   6.517   4.999  12.221  0.6067 -0.2565  0.0597
 5578TIP3    H138149   6.509   5.089  12.252  2.5718  0.1180 -0.4208
 5578TIP3    H238150   6.426   4.969  12.212 -0.1458  2.1518 -1.1734
 5579TIP3   OH238151   2.217   0.729  16.796 -0.9140  0.4612  0.2399
 5579TIP3    H138152   2.247   0.809  16.753 -0.2930 -0.8712 -1.9920
 5579TIP3    H238153   2.132   0.752  16.832 -0.0150  2.5844  1.2059
 5580TIP3   OH238154   2.073   1.760   0.490  0.3414 -0.3822 -0.1924
 5580TIP3    H138155   2.117   1.706   0.424 -1.0596 -2.0953  0.2179
 5580TIP3    H238156   1.984   1.771   0.457  0.0998  0.1824  0.6142
 5581TIP3   OH238157   2.744   5.869  16.933 -0.2883  0.0233 -0.3916
 5581TIP3    H138158   2.786   5.793  16.893 -0.6428 -1.6283  2.1164
 5581TIP3    H238159   2.814   5.911  16.983 -0.1429  1.2929 -1.5986
 5582TIP3   OH238160   4.546   1.625   2.922  0.0384  0.0292 -0.5080
 5582TIP3    H138161   4.487   1.636   2.847  1.0751 -1.4234 -1.5965
 5582TIP3    H238162   4.606   1.699   2.917 -0.1085  0.1240 -0.9347
 5583TIP3   OH238163   3.453   0.786   0.448 -0.0082  0.1421 -0.0007
 5583TIP3    H138164   3.543   0.768   0.476 -0.5885 -0.2986  1.6978
 5583TIP3    H238165   3.428   0.709   0.398 -0.0432 -0.5745  1.0941
 5584TIP3   OH238166   4.015   1.821   5.684  0.0350  0.8685  0.1542
 5584TIP3    H138167   3.962   1.768   5.624  1.7964  0.7554 -1.4219
 5584TIP3    H238168   4.022   1.906   5.641  0.2552  1.2082  0.8436
 5585TIP3   OH238169   5.805   2.743   3.524 -0.0835  0.1926  0.2160
 5585TIP3    H138170   5.753   2.805   3.575  1.6160  1.9900 -0.1104
 5585TIP3    H238171   5.741   2.695   3.472 -1.5080  1.4450  0.7206
 5586TIP3   OH238172   2.027   3.181  16.080 -0.1414  0.3966 -0.1621
 5586TIP3    H138173   2.059   3.270  16.063 -1.6654  1.3616  1.6327
 5586TIP3    H238174   2.093   3.142  16.138 -0.1603  0.8786  0.1899
 5587TIP3   OH238175   0.435   2.530   4.194 -0.7690 -0.1092  0.2215
 5587TIP3    H138176   0.374   2.458   4.179 -2.9122  1.3317  1.5003
 5587TIP3    H238177   0.394   2.582   4.263 -0.2299  3.3224 -1.8336
 5588TIP3   OH238178   6.610   6.295  14.369 -0.2962 -0.2882  0.1260
 5588TIP3    H138179   6.578   6.226  14.312 -0.5804  0.6206 -0.8550
 5588TIP3    H238180   6.532   6.330  14.412  0.0412 -1.7980  2.0954
 5589TIP3   OH238181   3.190   6.423  14.064 -0.4736 -0.2269  0.2091
 5589TIP3    H138182   3.208   6.398  14.155  2.2481  1.1210  0.1319
 5589TIP3    H238183   3.159   6.513  14.070  1.0686  0.3692 -0.2248
 5590TIP3   OH238184   5.131   0.924  12.567  0.2590 -0.3541 -0.1224
 5590TIP3    H138185   5.102   1.011  12.595  2.2144 -0.0471  1.1006
 5590TIP3    H238186   5.116   0.923  12.473 -0.5044  1.0170 -0.0463
 5591TIP3   OH238187   0.720   3.839  15.501 -0.0419 -0.1225 -0.6699
 5591TIP3    H138188   0.657   3.829  15.573 -0.4422 -1.1694 -1.1431
 5591TIP3    H238189   0.691   3.775  15.436 -0.8939  2.1672 -2.6690
 5592TIP3   OH238190   5.505   2.647  15.950  0.1569  0.3974 -0.0443
 5592TIP3    H138191   5.539   2.736  15.938 -1.6043  1.0282 -0.7140
 5592TIP3    H238192   5.563   2.592  15.898  0.4285  1.3606 -0.8051
 5593TIP3   OH238193   1.425   3.956   4.135 -0.9795  0.0365 -1.0601
 5593TIP3    H138194   1.474   3.960   4.217 -2.0476  1.5242 -0.4451
 5593TIP3    H238195   1.420   3.863   4.114  0.6165 -0.2587 -0.2586
 5594TIP3   OH238196   1.607   5.798  16.265 -0.6438  0.3897  0.6426
 5594TIP3    H138197   1.670   5.807  16.337  2.1610 -1.8522 -1.3262
 5594TIP3    H238198   1.640   5.854  16.196 -0.3008 -1.3334 -0.6706
 5595TIP3   OH238199   3.833   4.753   4.841 -0.1647  0.1601  0.4448
 5595TIP3    H138200   3.845   4.843   4.810 -3.1733  0.4434 -0.2856
 5595TIP3    H238201   3.796   4.763   4.929  0.2067 -0.3871  0.6653
 5596TIP3   OH238202   6.696   0.919   4.891 -0.0337 -0.0812 -0.4055
 5596TIP3    H138203   6.773   0.943   4.840 -0.5487  0.7655 -0.8099
 5596TIP3    H238204   6.729   0.863   4.961  1.0632  0.8547 -0.1421
 5597TIP3   OH238205   1.851   4.532   3.563  0.3038  0.1486  0.9013
 5597TIP3    H138206   1.784   4.466   3.548  0.8840 -0.2624  0.0893
 5597TIP3    H238207   1.808   4.615   3.542  0.1187 -0.1333  0.1298
 5598TIP3   OH238208   1.372   1.488  16.837 -0.0252 -0.0245  0.6587
 5598TIP3    H138209   1.456   1.443  16.845 -0.2894 -0.1509  3.5477
 5598TIP3    H238210   1.317   1.427  16.787  1.7926  0.5248 -2.2707
 5599TIP3   OH238211   4.132   5.505   4.349  0.3771 -0.2212  0.1317
 5599TIP3    H138212   4.076   5.430   4.368  0.7178 -0.3994  0.4629
 5599TIP3    H238213   4.089   5.579   4.393  0.4022 -0.3579  0.3889
 5600TIP3   OH238214   0.235   2.014  17.113 -0.2530  0.4613  0.5917
 5600TIP3    H138215   0.237   2.103  17.147 -1.4950  0.4355  0.7863
 5600TIP3    H238216   0.191   2.022  17.028  2.1673  0.4200 -0.7466
 5601TIP3   OH238217   6.613   4.454   0.897 -0.4453  0.5872  0.2473
 5601TIP3    H138218   6.613   4.530   0.840 -0.9731  0.6218  0.2848
 5601TIP3    H238219   6.699   4.455   0.939 -0.5227  1.2772  0.3999
 5602TIP3   OH238220   3.844   2.709  13.540 -0.2654  0.4763  0.2381
 5602TIP3    H138221   3.908   2.769  13.577  1.1490 -0.1387 -1.1011
 5602TIP3    H238222   3.854   2.718  13.445 -0.0770 -1.7730 -0.0093
 5603TIP3   OH238223   0.777   0.951  11.687  0.1357  0.0676  0.3947
 5603TIP3    H138224   0.706   0.984  11.633 -0.6879 -0.4880  1.1144
 5603TIP3    H238225   0.839   1.024  11.692 -1.0548  1.0712  0.9368
 5604TIP3   OH238226   0.123   4.079   6.493 -0.0914  0.1813 -0.2670
 5604TIP3    H138227   0.065   4.022   6.543  0.8191 -2.2546 -1.7954
 5604TIP3    H238228   0.194   4.100   6.554 -0.5723 -0.1392  0.4118
 5605TIP3   OH238229   3.562   2.597  15.736  0.2157 -0.0265 -0.5545
 5605TIP3    H138230   3.500   2.530  15.706 -0.5422 -0.7029  2.2794
 5605TIP3    H238231   3.646   2.551  15.741  0.0167 -0.3426 -0.0988
 5606TIP3   OH238232   0.182   2.368  15.470 -0.0912  0.3446 -0.5140
 5606TIP3    H138233   0.174   2.280  15.433 -0.9556  0.7445 -1.3109
 5606TIP3    H238234   0.231   2.355  15.551  0.5787 -0.7508 -1.0626
 5607TIP3   OH238235   0.552   3.937  11.844  0.5331  0.4811 -1.2786
 5607TIP3    H138236   0.467   3.909  11.879 -0.4445  2.2170 -2.1501
 5607TIP3    H238237   0.611   3.936  11.919  0.2738 -2.5108 -0.9740
 5608TIP3   OH238238   2.982   3.085  13.327 -0.1276 -0.3416  0.2651
 5608TIP3    H138239   2.972   3.142  13.251  2.1632  0.6143  0.5911
 5608TIP3    H238240   2.894   3.080  13.365 -0.7697  1.4684 -0.8504
 5609TIP3   OH238241   2.197   2.191   6.768  0.0354 -0.3547  0.2449
 5609TIP3    H138242   2.124   2.184   6.829 -0.5993  1.3920 -0.2474
 5609TIP3    H238243   2.251   2.262   6.805 -0.4185  0.8048 -1.2407
 5610TIP3   OH238244   4.003   1.355  15.934 -0.0804  0.1835  0.3724
 5610TIP3    H138245   3.970   1.442  15.914  1.2118  1.0339  1.7645
 5610TIP3    H238246   4.096   1.359  15.914 -0.1772 -1.1889 -0.4580
 5611TIP3   OH238247   4.750   2.926  11.785 -0.2575 -0.2030  0.0809
 5611TIP3    H138248   4.734   3.015  11.818 -3.1200  0.1520 -1.8724
 5611TIP3    H238249   4.664   2.883  11.792  0.4332 -1.9414 -1.4829
 5612TIP3   OH238250   0.900   2.006   0.310  0.0020 -0.2773 -0.0098
 5612TIP3    H138251   0.989   2.012   0.273 -0.0167 -0.4301 -0.0774
 5612TIP3    H238252   0.874   1.915   0.296 -1.3469  0.4169 -2.7557
 5613TIP3   OH238253   2.247   5.051  12.844 -0.7155 -0.2721  0.6509
 5613TIP3    H138254   2.231   5.145  12.834 -0.5486 -0.3407 -0.4010
 5613TIP3    H238255   2.220   5.013  12.759 -0.7804 -1.1718  1.0610
 5614TIP3   OH238256   2.282   6.340   5.419  0.0547 -0.1398 -0.9531
 5614TIP3    H138257   2.361   6.392   5.402  0.5218 -0.6503 -0.3886
 5614TIP3    H238258   2.263   6.299   5.334 -0.5345  1.2005 -1.5055
 5615TIP3   OH238259   5.843   5.580   1.448  0.0482  0.0503 -0.6284
 5615TIP3    H138260   5.788   5.653   1.420  1.8310  1.5882 -0.3307
 5615TIP3    H238261   5.814   5.561   1.537  0.4515  1.3407 -0.1995
 5616TIP3   OH238262   2.409   0.321   2.606 -0.0757 -1.0496  0.7462
 5616TIP3    H138263   2.431   0.229   2.590  2.1374 -0.4651  0.0487
 5616TIP3    H238264   2.399   0.358   2.518  1.1248 -0.1939  0.9544
 5617TIP3   OH238265   0.801   5.830   4.183 -0.2886  0.2668 -0.6907
 5617TIP3    H138266   0.731   5.856   4.123 -0.9161  0.8658  0.2729
 5617TIP3    H238267   0.765   5.845   4.270  0.0103 -2.0554 -0.0915
 5618TIP3   OH238268   3.806   4.317   5.427  0.0585  0.1186 -0.1779
 5618TIP3    H138269   3.761   4.369   5.360  0.3438 -1.4843 -1.6866
 5618TIP3    H238270   3.896   4.351   5.426 -0.0712  0.4664 -0.2135
 5619TIP3   OH238271   2.553   3.780  17.174  0.1798 -0.1086 -0.0825
 5619TIP3    H138272   2.603   3.699  17.171 -0.4518 -0.5097 -0.0203
 5619TIP3    H238273   2.574   3.818  17.259 -2.1499 -1.9509  1.4412
 5620TIP3   OH238274   5.352   5.681  14.482 -0.6342  0.0532  0.3492
 5620TIP3    H138275   5.385   5.724  14.561 -0.2748  0.1248  0.1634
 5620TIP3    H238276   5.324   5.594  14.512 -1.7258  0.5354  0.8028
 5621TIP3   OH238277   4.914   1.373   2.554 -0.2247  0.4110  0.4291
 5621TIP3    H138278   4.987   1.425   2.588 -1.4230  2.9039 -0.5128
 5621TIP3    H238279   4.850   1.374   2.624 -0.2747  0.2747  0.3841
 5622TIP3   OH238280   5.548   3.297   1.777  0.4271 -0.1961  0.3856
 5622TIP3    H138281   5.607   3.372   1.769  0.0512  0.1420  0.7430
 5622TIP3    H238282   5.593   3.238   1.838  0.4997 -0.0377  0.4875
 5623TIP3   OH238283   5.247   0.305   5.730  0.0562 -0.2773  0.2893
 5623TIP3    H138284   5.234   0.398   5.749  0.7767 -0.5140  2.1336
 5623TIP3    H238285   5.163   0.264   5.752 -0.1885 -0.1001 -0.3042
 5624TIP3   OH238286   4.763   5.925  14.325 -0.2516 -0.3345 -0.2601
 5624TIP3    H138287   4.754   5.942  14.232 -1.6896 -0.7791 -0.2289
 5624TIP3    H238288   4.847   5.879  14.333  0.3432  0.5530 -1.1866
 5625TIP3   OH238289   1.555   1.745  14.924  0.3129  0.2721 -0.0835
 5625TIP3    H138290   1.564   1.729  15.018 -1.2163 -0.5173 -0.0459
 5625TIP3    H238291   1.461   1.753  14.910  0.6106  2.7200 -1.1936
 5626TIP3   OH238292   3.359   4.656  16.835  0.4834  0.3519  0.3656
 5626TIP3    H138293   3.439   4.703  16.861 -0.2430  0.6119  2.2121
 5626TIP3    H238294   3.287   4.711  16.867 -0.4248 -0.7903  0.3371
 5627TIP3   OH238295   6.664   2.096  13.591  0.1592 -0.4105 -0.0246
 5627TIP3    H138296   6.681   2.010  13.630 -1.5309 -0.7304  0.0946
 5627TIP3    H238297   6.606   2.139  13.654 -1.3062 -0.3071 -1.3970
 5628TIP3   OH238298   4.831   6.296  11.379  0.0717  0.2290  0.1463
 5628TIP3    H138299   4.779   6.291  11.299  0.1244 -0.5849  0.1522
 5628TIP3    H238300   4.772   6.266  11.448 -0.5693  2.6882  0.7311
 5629TIP3   OH238301   3.017   0.643  14.575 -0.0224  0.2693 -0.2406
 5629TIP3    H138302   2.944   0.697  14.542 -0.2705 -0.3999 -0.8173
 5629TIP3    H238303   3.075   0.705  14.619 -0.5739  0.9259 -0.4228
 5630TIP3   OH238304   0.493   5.292  15.188  0.0779  0.2046  0.1836
 5630TIP3    H138305   0.527   5.322  15.104 -0.7207  0.1190 -0.1850
 5630TIP3    H238306   0.569   5.289  15.246  0.4713  1.2371 -0.2579
 5631TIP3   OH238307   3.711   0.474  12.721 -0.1778  1.1679  0.3709
 5631TIP3    H138308   3.667   0.558  12.733 -1.5514  0.2295  2.7702
 5631TIP3    H238309   3.689   0.424  12.800  2.9785 -0.4300  0.4100
 5632TIP3   OH238310   5.797   5.383   1.816  0.1663 -0.5686  0.0091
 5632TIP3    H138311   5.750   5.464   1.837 -0.3501 -0.6540 -0.7473
 5632TIP3    H238312   5.734   5.332   1.763 -0.8513 -2.9881  3.2176
 5633TIP3   OH238313   5.812   3.398  17.305  0.5283  0.3665  0.8775
 5633TIP3    H138314   5.796   3.471  17.366 -1.0190  1.3733 -0.6324
 5633TIP3    H238315   5.863   3.437  17.234 -1.3701  0.3741 -0.5591
 5634TIP3   OH238316   1.397   1.429   4.381  0.1839 -0.0591 -0.0603
 5634TIP3    H138317   1.451   1.393   4.310  0.1579 -0.9276  0.3501
 5634TIP3    H238318   1.375   1.517   4.351  1.6994  0.2632 -0.3021
 5635TIP3   OH238319   4.789   4.364   4.406  0.2752  0.0242 -0.0235
 5635TIP3    H138320   4.807   4.300   4.337 -0.7274 -1.4232  0.9885
 5635TIP3    H238321   4.841   4.333   4.480  0.7334  1.1088  0.1129
 5636TIP3   OH238322   1.121   1.554  15.728 -0.4590  0.1202  0.6206
 5636TIP3    H138323   1.124   1.647  15.708 -1.7001  0.5877  2.2947
 5636TIP3    H238324   1.058   1.518  15.666  1.2480  0.0058 -1.1512
 5637TIP3   OH238325   4.253   3.527  11.517 -0.6139 -0.1178 -0.4362
 5637TIP3    H138326   4.216   3.614  11.504 -0.0439  0.3895  1.0913
 5637TIP3    H238327   4.348   3.539  11.509 -0.5292 -0.6121 -0.2574
 5638TIP3   OH238328   5.159   3.993  14.380  0.1474 -0.5239  0.3586
 5638TIP3    H138329   5.126   4.083  14.384  2.1253  0.2071  1.8976
 5638TIP3    H238330   5.136   3.955  14.465 -0.1998 -1.3294 -0.0762
 5639TIP3   OH238331   6.630   4.151   3.068 -0.2612 -0.3195 -0.1285
 5639TIP3    H138332   6.601   4.236   3.103 -0.5332 -0.2124 -0.6053
 5639TIP3    H238333   6.724   4.149   3.085  0.0251  0.7164 -1.4010
 5640TIP3   OH238334   4.691   2.331   4.092  0.0224  0.3411  0.8118
 5640TIP3    H138335   4.691   2.342   3.997 -0.7682  0.0545  0.7731
 5640TIP3    H238336   4.652   2.245   4.106 -2.6935  1.5670  1.4921
 5641TIP3   OH238337   6.529   0.258  16.467 -0.0732  0.0598 -0.5428
 5641TIP3    H138338   6.497   0.282  16.554  2.0559 -1.9358  0.9202
 5641TIP3    H238339   6.484   0.176  16.447 -0.3617  0.3807 -1.2215
 5642TIP3   OH238340   0.410   2.726  11.673 -0.2383  0.3051 -0.2484
 5642TIP3    H138341   0.343   2.743  11.607  1.5226 -1.6758 -2.7533
 5642TIP3    H238342   0.479   2.789  11.655  0.5707 -0.7156 -0.8554
 5643TIP3   OH238343   5.936   4.373  13.080  0.2220 -0.3045  0.4638
 5643TIP3    H138344   6.012   4.387  13.137  0.4964 -0.6053  0.1742
 5643TIP3    H238345   5.861   4.387  13.137  0.4669 -2.3001  1.3670
 5644TIP3   OH238346   6.729   5.571  16.720 -0.4709  0.2425  0.0969
 5644TIP3    H138347   6.771   5.605  16.798  1.4033 -3.4615  0.9207
 5644TIP3    H238348   6.663   5.510  16.753 -0.3229 -0.6524 -1.2006
 5645TIP3   OH238349   3.419   4.252  13.745 -0.1072 -0.0947  0.4838
 5645TIP3    H138350   3.380   4.241  13.658 -1.2032 -2.1478  1.1792
 5645TIP3    H238351   3.511   4.231  13.732 -0.3861 -1.0318 -0.0860
 5646TIP3   OH238352   1.398   5.746  16.110 -0.0918 -0.2742  0.1898
 5646TIP3    H138353   1.381   5.652  16.112 -0.4374 -0.2281 -0.3015
 5646TIP3    H238354   1.454   5.762  16.186 -0.1285 -0.8561  0.3456
 5647TIP3   OH238355   3.938   6.062  10.781 -0.0066 -0.7975 -0.0108
 5647TIP3    H138356   3.895   6.029  10.860  0.2981 -1.0403  0.0540
 5647TIP3    H238357   4.014   6.111  10.813 -1.7971  2.1709  0.0659
 5648TIP3   OH238358   3.287   2.000  16.449  0.6115  0.4637  0.7571
 5648TIP3    H138359   3.214   1.953  16.490  1.2878  0.4615  2.0211
 5648TIP3    H238360   3.358   1.936  16.444  1.1247  0.9762  1.2930
 5649TIP3   OH238361   3.821   0.935   0.732 -0.7429 -0.7658  0.6095
 5649TIP3    H138362   3.764   0.970   0.664 -1.0422 -1.0233  0.7269
 5649TIP3    H238363   3.909   0.936   0.693 -0.1078  3.2561  1.7114
 5650TIP3   OH238364   5.342   3.255   5.076 -0.3483 -0.2660  0.2170
 5650TIP3    H138365   5.279   3.220   5.139  0.6693 -0.9197  0.9157
 5650TIP3    H238366   5.326   3.206   4.996 -0.2730 -0.9158  0.5925
 5651TIP3   OH238367   4.896   2.729   5.369 -0.0527 -0.3386  0.1656
 5651TIP3    H138368   4.835   2.737   5.443  0.2148 -0.8056  0.4410
 5651TIP3    H238369   4.866   2.795   5.307 -1.3242 -1.0649 -0.0462
 5652TIP3   OH238370   1.636   0.191  16.445  0.1235  0.4739  0.2408
 5652TIP3    H138371   1.568   0.177  16.511 -1.3823  1.7329 -0.9612
 5652TIP3    H238372   1.701   0.245  16.490  0.8809 -1.5156  1.6931
 5653TIP3   OH238373   6.498   5.546  14.171  0.2837  0.1501 -0.3177
 5653TIP3    H138374   6.493   5.454  14.200  1.0375 -0.1575 -1.1054
 5653TIP3    H238375   6.432   5.553  14.102  0.9649 -0.1051 -1.0082
 5654TIP3   OH238376   2.653   5.333  15.881 -0.8167 -0.1784 -0.0133
 5654TIP3    H138377   2.569   5.366  15.912  0.8111  2.9279  1.4921
 5654TIP3    H238378   2.695   5.407  15.838  1.2854 -1.5597 -0.5338
 5655TIP3   OH238379   6.224   6.035  15.017 -0.0922  0.1314 -0.4982
 5655TIP3    H138380   6.165   6.098  15.058 -0.2639  0.6642 -1.5285
 5655TIP3    H238381   6.307   6.047  15.063  0.1389  1.7844 -1.2888
 5656TIP3   OH238382   5.585   5.923   3.106 -0.1858  0.6172  0.0450
 5656TIP3    H138383   5.506   5.968   3.073 -0.2495 -0.0455 -0.7471
 5656TIP3    H238384   5.646   5.993   3.127 -1.6592  1.2756  2.5603
 5657TIP3   OH238385   3.946   5.759   4.926  0.3446  0.7472 -0.1622
 5657TIP3    H138386   4.030   5.786   4.889  0.1912 -0.8060 -1.8160
 5657TIP3    H238387   3.945   5.664   4.914 -0.1094  0.2208  3.2194
 5658TIP3   OH238388   3.175   6.722   4.852  0.1454 -0.1725  0.0087
 5658TIP3    H138389   3.109   6.791   4.856  0.0911 -0.2520  0.6949
 5658TIP3    H238390   3.165   6.675   4.935  0.3672 -0.8305 -0.3312
 5659TIP3   OH238391   2.095   5.833  14.764  0.0686  0.3281 -0.2444
 5659TIP3    H138392   2.161   5.902  14.765  0.1862  0.2134  0.0265
 5659TIP3    H238393   2.128   5.768  14.826 -0.1651  0.1462 -0.3125
 5660TIP3   OH238394   3.439   3.008  17.196 -0.8269  0.4641  0.6825
 5660TIP3    H138395   3.391   3.077  17.150  0.0964  2.1163  2.0696
 5660TIP3    H238396   3.394   3.000  17.280 -0.1105  0.3482  1.0624
 5661TIP3   OH238397   5.629   1.652   3.026  0.3278  0.2093  0.1594
 5661TIP3    H138398   5.610   1.629   2.935 -0.7224 -1.2787  0.7028
 5661TIP3    H238399   5.694   1.587   3.055  1.1852  1.1015  0.2857
 5662TIP3   OH238400   1.466   5.781   4.561 -0.0200 -0.1543  0.6177
 5662TIP3    H138401   1.419   5.754   4.639 -0.5836 -1.7345 -0.2218
 5662TIP3    H238402   1.439   5.872   4.546  0.6375  0.4221  2.5996
 5663TIP3   OH238403   5.765   3.343  16.467 -0.2513  0.3426 -0.1141
 5663TIP3    H138404   5.692   3.402  16.449 -0.3488 -0.3759 -2.3223
 5663TIP3    H238405   5.797   3.317  16.381  0.9932 -1.3481  0.7960
 5664TIP3   OH238406   5.645   6.245   6.456 -0.0976  0.3247  0.3879
 5664TIP3    H138407   5.561   6.237   6.502  0.9766 -1.1822  2.2405
 5664TIP3    H238408   5.696   6.305   6.510  0.5005  0.1272  0.0536
 5665TIP3   OH238409   4.663   4.349   0.074 -0.0684  0.1182  0.1890
 5665TIP3    H138410   4.625   4.307   0.151  0.1031  0.6585  0.5771
 5665TIP3    H238411   4.727   4.411   0.110 -1.0520  1.4677 -0.3007
 5666TIP3   OH238412   3.267   4.836   5.052 -0.3876  0.6509 -0.0788
 5666TIP3    H138413   3.243   4.790   5.132  0.9947 -0.5065 -0.2887
 5666TIP3    H238414   3.282   4.926   5.080 -0.9236  0.4897  0.7690
 5667TIP3   OH238415   0.689   5.201  13.515  0.1233 -0.1041  0.2601
 5667TIP3    H138416   0.687   5.276  13.575 -1.5820  0.6080 -0.6333
 5667TIP3    H238417   0.597   5.178  13.502  0.6028 -3.0961  1.3578
 5668TIP3   OH238418   0.759   0.372   0.328 -0.0189  0.0701 -0.1695
 5668TIP3    H138419   0.710   0.294   0.302  1.0176 -0.9807  0.9318
 5668TIP3    H238420   0.848   0.356   0.298  0.6017  0.0129  1.5980
 5669TIP3   OH238421   0.487   6.281   4.976 -0.0699  0.2822 -1.3778
 5669TIP3    H138422   0.435   6.252   5.051 -1.5181 -0.5116 -2.6221
 5669TIP3    H238423   0.495   6.376   4.988  0.7874  0.0225  0.3736
 5670TIP3   OH238424   3.275   3.352   0.442 -0.5050  0.2600  0.8729
 5670TIP3    H138425   3.294   3.258   0.435  1.4689  0.6437  0.4387
 5670TIP3    H238426   3.246   3.364   0.532 -0.5441 -0.7293  1.0010
 5671TIP3   OH238427   5.922   6.436   0.089  0.4646 -0.1463  0.4869
 5671TIP3    H138428   5.882   6.509   0.041  1.1755 -0.5228 -0.7027
 5671TIP3    H238429   6.015   6.441   0.068  0.5719 -1.2017  0.6531
 5672TIP3   OH238430   0.314   2.341  14.265  0.5701 -0.0619  0.1168
 5672TIP3    H138431   0.285   2.369  14.178  2.7797  2.4043  0.0662
 5672TIP3    H238432   0.233   2.332  14.315 -0.5687  2.5710 -1.0717
 5673TIP3   OH238433   6.306   5.236   2.729 -0.6340  0.0442  0.6319
 5673TIP3    H138434   6.392   5.202   2.701 -0.5946 -0.8282  1.7470
 5673TIP3    H238435   6.323   5.326   2.756 -0.4811  0.5805 -1.1188
 5674TIP3   OH238436   0.094   4.612   4.914  0.2307 -0.0783  0.4828
 5674TIP3    H138437   0.023   4.552   4.939 -1.5064  1.1345 -1.1673
 5674TIP3    H238438   0.084   4.621   4.819  0.1280  3.0896  0.7038
 5675TIP3   OH238439   1.011   5.059   3.620 -0.0842  0.1426 -0.5125
 5675TIP3    H138440   0.945   5.126   3.604 -2.8980 -1.9939  1.0321
 5675TIP3    H238441   1.069   5.096   3.686 -0.5765  1.5949 -0.8738
 5676TIP3   OH238442   6.487   1.875  12.406  0.2706  0.3390  0.4575
 5676TIP3    H138443   6.544   1.798  12.416 -0.7377 -0.4832  0.0225
 5676TIP3    H238444   6.413   1.858  12.464  0.3902  1.3589  0.9446
 5677TIP3   OH238445   6.732   5.063   1.763 -0.0258 -0.5334 -0.2360
 5677TIP3    H138446   6.749   5.001   1.692  1.5822 -0.3375 -0.0718
 5677TIP3    H238447   6.757   5.148   1.727 -0.1827 -0.2850  0.2275
 5678TIP3   OH238448   4.200   5.724   2.475 -0.4151  0.1123  0.2741
 5678TIP3    H138449   4.164   5.681   2.398 -3.3394  0.7586  1.1531
 5678TIP3    H238450   4.181   5.817   2.462  1.0359  0.5128  0.8058
 5679TIP3   OH238451   3.837   1.582   4.204 -0.5060  0.2645 -0.6165
 5679TIP3    H138452   3.831   1.490   4.179 -0.4037  0.1648 -0.2847
 5679TIP3    H238453   3.776   1.627   4.145 -0.0645  0.0785 -1.2202
 5680TIP3   OH238454   5.211   4.904  15.126 -0.5483  0.1118 -0.4584
 5680TIP3    H138455   5.270   4.976  15.105  1.1073 -0.9940  0.1728
 5680TIP3    H238456   5.182   4.921  15.215 -0.6606  0.3303 -0.5386
 5681TIP3   OH238457   6.465   1.206  13.398  0.0708  0.5541  0.8836
 5681TIP3    H138458   6.372   1.187  13.386  0.3635  0.0116 -0.9139
 5681TIP3    H238459   6.509   1.146  13.338  1.5118  1.6266  0.8195
 5682TIP3   OH238460   1.156   3.389  14.012  0.1457  0.4274  0.5951
 5682TIP3    H138461   1.150   3.398  13.917  1.9607 -0.4227  0.3583
 5682TIP3    H238462   1.092   3.452  14.046  0.6075  1.9449 -1.1597
 5683TIP3   OH238463   6.410   5.764   2.118  0.1222 -0.3308 -0.8567
 5683TIP3    H138464   6.364   5.805   2.192  1.5203  0.0691 -0.1855
 5683TIP3    H238465   6.426   5.836   2.057  2.0324  0.0788  0.0469
 5684TIP3   OH238466   2.134   6.250  14.562  0.1514  0.0506  0.4279
 5684TIP3    H138467   2.107   6.303  14.487  0.2077  0.8664  0.9714
 5684TIP3    H238468   2.226   6.272  14.575  1.1161 -2.4688 -1.2091
 5685TIP3   OH238469   6.032   1.846  14.948 -0.1083 -0.1822  0.1690
 5685TIP3    H138470   5.938   1.863  14.952 -0.6400 -1.4846 -3.2431
 5685TIP3    H238471   6.060   1.884  14.865  2.7316  1.2699  1.6540
 5686TIP3   OH238472   3.095   6.108  11.496 -0.4134  0.1884 -0.3391
 5686TIP3    H138473   3.167   6.171  11.496 -0.9722  0.8690  0.9362
 5686TIP3    H238474   3.062   6.108  11.407  0.7389  0.3520 -0.7826
 5687TIP3   OH238475   4.744   0.084  11.574 -0.4834  0.2915 -0.2958
 5687TIP3    H138476   4.712   0.082  11.664 -2.6205  2.1080 -0.9123
 5687TIP3    H238477   4.692   0.152  11.532  1.8196  0.8799 -2.4282
 5688TIP3   OH238478   3.402   2.958   6.596  0.7060  0.0557 -0.2386
 5688TIP3    H138479   3.400   3.045   6.557  1.1776 -0.6377 -1.8942
 5688TIP3    H238480   3.429   2.900   6.525  0.3139 -1.4689  0.7963
 5689TIP3   OH238481   1.477   6.385  17.215 -0.0464  0.1572  0.2891
 5689TIP3    H138482   1.426   6.423  17.286 -0.9782  1.6270 -1.1076
 5689TIP3    H238483   1.559   6.357  17.256 -1.0649 -0.2365  2.1589
 5690TIP3   OH238484   4.245   5.222   3.038 -0.3722 -0.0153 -0.2882
 5690TIP3    H138485   4.226   5.130   3.057  0.6742 -0.4097 -1.0097
 5690TIP3    H238486   4.330   5.219   2.994  1.2501  1.5440  2.4344
 5691TIP3   OH238487   2.975   2.589  16.334 -0.0234  0.9889  0.3733
 5691TIP3    H138488   2.891   2.622  16.367 -0.5459  2.9626 -2.5438
 5691TIP3    H238489   3.010   2.660  16.280  2.2434 -0.7638 -0.6660
 5692TIP3   OH238490   6.732   3.464  13.091 -0.2446  0.4609 -0.3189
 5692TIP3    H138491   6.722   3.552  13.055  1.4863  0.4369 -0.9418
 5692TIP3    H238492   6.680   3.408  13.033 -0.9368  1.0024 -0.2235
 5693TIP3   OH238493   4.345   3.295  16.818  0.1255  0.8232 -0.0866
 5693TIP3    H138494   4.383   3.313  16.732  1.0123 -1.7465 -0.2982
 5693TIP3    H238495   4.398   3.348  16.878  2.3871 -0.6349 -0.6720
 5694TIP3   OH238496   2.092   2.375  10.845  0.4965 -0.3912  0.5028
 5694TIP3    H138497   2.018   2.388  10.904 -1.0205 -0.8977 -1.2115
 5694TIP3    H238498   2.164   2.349  10.903 -0.6958 -0.1021  2.1964
 5695TIP3   OH238499   1.817   6.354   5.897 -0.1329 -0.1783 -0.0747
 5695TIP3    H138500   1.785   6.275   5.854 -1.4729 -1.1479  2.5068
 5695TIP3    H238501   1.750   6.420   5.880  0.4157  0.1074 -1.2392
 5696TIP3   OH238502   3.420   1.757  14.753  0.0460 -0.1561 -0.4389
 5696TIP3    H138503   3.332   1.762  14.792 -0.5072 -1.6998 -1.4362
 5696TIP3    H238504   3.467   1.696  14.809 -0.8423 -2.6238 -2.1978
 5697TIP3   OH238505   5.429   0.652  13.694 -0.6078  0.3882  0.1181
 5697TIP3    H138506   5.518   0.626  13.718  0.8858  1.2772 -3.7758
 5697TIP3    H238507   5.431   0.747  13.695 -0.9720  0.4406 -1.4668
 5698TIP3   OH238508   2.290   2.982  14.134 -0.0119 -0.0315 -0.4645
 5698TIP3    H138509   2.285   3.076  14.150 -0.9508 -0.1318 -0.1462
 5698TIP3    H238510   2.372   2.955  14.175 -0.1357  0.5121  0.1555
 5699TIP3   OH238511   0.080   5.431   0.410  0.2410  0.5521 -0.6607
 5699TIP3    H138512   0.037   5.425   0.325  0.1741 -2.3132 -0.5172
 5699TIP3    H238513   0.173   5.436   0.390  0.2188 -0.0216 -0.9025
 5700TIP3   OH238514   4.996   4.062  12.783 -0.2064  0.3176 -0.7636
 5700TIP3    H138515   5.016   4.130  12.848  1.5908 -1.0133  0.1950
 5700TIP3    H238516   4.969   4.110  12.705  0.5096  2.1115  0.0294
 5701TIP3   OH238517   0.523   5.229  12.602 -0.0801  0.3790 -0.1794
 5701TIP3    H138518   0.536   5.257  12.692  1.8481 -1.6476  0.2665
 5701TIP3    H238519   0.609   5.240  12.561 -0.3780 -0.6758 -1.1450
 5702TIP3   OH238520   3.490   4.866  16.322 -0.0630  0.8371  0.4372
 5702TIP3    H138521   3.576   4.834  16.348 -0.3650  0.6679  1.2416
 5702TIP3    H238522   3.450   4.898  16.403 -1.3895 -0.5484  0.3798
 5703TIP3   OH238523   4.447   3.216   2.321 -0.0709  0.2450 -0.3154
 5703TIP3    H138524   4.385   3.279   2.358  1.1175  1.2713 -0.0061
 5703TIP3    H238525   4.492   3.179   2.397 -1.6416 -2.0114 -0.3854
 5704TIP3   OH238526   6.242   5.465   5.637  0.6910 -0.1949  1.1302
 5704TIP3    H138527   6.333   5.444   5.656  0.3365 -2.1998  0.8672
 5704TIP3    H238528   6.206   5.384   5.599 -0.8858  0.9186  0.1096
 5705TIP3   OH238529   0.245   0.352  11.314  0.1364  0.4005 -0.0889
 5705TIP3    H138530   0.238   0.446  11.329 -0.3694  0.4128 -0.4090
 5705TIP3    H238531   0.154   0.321  11.308  0.3027  0.0673 -1.0933
 5706TIP3   OH238532   0.910   5.402  16.432  0.5575  0.3504 -0.2339
 5706TIP3    H138533   0.871   5.368  16.351 -1.7589  2.0918  0.0278
 5706TIP3    H238534   0.989   5.350  16.445  0.9437 -0.0988 -3.5172
 5707TIP3   OH238535   5.709   3.632  13.899 -0.5781 -0.4988 -0.2802
 5707TIP3    H138536   5.758   3.574  13.840  1.0576  0.0640  0.4716
 5707TIP3    H238537   5.638   3.577  13.932  0.2109 -1.7237 -0.5386
 5708TIP3   OH238538   1.240   2.062  16.978  0.5615  0.0922  0.1411
 5708TIP3    H138539   1.300   2.094  16.911 -0.0900  0.0795 -0.4539
 5708TIP3    H238540   1.172   2.130  16.984 -0.4754 -0.8363 -0.6691
 5709TIP3   OH238541   1.702   4.640   2.301  0.4129 -0.1754 -0.4921
 5709TIP3    H138542   1.694   4.585   2.223 -0.3953 -1.8529  0.7111
 5709TIP3    H238543   1.630   4.612   2.358  1.1959  0.7270  1.0099
 5710TIP3   OH238544   4.078   6.118   3.557 -0.6152  0.3095 -0.1480
 5710TIP3    H138545   4.075   6.097   3.464  0.8860 -0.6207 -0.0115
 5710TIP3    H238546   4.066   6.035   3.602  0.4200  0.4707  0.4605
 5711TIP3   OH238547   0.744   4.448  13.790 -0.2786 -0.4028 -0.0956
 5711TIP3    H138548   0.661   4.488  13.764  0.3655  0.7534 -0.4566
 5711TIP3    H238549   0.719   4.365  13.830 -1.5074 -0.9004 -1.7625
 5712TIP3   OH238550   3.859   0.613   0.879 -0.2891  0.1610  0.3877
 5712TIP3    H138551   3.901   0.562   0.949  0.1363 -0.1018 -0.0500
 5712TIP3    H238552   3.796   0.668   0.925 -0.0499 -0.0376  0.9778
 5713TIP3   OH238553   4.606   4.643  16.888 -0.0330 -0.2024 -0.0298
 5713TIP3    H138554   4.670   4.617  16.955 -1.9734 -2.0651  1.2488
 5713TIP3    H238555   4.540   4.573  16.890 -0.0584 -0.5209 -4.1503
 5714TIP3   OH238556   6.154   6.673   6.844 -0.3209  0.5241  0.2769
 5714TIP3    H138557   6.242   6.662   6.809 -0.4425  0.1369  0.0924
 5714TIP3    H238558   6.141   6.768   6.846  0.4434  0.6245  1.1623
 5715TIP3   OH238559   6.168   2.425   1.870 -0.7071  0.0286  0.3832
 5715TIP3    H138560   6.103   2.426   1.800  0.2090  1.6688 -0.5001
 5715TIP3    H238561   6.197   2.516   1.878  0.5759 -0.4452  1.6042
 5716TIP3   OH238562   1.641   2.268   3.105 -0.0573  0.2472  0.1861
 5716TIP3    H138563   1.687   2.214   3.040 -0.8638  0.1735 -0.3315
 5716TIP3    H238564   1.704   2.338   3.126 -0.2282  0.9929 -1.6011
 5717TIP3   OH238565   4.934   2.794  10.376 -0.0367 -0.8369  0.0747
 5717TIP3    H138566   4.858   2.826  10.424 -0.1075  1.6166 -1.4735
 5717TIP3    H238567   5.005   2.790  10.441 -1.1933 -2.1664  1.3096
 5718TIP3   OH238568   1.698   2.395   1.286  0.1289  0.1012 -0.0449
 5718TIP3    H138569   1.758   2.395   1.211 -1.1259 -0.0733 -1.0813
 5718TIP3    H238570   1.653   2.479   1.282 -0.9539 -0.4731 -0.3344
 5719TIP3   OH238571   3.980   6.523  15.613  0.3703 -0.0024 -0.3372
 5719TIP3    H138572   3.924   6.476  15.552 -1.8285  1.4855  0.4041
 5719TIP3    H238573   3.934   6.606  15.629  1.6800  0.3654  2.0378
 5720TIP3   OH238574   3.210   5.566   1.991  0.2657 -0.1758  0.5936
 5720TIP3    H138575   3.145   5.533   2.053 -1.3616  0.5960 -0.6200
 5720TIP3    H238576   3.239   5.488   1.943 -0.1109 -0.4685  0.8367
 5721TIP3   OH238577   5.776   4.530  14.006 -0.1887 -0.0474  0.1924
 5721TIP3    H138578   5.819   4.451  14.037 -0.5209  0.0616  0.9468
 5721TIP3    H238579   5.817   4.548  13.921 -0.3469 -1.2054 -0.1384
 5722TIP3   OH238580   2.927   2.648  13.023  0.1266 -0.1688 -0.2411
 5722TIP3    H138581   3.019   2.639  13.048  0.0631  0.1226  0.0962
 5722TIP3    H238582   2.882   2.668  13.105 -0.7926 -3.9794  0.3907
 5723TIP3   OH238583   2.336   5.163  14.777  0.1845  0.1427 -0.4815
 5723TIP3    H138584   2.429   5.163  14.758  0.0715  0.3601 -1.0599
 5723TIP3    H238585   2.318   5.075  14.810  0.7666  0.3916  0.5563
 5724TIP3   OH238586   3.014   2.980  14.315  0.0409 -0.7616  0.4681
 5724TIP3    H138587   2.974   3.051  14.364  0.2461 -2.5182  3.4614
 5724TIP3    H238588   3.073   2.937  14.377  1.5842 -2.2725 -1.8230
 5725TIP3   OH238589   6.017   5.988   5.465  0.0684  0.0260  0.0408
 5725TIP3    H138590   6.027   5.990   5.560 -0.9666  0.8092  0.1525
 5725TIP3    H238591   5.939   5.934   5.451  0.6555 -0.7156 -0.4160
 5726TIP3   OH238592   4.118   0.147   2.008 -0.6477 -0.1548 -0.3255
 5726TIP3    H138593   4.100   0.201   2.084 -0.3576 -1.3497  0.6190
 5726TIP3    H238594   4.044   0.086   2.003 -0.1333 -0.7887 -0.3374
 5727TIP3   OH238595   6.295   5.755  17.043  0.8464 -0.1813 -0.4033
 5727TIP3    H138596   6.301   5.830  17.103 -0.3619  0.1821 -0.7289
 5727TIP3    H238597   6.383   5.716  17.046  0.4098 -1.2148  2.9445
 5728TIP3   OH238598   2.383   5.174   3.565  0.0424  0.4470  0.2616
 5728TIP3    H138599   2.325   5.099   3.557  0.6825 -0.0263 -0.0487
 5728TIP3    H238600   2.426   5.180   3.479  1.9154 -0.4453  1.0949
 5729TIP3   OH238601   5.638   6.499   2.150 -0.1038  0.0030  0.0235
 5729TIP3    H138602   5.567   6.550   2.110 -0.7874  0.0358  1.2461
 5729TIP3    H238603   5.717   6.528   2.104 -0.8751 -0.1020 -1.4220
 5730TIP3   OH238604   4.788   0.662  15.922 -0.1587  1.0117  0.0399
 5730TIP3    H138605   4.785   0.623  16.009  1.3708  1.8931  0.5274
 5730TIP3    H238606   4.881   0.674  15.904 -0.4870  1.7357 -1.3052
 5731TIP3   OH238607   3.244   4.665  15.693 -0.6741  0.5744  0.4819
 5731TIP3    H138608   3.266   4.572  15.688 -1.9130  0.3138 -0.4774
 5731TIP3    H238609   3.301   4.699  15.762  2.1613 -0.1769 -1.3420
 5732TIP3   OH238610   0.565   4.857  13.740  0.2313 -0.1677  0.5383
 5732TIP3    H138611   0.612   4.886  13.662 -1.5312  1.4485  0.0170
 5732TIP3    H238612   0.554   4.762  13.727  0.1972  0.0284 -1.0721
 5733TIP3   OH238613   6.019   2.753  11.871 -0.6042  0.5825 -0.6165
 5733TIP3    H138614   6.089   2.793  11.923 -0.4061 -1.1066  0.4820
 5733TIP3    H238615   5.987   2.825  11.816  0.9082  1.7927 -0.0115
 5734TIP3   OH238616   2.254   3.010   0.376 -0.0056  0.3596 -0.1944
 5734TIP3    H138617   2.253   2.916   0.393 -0.3754  0.7643  2.3967
 5734TIP3    H238618   2.163   3.032   0.360  0.1751  0.1909 -1.5497
 5735TIP3   OH238619   2.611   5.285  14.803 -0.4507 -0.5039  0.3667
 5735TIP3    H138620   2.657   5.248  14.727 -1.3780  0.7012 -0.8495
 5735TIP3    H238621   2.665   5.262  14.878  1.6913  0.1743 -0.8972
 5736TIP3   OH238622   4.735   1.316   5.659  0.1636 -0.2967 -0.5884
 5736TIP3    H138623   4.708   1.401   5.695  1.1305  0.4188 -1.4935
 5736TIP3    H238624   4.826   1.306   5.685  0.5976 -0.2073 -1.9655
 5737TIP3   OH238625   1.383   1.953  15.985  0.4444 -0.1126  0.0756
 5737TIP3    H138626   1.313   1.964  16.050 -0.3115 -0.5562 -0.6329
 5737TIP3    H238627   1.337   1.924  15.906  1.3530  0.3237 -0.6295
 5738TIP3   OH238628   0.342   0.217   2.610 -0.1244 -0.0984 -0.3308
 5738TIP3    H138629   0.352   0.148   2.675 -2.7555 -2.6257 -2.3279
 5738TIP3    H238630   0.419   0.209   2.554 -0.3666 -1.4663 -0.5019
 5739TIP3   OH238631   0.705   4.205   1.563 -0.2001 -0.4826 -0.0377
 5739TIP3    H138632   0.696   4.135   1.499 -0.4223 -0.4127 -0.0866
 5739TIP3    H238633   0.621   4.206   1.609 -0.0109 -0.5881  0.3136
 5740TIP3   OH238634   3.059   3.793  12.214 -0.3503  0.8304  0.1218
 5740TIP3    H138635   3.096   3.865  12.163  2.1011  0.1815  0.8808
 5740TIP3    H238636   3.069   3.821  12.305  2.3711 -1.1490  0.5325
 5741TIP3   OH238637   2.999   0.660  15.197 -0.1430 -0.1743  0.2999
 5741TIP3    H138638   2.907   0.644  15.217 -0.1228 -2.8190 -1.3325
 5741TIP3    H238639   3.009   0.633  15.106  2.1125  0.7405  0.2184
 5742TIP3   OH238640   1.162   6.041   5.393  0.5238 -0.1097 -0.5300
 5742TIP3    H138641   1.096   6.007   5.453  0.1095  0.9437 -0.3622
 5742TIP3    H238642   1.173   5.973   5.328  0.0411 -0.7367  0.0314
 5743TIP3   OH238643   1.590   5.896  17.143  0.0096  0.4169  0.4032
 5743TIP3    H138644   1.677   5.911  17.105  0.2367 -1.0989  0.2728
 5743TIP3    H238645   1.560   5.983  17.168  1.9276  0.9012  1.2301
 5744TIP3   OH238646   4.449   0.932   5.344 -0.3330  0.4552  0.0537
 5744TIP3    H138647   4.534   0.903   5.378  0.3474  1.4298 -0.7651
 5744TIP3    H238648   4.403   0.967   5.420 -0.2032 -0.5103  0.5909
 5745TIP3   OH238649   5.648   6.328  11.096  0.6466 -0.2061  0.0170
 5745TIP3    H138650   5.592   6.259  11.062 -0.6187  1.5970 -1.8719
 5745TIP3    H238651   5.720   6.334  11.033 -0.4538  1.5899 -1.1868
 5746TIP3   OH238652   0.493   5.645   0.626 -0.2598 -0.1359 -0.0426
 5746TIP3    H138653   0.565   5.601   0.581  0.1024  0.3782  0.0293
 5746TIP3    H238654   0.443   5.686   0.556 -0.5177 -0.5311 -0.0968
 5747TIP3   OH238655   0.813   5.486  11.611  0.1154 -0.2566  0.0178
 5747TIP3    H138656   0.735   5.527  11.573  0.0829 -1.1670 -0.9326
 5747TIP3    H238657   0.810   5.511  11.704 -0.9417  0.2763 -0.1426
 5748TIP3   OH238658   2.542   0.756   5.787  0.3906  0.3109  0.4063
 5748TIP3    H138659   2.459   0.716   5.764  0.7131 -0.8262  1.1546
 5748TIP3    H238660   2.520   0.815   5.860  0.1875  0.2370  0.4054
 5749TIP3   OH238661   0.230   5.026   0.378 -0.1249 -0.6446  0.0264
 5749TIP3    H138662   0.214   5.109   0.424 -0.1718 -0.1292 -0.8995
 5749TIP3    H238663   0.143   5.000   0.346  0.2072  0.0128 -1.4459
 5750TIP3   OH238664   2.275   1.363  11.759  0.6193  0.1552  0.4241
 5750TIP3    H138665   2.269   1.415  11.839 -2.0655 -0.1528  0.4957
 5750TIP3    H238666   2.250   1.275  11.785 -1.5684  0.3140 -0.9212
 5751TIP3   OH238667   0.691   6.307  10.568 -0.0130 -0.4841  0.0467
 5751TIP3    H138668   0.785   6.321  10.581  0.3851 -0.7711 -2.1215
 5751TIP3    H238669   0.650   6.360  10.637  1.7045  0.9226  0.0897
 5752TIP3   OH238670   1.589   4.964   1.119  0.0696 -0.0162 -0.3072
 5752TIP3    H138671   1.603   4.896   1.185  0.1253 -0.7697 -1.0765
 5752TIP3    H238672   1.595   5.046   1.167 -1.7614 -0.5809  1.0071
 5753TIP3   OH238673   3.338   3.401  15.561  0.6483 -0.4847 -0.5536
 5753TIP3    H138674   3.366   3.392  15.652 -0.3864  0.1683 -0.1505
 5753TIP3    H238675   3.384   3.479  15.530 -0.5085  0.4688  0.0456
 5754TIP3   OH238676   5.234   2.030   2.947 -0.6774  0.1383 -0.8215
 5754TIP3    H138677   5.273   1.945   2.925  2.6987  1.1008  0.8548
 5754TIP3    H238678   5.140   2.011   2.957 -0.1477 -3.2502 -1.1207
 5755TIP3   OH238679   3.217   5.577  16.225 -0.7869  0.2156  0.4139
 5755TIP3    H138680   3.219   5.592  16.130  0.9352  0.0691  0.4065
 5755TIP3    H238681   3.151   5.509  16.236  0.2098 -1.0278 -0.9056
 5756TIP3   OH238682   4.398   3.303   2.702 -0.1490 -0.4191  1.0593
 5756TIP3    H138683   4.347   3.357   2.642  1.4906  0.5629  0.4716
 5756TIP3    H238684   4.451   3.247   2.645  0.1965 -0.6565  1.6071
 5757TIP3   OH238685   6.013   3.222   3.153  0.1653 -0.0714  0.3677
 5757TIP3    H138686   5.972   3.251   3.234  0.0624  0.5597  0.0919
 5757TIP3    H238687   6.070   3.294   3.127  0.9553 -0.6775  0.4036
 5758TIP3   OH238688   3.844   0.729  15.965  0.5999  0.3653  0.4258
 5758TIP3    H138689   3.909   0.774  16.020  1.8833 -0.3800 -0.4281
 5758TIP3    H238690   3.760   0.749  16.006  1.1562  3.0238  0.4124
 5759TIP3   OH238691   5.446   0.256  13.352  0.4577 -0.6240  0.3976
 5759TIP3    H138692   5.449   0.191  13.422  3.0951 -1.4959 -0.3960
 5759TIP3    H238693   5.534   0.294  13.350 -0.1704  0.9004 -1.0753
 5760TIP3   OH238694   1.677   4.911   2.646 -0.5647 -0.5324  0.1179
 5760TIP3    H138695   1.663   4.893   2.739 -0.8301  1.9196  0.6132
 5760TIP3    H238696   1.596   4.954   2.618  0.2113  0.3774 -0.7645
 5761TIP3   OH238697   3.048   4.299   5.982 -0.3894  0.5249  0.4264
 5761TIP3    H138698   3.031   4.393   5.981  0.1124  0.6309  1.2706
 5761TIP3    H238699   3.129   4.289   6.032 -0.0283 -0.2978 -0.2921
 5762TIP3   OH238700   4.990   4.613   2.961 -0.0650 -0.0140  0.3280
 5762TIP3    H138701   4.956   4.599   2.873 -1.0029  2.0603  0.3100
 5762TIP3    H238702   5.067   4.669   2.948 -1.4437  2.1563  0.8823
 5763TIP3   OH238703   0.236   4.766  16.181  0.4376 -0.5162  0.1419
 5763TIP3    H138704   0.326   4.799  16.187 -0.0366  1.5506 -2.4377
 5763TIP3    H238705   0.246   4.677  16.146  1.5146  0.4165 -2.1453
 5764TIP3   OH238706   4.300   2.294  10.559  0.2606  0.1064  0.2808
 5764TIP3    H138707   4.306   2.216  10.614 -0.6488 -1.0496 -1.1972
 5764TIP3    H238708   4.226   2.343  10.595 -1.7917 -1.7519 -1.1630
 5765TIP3   OH238709   3.465   5.735   5.412  0.0854 -0.1140 -0.2597
 5765TIP3    H138710   3.468   5.639   5.420 -0.9297 -0.1110  0.3174
 5765TIP3    H238711   3.557   5.760   5.401  0.4991 -1.0664  0.7371
 5766TIP3   OH238712   0.841   6.056   5.838 -0.2969  0.2365 -0.3612
 5766TIP3    H138713   0.919   6.025   5.793 -0.0987 -0.1718  0.2461
 5766TIP3    H238714   0.792   6.105   5.772  0.2507  0.1110 -0.8627
 5767TIP3   OH238715   5.086   2.790   4.883  0.3149  0.0634  0.3960
 5767TIP3    H138716   5.030   2.713   4.884  1.4384 -0.8139  2.7104
 5767TIP3    H238717   5.028   2.862   4.910 -0.3582 -0.2767 -0.1301
 5768TIP3   OH238718   5.326   2.682  17.289  0.0003 -0.0221  0.3993
 5768TIP3    H138719   5.348   2.589  17.289  1.2675  0.2737  0.2078
 5768TIP3    H238720   5.324   2.707  17.197 -0.6242  0.0886  0.4344
 5769TIP3   OH238721   4.199   3.764  17.076 -0.4308 -0.7841 -0.3686
 5769TIP3    H138722   4.280   3.721  17.050  0.2607  0.1242  0.1860
 5769TIP3    H238723   4.227   3.834  17.135 -1.5010  0.3069 -1.0792
 5770TIP3   OH238724   6.469   2.738  16.616  0.3397  0.1846 -0.2114
 5770TIP3    H138725   6.401   2.672  16.600  0.1465  0.4350 -0.4415
 5770TIP3    H238726   6.420   2.817  16.639  0.4712  0.7808 -1.8155
 5771TIP3   OH238727   5.570   2.476   2.006 -0.1197 -0.1537  0.4265
 5771TIP3    H138728   5.597   2.557   2.050 -2.3138  1.2351 -0.5942
 5771TIP3    H238729   5.493   2.448   2.055 -1.5516  0.4562 -1.3643
 5772TIP3   OH238730   1.426   5.343   4.678 -0.4064 -0.1055 -0.3977
 5772TIP3    H138731   1.399   5.251   4.682 -1.1087  0.1218  1.0525
 5772TIP3    H238732   1.375   5.385   4.748  1.2655  1.0202  0.2076
 5773TIP3   OH238733   2.437   4.377   6.271  0.1049 -0.2754  0.7428
 5773TIP3    H138734   2.368   4.332   6.223 -0.3863  0.0697  1.1134
 5773TIP3    H238735   2.504   4.310   6.285 -0.3735 -0.7497  0.8173
 5774TIP3   OH238736   1.069   5.356   4.438  0.1821  0.0387 -0.1031
 5774TIP3    H138737   1.003   5.288   4.444 -0.6248  0.7825 -0.2789
 5774TIP3    H238738   1.090   5.361   4.345  1.3661 -0.9849  0.0775
 5775TIP3   OH238739   6.104   0.982  17.289 -0.1807  0.3035 -0.0382
 5775TIP3    H138740   6.155   1.020  17.218 -2.4133  1.7452 -0.9957
 5775TIP3    H238741   6.135   0.892  17.296  0.8531  0.4408 -2.1153
 5776TIP3   OH238742   3.327   1.562  14.504 -0.0725  0.4647  0.5411
 5776TIP3    H138743   3.402   1.614  14.476  0.9840 -1.6830 -0.8817
 5776TIP3    H238744   3.357   1.518  14.584 -0.1351  0.3001  0.4751
 5777TIP3   OH238745   4.965   4.460   2.510  0.0165 -0.3232 -0.5749
 5777TIP3    H138746   5.027   4.391   2.532 -0.3246 -0.7349 -0.8885
 5777TIP3    H238747   5.015   4.521   2.456  0.9565  0.8666  1.5405
 5778TIP3   OH238748   5.074   2.799  12.914 -0.4155  0.7394  0.1717
 5778TIP3    H138749   5.064   2.783  12.820 -0.9912  0.6606  0.2437
 5778TIP3    H238750   5.140   2.868  12.920 -0.1478  0.5252 -0.2764
 5779TIP3   OH238751   0.164   3.384   0.638  0.3671 -0.2038 -0.4163
 5779TIP3    H138752   0.176   3.314   0.573 -0.2388 -0.1479 -0.5939
 5779TIP3    H238753   0.152   3.463   0.586 -0.1343 -0.1610 -0.2377
 5780TIP3   OH238754   0.880   6.044   4.569 -0.5537 -0.2150 -0.2053
 5780TIP3    H138755   0.825   5.978   4.611 -2.2743 -0.0967 -2.0736
 5780TIP3    H238756   0.929   5.996   4.502  1.2365 -0.2107  1.0380
 5781TIP3   OH238757   1.704   6.020  16.117  0.3525 -0.2715 -0.0382
 5781TIP3    H138758   1.695   6.041  16.024 -1.3564  0.1951  0.1965
 5781TIP3    H238759   1.797   6.002  16.129  0.7015  0.2636 -1.7133
 5782TIP3   OH238760   0.963   3.550  11.944 -0.3496  0.3938  0.0913
 5782TIP3    H138761   0.879   3.568  11.984  0.5522  2.3829  1.2163
 5782TIP3    H238762   0.968   3.609  11.869  0.9110  1.9549  1.3378
 5783TIP3   OH238763   2.394   5.996   1.879  0.2356  0.3544  0.2462
 5783TIP3    H138764   2.326   6.061   1.861 -0.8619 -0.1973  2.0929
 5783TIP3    H238765   2.373   5.923   1.822 -1.0910 -0.0275  1.1843
 5784TIP3   OH238766   1.648   3.740   3.423  0.0894 -0.1945 -0.0106
 5784TIP3    H138767   1.600   3.800   3.480 -0.6293 -0.7666 -0.0026
 5784TIP3    H238768   1.585   3.672   3.400  0.4823 -0.2052 -1.1503
 5785TIP3   OH238769   3.919   3.155  11.503  0.1935  0.3471 -0.4685
 5785TIP3    H138770   3.998   3.207  11.522 -0.6436  2.2980 -1.9368
 5785TIP3    H238771   3.932   3.123  11.414 -0.9432  1.3251 -1.0157
 5786TIP3   OH238772   0.848   0.964   5.199 -0.3936 -1.0423 -0.4747
 5786TIP3    H138773   0.752   0.972   5.194 -0.3618  2.1387  1.0155
 5786TIP3    H238774   0.878   0.985   5.110 -1.0526 -0.7082 -0.6258
 5787TIP3   OH238775   5.460   5.734   2.931 -0.8357 -0.8109  0.4862
 5787TIP3    H138776   5.519   5.809   2.941 -0.7123 -0.7750 -0.3993
 5787TIP3    H238777   5.443   5.705   3.020  1.8810 -1.8792  0.7713
 5788TIP3   OH238778   6.260   4.507  11.652  0.2011  0.0426  0.0737
 5788TIP3    H138779   6.198   4.572  11.620 -1.4021 -2.0246 -1.2424
 5788TIP3    H238780   6.208   4.447  11.705  1.3614 -0.8875  0.2189
 5789TIP3   OH238781   0.389   2.532  16.486  0.1253  0.0062 -0.1918
 5789TIP3    H138782   0.304   2.507  16.523  0.4680 -1.3742 -0.2945
 5789TIP3    H238783   0.400   2.473  16.411  0.7638  0.8044 -0.7344
 5790TIP3   OH238784   1.263   0.608   6.036  0.2825 -0.0871 -0.3256
 5790TIP3    H138785   1.310   0.689   6.057  1.6674 -0.7014 -0.8938
 5790TIP3    H238786   1.276   0.597   5.942 -1.0876 -0.2562 -0.5090
 5791TIP3   OH238787   1.989   5.142  17.162 -0.0623  0.0376 -0.5666
 5791TIP3    H138788   2.017   5.223  17.206 -2.6786  0.7573  0.0153
 5791TIP3    H238789   1.946   5.173  17.082 -0.8124 -0.7608 -0.4874
 5792TIP3   OH238790   3.969   3.979  11.466 -0.4380 -0.0364  0.1744
 5792TIP3    H138791   4.007   4.061  11.497 -1.9729  0.4923  0.7244
 5792TIP3    H238792   3.941   3.934  11.546 -0.1934 -0.8099 -0.1661
 5793TIP3   OH238793   0.134   2.899  14.101  0.0925  0.4867  0.0571
 5793TIP3    H138794   0.058   2.845  14.083 -1.7210  2.5333  1.0323
 5793TIP3    H238795   0.167   2.925  14.015 -1.6723  1.2757 -0.4299
 5794TIP3   OH238796   4.260   6.646  12.517 -0.3789  0.3473 -0.0864
 5794TIP3    H138797   4.351   6.675  12.523 -0.7429  1.7375 -0.7462
 5794TIP3    H238798   4.244   6.636  12.423 -0.5827 -1.0520  0.0747
 5795TIP3   OH238799   5.159   4.594   2.210  0.5449 -0.4210 -0.0536
 5795TIP3    H138800   5.225   4.645   2.256  1.1695 -0.8851 -0.4237
 5795TIP3    H238801   5.150   4.637   2.125  1.1120 -0.9421 -0.3870
 5796TIP3   OH238802   3.527   5.893   2.231 -0.0526  0.8389  0.6017
 5796TIP3    H138803   3.500   5.898   2.139  2.7676  2.3079 -0.2774
 5796TIP3    H238804   3.448   5.914   2.280 -2.0187 -1.3915 -1.3565
 5797TIP3   OH238805   4.243   4.302   1.685  0.4098 -0.0028  0.1196
 5797TIP3    H138806   4.215   4.325   1.773  0.2090  0.2122  0.0004
 5797TIP3    H238807   4.277   4.384   1.649  0.6774 -0.1348  0.0661
 5798TIP3   OH238808   5.698   3.215   3.978  0.4882  0.8304 -0.5114
 5798TIP3    H138809   5.724   3.264   4.055 -1.2222  0.0956  0.5833
 5798TIP3    H238810   5.686   3.125   4.009 -0.2952  0.5321 -1.6007
 5799TIP3   OH238811   2.815   6.469   1.831  0.4674  0.4758  0.2593
 5799TIP3    H138812   2.807   6.397   1.768  0.4930  0.5174  0.2083
 5799TIP3    H238813   2.791   6.430   1.915  0.1127  0.5025  0.1729
 5800TIP3   OH238814   1.181   3.380   1.182 -0.5565 -0.2604  0.6581
 5800TIP3    H138815   1.211   3.415   1.266  0.1630 -0.2266  0.3957
 5800TIP3    H238816   1.262   3.361   1.134 -0.9458  0.9930 -0.5553
 5801TIP3   OH238817   5.392   0.735   3.176 -0.0722  0.2927 -0.0189
 5801TIP3    H138818   5.485   0.716   3.166 -0.4631 -0.9616 -1.6940
 5801TIP3    H238819   5.381   0.824   3.141  0.4385  0.3090 -0.1404
 5802TIP3   OH238820   6.121   6.031  14.586  0.0683 -0.0552 -0.1241
 5802TIP3    H138821   6.153   6.070  14.668 -0.4963  1.1875 -0.4636
 5802TIP3    H238822   6.183   6.059  14.520  1.0557 -1.8449 -0.0056
 5803TIP3   OH238823   0.455   3.863  11.399 -0.2072 -0.0813  0.0946
 5803TIP3    H138824   0.456   3.958  11.406  3.5702 -0.0206  0.8422
 5803TIP3    H238825   0.470   3.846  11.306  1.2879  0.1564  0.2691
 5804TIP3   OH238826   5.840   2.145   5.457  0.3764  0.1439  0.8388
 5804TIP3    H138827   5.858   2.202   5.383  0.2038  0.2168  0.8516
 5804TIP3    H238828   5.861   2.198   5.534 -0.8385  0.5892  0.8898
 5805TIP3   OH238829   4.304   0.251  11.326  0.0910 -0.0768  0.1166
 5805TIP3    H138830   4.277   0.217  11.241 -1.0668  0.0022  0.4341
 5805TIP3    H238831   4.321   0.173  11.379  0.1010 -0.1267  0.0392
 5806TIP3   OH238832   0.066   3.433   4.430 -0.3012 -0.1437 -0.3418
 5806TIP3    H138833   0.033   3.393   4.349  1.2448  1.1681 -1.7175
 5806TIP3    H238834   0.000   3.498   4.453 -0.4087 -0.0042 -1.0071
 5807TIP3   OH238835   2.316   2.976  11.434  0.6487 -0.1093 -0.0329
 5807TIP3    H138836   2.395   2.926  11.458  0.7810 -0.8761 -1.8260
 5807TIP3    H238837   2.318   2.976  11.338 -0.2308  2.0100 -0.0921
 5808TIP3   OH238838   2.150   2.199  10.613  0.4739 -0.2373 -0.5232
 5808TIP3    H138839   2.129   2.259  10.685 -0.4423 -1.7580  0.5420
 5808TIP3    H238840   2.069   2.194  10.562  0.7359 -0.1131 -0.9526
 5809TIP3   OH238841   4.604   0.754  15.475  0.2486  0.4596  0.2271
 5809TIP3    H138842   4.669   0.684  15.470 -0.5568 -0.2992  0.1371
 5809TIP3    H238843   4.622   0.810  15.399  0.6254  0.1111  0.0601
 5810TIP3   OH238844   4.471   1.747  11.234  0.0841  0.3169 -0.2898
 5810TIP3    H138845   4.555   1.751  11.188  0.9622  1.5125  1.3495
 5810TIP3    H238846   4.440   1.838  11.237 -1.2708 -0.0909 -0.8010
 5811TIP3   OH238847   2.592   6.088   3.186  0.2111 -0.0582  0.2458
 5811TIP3    H138848   2.581   6.016   3.123 -1.0269 -1.0776  1.5596
 5811TIP3    H238849   2.540   6.160   3.149  1.4661  0.1950 -1.0866
 5812TIP3   OH238850   2.019   0.381   4.878 -0.2185  0.4471  0.0382
 5812TIP3    H138851   2.043   0.385   4.785 -2.0728  1.9804 -0.4540
 5812TIP3    H238852   2.049   0.465   4.913 -0.4967  0.3276  0.5637
 5813TIP3   OH238853   6.482   3.539   2.622  0.2481  0.7284  0.5628
 5813TIP3    H138854   6.468   3.472   2.689  0.4077 -0.7207 -0.7865
 5813TIP3    H238855   6.422   3.514   2.551  2.0558  0.5635 -0.9765
 5814TIP3   OH238856   4.744   2.416  16.677  0.4568 -0.2542 -0.3504
 5814TIP3    H138857   4.650   2.396  16.681  0.3804  0.2786  1.2065
 5814TIP3    H238858   4.751   2.504  16.713  1.4511  0.1742 -1.5415
 5815TIP3   OH238859   0.218   4.476   1.336  0.5485 -0.5246  0.6197
 5815TIP3    H138860   0.200   4.420   1.411 -1.0065 -0.5079  0.2855
 5815TIP3    H238861   0.136   4.522   1.320  1.1925  0.3158 -0.3955
 5816TIP3   OH238862   4.900   5.344   4.272  0.2901 -0.2472 -0.2322
 5816TIP3    H138863   4.833   5.331   4.205 -1.2807  1.7465  0.8255
 5816TIP3    H238864   4.946   5.424   4.245  1.8462 -1.2174 -0.5829
 5817TIP3   OH238865   5.164   5.594   3.004 -0.1270 -0.4070 -0.0331
 5817TIP3    H138866   5.214   5.627   3.078  0.2487  1.6427 -1.1170
 5817TIP3    H238867   5.074   5.621   3.022  0.1338  1.0396 -0.7824
 5818TIP3   OH238868   2.615   0.418  12.111 -0.2741 -0.7321 -0.0287
 5818TIP3    H138869   2.519   0.415  12.115 -0.3448  0.2880 -0.6877
 5818TIP3    H238870   2.638   0.507  12.136  0.4136 -0.5975 -1.0614
 5819TIP3   OH238871   6.280   0.796  15.683  0.2415  0.1601  0.0082
 5819TIP3    H138872   6.302   0.809  15.775  0.6100 -1.9340  0.2614
 5819TIP3    H238873   6.364   0.785  15.639  0.0053 -1.1726 -0.1561
 5820TIP3   OH238874   4.986   6.331  14.891  0.2362 -0.0935 -0.2145
 5820TIP3    H138875   4.961   6.281  14.969 -0.8064  1.8963  0.8167
 5820TIP3    H238876   5.039   6.403  14.925 -1.3260  1.5606 -1.1109
 5821TIP3   OH238877   3.394   4.964   1.134 -0.2581 -0.4127  0.7170
 5821TIP3    H138878   3.463   4.904   1.106  0.5438 -0.3671  2.4416
 5821TIP3    H238879   3.318   4.940   1.081  0.0590 -2.9130  1.2517
 5822TIP3   OH238880   5.689   1.415   5.116 -0.1444 -0.7056  0.7542
 5822TIP3    H138881   5.648   1.478   5.056  0.0266 -1.1156  0.1884
 5822TIP3    H238882   5.756   1.373   5.062 -1.4265 -2.6193  0.5600
 5823TIP3   OH238883   2.570   5.134   1.831 -0.6958  0.3509  0.0231
 5823TIP3    H138884   2.629   5.094   1.896 -1.7937  0.2392  0.9976
 5823TIP3    H238885   2.539   5.213   1.874 -0.0146  1.2692 -1.1392
 5824TIP3   OH238886   1.718   5.598   6.230 -0.5215 -0.0673  0.1412
 5824TIP3    H138887   1.749   5.519   6.275 -0.1438  0.1654  0.2953
 5824TIP3    H238888   1.624   5.583   6.217 -0.1479 -1.3274 -1.4418
 5825TIP3   OH238889   6.000   1.672  13.819 -0.9702  0.3031 -0.0971
 5825TIP3    H138890   6.078   1.725  13.801 -2.0545  1.7138 -0.8794
 5825TIP3    H238891   6.003   1.656  13.913 -0.3122  1.3072  0.0645
 5826TIP3   OH238892   0.590   2.297  13.806 -0.1973 -0.1303  0.9141
 5826TIP3    H138893   0.660   2.352  13.771 -1.5965  0.5741 -0.9490
 5826TIP3    H238894   0.629   2.210  13.813  0.3711 -0.2278 -2.0663
 5827TIP3   OH238895   6.350   3.381   5.027 -0.1569  0.1588 -0.1685
 5827TIP3    H138896   6.304   3.312   5.074 -0.8345  1.0501  0.5290
 5827TIP3    H238897   6.284   3.419   4.969 -0.2834  1.3220  0.6970
 5828TIP3   OH238898   4.243   6.764  16.203 -0.6435  0.0276 -0.1981
 5828TIP3    H138899   4.327   6.719  16.201 -1.0003 -1.2210  4.0283
 5828TIP3    H238900   4.178   6.695  16.214 -1.7901  1.1699  0.5946
 5829TIP3   OH238901   4.099   1.406   2.275 -0.1908  0.7194  0.2071
 5829TIP3    H138902   4.120   1.408   2.181  2.3168 -1.0863  0.6224
 5829TIP3    H238903   4.151   1.477   2.313  2.2368 -1.1809  0.6913
 5830TIP3   OH238904   4.064   0.748  14.478  0.7861  0.2138  0.4468
 5830TIP3    H138905   4.014   0.757  14.559  1.2980 -0.2411  0.8214
 5830TIP3    H238906   4.134   0.813  14.486 -0.6262  1.9967 -0.7870
 5831TIP3   OH238907   4.747   3.619  11.897 -0.4498 -0.3360 -0.9691
 5831TIP3    H138908   4.787   3.692  11.849  2.9011 -2.2637 -1.4909
 5831TIP3    H238909   4.756   3.642  11.989  0.9963 -0.1943 -1.1165
 5832TIP3   OH238910   1.990   2.559   1.463  0.3401  0.7075 -0.7130
 5832TIP3    H138911   1.998   2.557   1.558 -1.0890  0.9861 -0.5615
 5832TIP3    H238912   2.027   2.476   1.434  0.5756  0.5197  0.1005
 5833TIP3   OH238913   1.119   1.135  13.897 -0.2383  0.7044  0.2152
 5833TIP3    H138914   1.120   1.197  13.823  2.3145  1.9255  1.1494
 5833TIP3    H238915   1.202   1.088  13.890 -0.3214  0.2678  1.8278
 5834TIP3   OH238916   0.891   4.645  15.658  0.0614  0.0747 -0.1593
 5834TIP3    H138917   0.852   4.623  15.573  0.4194 -1.3364  0.0080
 5834TIP3    H238918   0.974   4.688  15.636 -0.3138  0.6203 -0.5199
 5835TIP3   OH238919   4.090   1.464  14.988  0.4202 -0.3453  0.3079
 5835TIP3    H138920   4.164   1.451  15.047 -0.1314 -0.9001  0.8939
 5835TIP3    H238921   4.062   1.376  14.965 -0.9187 -0.1771  1.1922
 5836TIP3   OH238922   2.772   5.315   4.434 -0.0032  0.1346  0.3480
 5836TIP3    H138923   2.690   5.283   4.396 -0.4881  0.7306  0.8599
 5836TIP3    H238924   2.744   5.381   4.498  0.9436  1.4062 -0.4909
 5837TIP3   OH238925   2.529   3.925  12.507  0.2282  0.4203 -0.2639
 5837TIP3    H138926   2.548   3.897  12.596  3.5171  0.8719 -0.6820
 5837TIP3    H238927   2.534   4.021  12.510  1.5543  0.4129 -1.0706
 5838TIP3   OH238928   4.274   5.580  14.664  0.0363 -0.1877 -0.3831
 5838TIP3    H138929   4.313   5.505  14.708 -0.5911 -0.7647 -0.8047
 5838TIP3    H238930   4.180   5.561  14.660  0.0083  0.0948 -1.4930
 5839TIP3   OH238931   4.103   5.075   0.727 -0.7841 -0.0827  0.3995
 5839TIP3    H138932   4.069   5.156   0.766 -1.4259 -0.0809 -0.1353
 5839TIP3    H238933   4.125   5.099   0.637 -2.3621 -0.8220 -0.2208
 5840TIP3   OH238934   1.420   3.589   0.153  0.0256 -0.0075  0.3776
 5840TIP3    H138935   1.357   3.600   0.224 -0.9016  1.0006 -0.5679
 5840TIP3    H238936   1.443   3.496   0.156 -0.0010  0.0046  1.9712
 5841TIP3   OH238937   6.402   1.846  12.101 -0.2952  0.1049  0.0733
 5841TIP3    H138938   6.427   1.935  12.077  1.6830  0.1802  2.1181
 5841TIP3    H238939   6.380   1.851  12.194 -1.5588 -1.3038 -0.1109
 5842TIP3   OH238940   3.659   4.360  11.864  0.1791  0.1328 -0.1783
 5842TIP3    H138941   3.647   4.455  11.859 -0.9683 -0.0243 -0.4867
 5842TIP3    H238942   3.728   4.349  11.930 -0.0252  1.1588  0.2305
 5843TIP3   OH238943   1.559   2.199   1.736  0.3654 -0.0968  0.3054
 5843TIP3    H138944   1.498   2.240   1.675 -0.2518 -1.0319  0.2752
 5843TIP3    H238945   1.553   2.106   1.718  0.4061 -0.3707  1.5615
 5844TIP3   OH238946   1.236   5.676  15.450  0.4418  0.2836 -0.8621
 5844TIP3    H138947   1.220   5.638  15.364 -0.1360 -1.3929 -0.0506
 5844TIP3    H238948   1.281   5.607  15.498 -1.4232  0.2481  0.9584
 5845TIP3   OH238949   6.065   0.812   6.139  0.5996 -0.1336 -0.2421
 5845TIP3    H138950   6.021   0.727   6.130 -0.2627  0.1694  0.9246
 5845TIP3    H238951   6.038   0.861   6.061 -0.7586 -0.1265  0.2191
 5846TIP3   OH238952   6.427   4.390  12.383 -0.0152 -0.6594  0.1143
 5846TIP3    H138953   6.477   4.310  12.404 -0.7838 -0.6848  2.0520
 5846TIP3    H238954   6.350   4.385  12.439  0.5964  2.1115  1.3821
 5847TIP3   OH238955   0.136   5.746   2.365 -0.4311  0.5127  0.3051
 5847TIP3    H138956   0.228   5.766   2.381  0.2899 -0.8734 -1.6964
 5847TIP3    H238957   0.127   5.747   2.270 -1.9208 -1.5353  0.3396
 5848TIP3   OH238958   4.341   2.438  12.577  0.2761  0.1250 -0.0629
 5848TIP3    H138959   4.396   2.413  12.651 -1.7342 -0.7953  1.2111
 5848TIP3    H238960   4.390   2.506  12.532  2.6453 -0.9978  0.6852
 5849TIP3   OH238961   1.551   0.135  14.595  0.4083 -0.1741  0.4463
 5849TIP3    H138962   1.623   0.089  14.552 -0.3152 -0.8795 -0.0380
 5849TIP3    H238963   1.508   0.069  14.649 -0.5728 -0.0511 -0.1589
 5850TIP3   OH238964   4.819   0.539  15.508  0.3812  0.1330 -0.2108
 5850TIP3    H138965   4.801   0.516  15.417 -0.0918 -1.6151  0.2782
 5850TIP3    H238966   4.793   0.461  15.558  1.6863  0.6161  1.3101
 5851TIP3   OH238967   5.005   1.151   5.676  0.2010  0.7178  0.0161
 5851TIP3    H138968   4.976   1.128   5.587  0.0984  0.0235  0.2236
 5851TIP3    H238969   4.940   1.111   5.734  1.4932 -0.7934  0.4851
 5852TIP3   OH238970   2.583   5.040  13.085 -1.0475  0.6304 -0.2672
 5852TIP3    H138971   2.580   5.123  13.037 -1.7875  1.0601  0.5023
 5852TIP3    H238972   2.506   4.992  13.056 -2.2147  1.4173  1.3682
 5853TIP3   OH238973   3.868   5.085   1.030 -0.2712 -0.1922  0.2489
 5853TIP3    H138974   3.841   5.167   0.989  0.7461 -0.2624 -0.6050
 5853TIP3    H238975   3.964   5.085   1.021 -0.1930 -1.1043  0.9577
 5854TIP3   OH238976   4.064   2.670  16.379  0.2426  0.5301 -0.5273
 5854TIP3    H138977   3.983   2.634  16.415  0.9054  0.5306  1.0570
 5854TIP3    H238978   4.097   2.602  16.320 -0.5694  0.2639 -0.6874
 5855TIP3   OH238979   1.877   2.975  16.760 -0.3318 -0.4787  0.1273
 5855TIP3    H138980   1.893   3.015  16.674  4.0688 -0.9755  0.4622
 5855TIP3    H238981   1.943   3.015  16.817 -3.3735  0.1799  3.5395
 5856TIP3   OH238982   0.384   3.385   4.661  0.1350  0.1239 -0.6583
 5856TIP3    H138983   0.303   3.347   4.626  1.2725 -0.8379 -2.3916
 5856TIP3    H238984   0.383   3.476   4.631 -0.8117  0.4507  0.2985
 5857TIP3   OH238985   0.303   5.519  11.656  0.4353  0.5184 -0.2952
 5857TIP3    H138986   0.390   5.528  11.617 -0.0958  1.5319 -1.3008
 5857TIP3    H238987   0.274   5.609  11.671 -0.8917  0.2381 -1.0378
 5858TIP3   OH238988   5.838   5.127   1.663  0.5232  0.3032 -0.5427
 5858TIP3    H138989   5.866   5.086   1.581  1.3189 -0.6261  0.1619
 5858TIP3    H238990   5.910   5.110   1.724  0.4222  1.9100  0.0630
 5859TIP3   OH238991   5.159   6.736  16.272  0.2682  0.1584  0.6262
 5859TIP3    H138992   5.219   6.663  16.258  1.1949  0.9826  0.1763
 5859TIP3    H238993   5.195   6.807  16.219  0.7389  1.6838  2.8254
 5860TIP3   OH238994   6.530   3.561   0.628  0.4034  0.0568 -0.0152
 5860TIP3    H138995   6.578   3.493   0.581  0.1904  0.5375 -0.9516
 5860TIP3    H238996   6.588   3.587   0.699 -0.4101 -2.6829  1.8268
 5861TIP3   OH238997   1.014   2.107  16.001 -0.4869  0.1636  0.6477
 5861TIP3    H138998   1.020   2.011  15.998  0.2460  0.1842  1.1518
 5861TIP3    H238999   1.097   2.135  16.040 -0.1057  1.0867 -0.7637
 5862TIP3   OH239000   2.224   4.978   1.241  0.6389  0.5303 -0.4282
 5862TIP3    H139001   2.154   4.929   1.284  0.3446 -0.8036 -2.3062
 5862TIP3    H239002   2.178   5.047   1.193  0.8650  1.2732  0.3967
 5863TIP3   OH239003   0.369   4.110  11.707 -0.7012 -0.7223 -0.1188
 5863TIP3    H139004   0.431   4.182  11.696  0.6354 -1.8259 -0.0693
 5863TIP3    H239005   0.413   4.049  11.766 -1.1858 -2.2504 -1.2681
 5864TIP3   OH239006   0.570   5.264   1.133  0.2850 -0.2565  0.7508
 5864TIP3    H139007   0.556   5.261   1.038  0.1317 -0.3796  0.7782
 5864TIP3    H239008   0.491   5.306   1.167  0.7792  0.7337  0.7260
 5865TIP3   OH239009   1.564   0.001  12.321 -0.0036 -0.1872 -0.4928
 5865TIP3    H139010   1.655  -0.013  12.296  0.3597  0.4291  0.4189
 5865TIP3    H239011   1.513  -0.043  12.253  0.9084  1.6763 -2.5100
 5866TIP3   OH239012   4.728   5.144   2.818 -0.3276  0.3101 -0.2260
 5866TIP3    H139013   4.820   5.136   2.842  0.1605  1.2587 -1.6794
 5866TIP3    H239014   4.681   5.103   2.890  1.2564 -0.7606  0.2446
 5867TIP3   OH239015   2.350   2.682   5.201  0.4602  0.6428  0.4260
 5867TIP3    H139016   2.400   2.600   5.202 -0.6440 -0.0756 -0.1892
 5867TIP3    H239017   2.413   2.748   5.174  1.3324 -0.0369  0.7371
 5868TIP3   OH239018   2.481   2.545   4.205 -0.6417  0.6360 -0.1141
 5868TIP3    H139019   2.552   2.591   4.161 -0.7853  1.7519  0.7625
 5868TIP3    H239020   2.484   2.456   4.170  0.9085  0.7806 -0.4028
 5869TIP3   OH239021   0.744   4.378  11.398 -0.0591  0.4368 -0.1289
 5869TIP3    H139022   0.805   4.452  11.396 -0.8222  1.1830  1.6917
 5869TIP3    H239023   0.795   4.306  11.436  0.6610 -0.0005 -1.8275
 5870TIP3   OH239024   0.097   0.104   1.243  0.4031 -0.7045 -0.0617
 5870TIP3    H139025   0.123   0.164   1.313  0.1935 -0.4399 -0.2081
 5870TIP3    H239026   0.119   0.017   1.276 -0.0767 -0.6134  0.5056
 5871TIP3   OH239027   5.463   1.565  15.452  0.3696  0.2750 -0.0755
 5871TIP3    H139028   5.462   1.613  15.535 -0.1352 -1.5422  1.0306
 5871TIP3    H239029   5.371   1.547  15.434  0.5518 -0.3962 -0.3747
 5872TIP3   OH239030   3.430   6.137  11.185  0.2417 -0.3129 -0.5649
 5872TIP3    H139031   3.401   6.089  11.107  1.6185 -0.7785 -0.8219
 5872TIP3    H239032   3.487   6.206  11.151 -0.5559  0.6001 -0.0850
 5873TIP3   OH239033   3.134   1.059  11.630 -0.7087 -0.2091  0.0513
 5873TIP3    H139034   3.124   0.971  11.593 -0.6422 -0.1872 -0.0186
 5873TIP3    H239035   3.227   1.068  11.650 -0.7463 -0.2248  0.2373
 5874TIP3   OH239036   2.554   6.634   0.727  0.1275 -0.0813  0.1953
 5874TIP3    H139037   2.625   6.586   0.769  0.6751  1.2297  0.8216
 5874TIP3    H239038   2.485   6.638   0.793  0.5215  0.9402  0.5590
 5875TIP3   OH239039   2.503   3.377   6.399 -0.0022  0.0802  0.3355
 5875TIP3    H139040   2.510   3.310   6.467  1.4449  2.0996  2.3029
 5875TIP3    H239041   2.413   3.409   6.407  0.2045  0.4348  1.5072
 5876TIP3   OH239042   5.761   0.544  12.701  0.2172  0.1156 -0.0565
 5876TIP3    H139043   5.729   0.458  12.674 -1.2435  0.9532 -1.1859
 5876TIP3    H239044   5.855   0.532  12.713  0.4040 -1.1754 -2.2219
 5877TIP3   OH239045   6.570   6.183  14.689 -0.0275 -0.3535  0.2200
 5877TIP3    H139046   6.656   6.211  14.659  0.0552 -1.9672 -1.1771
 5877TIP3    H239047   6.567   6.089  14.671 -0.8956 -1.0165  3.1556
 5878TIP3   OH239048   0.684   0.424   3.002 -0.7532 -0.8607 -0.5133
 5878TIP3    H139049   0.739   0.501   2.990 -0.8861 -0.5130  0.9301
 5878TIP3    H239050   0.595   0.454   2.983 -0.5627 -1.2153 -2.0422
 5879TIP3   OH239051   6.752   2.960   1.191 -0.2191  0.1089  0.1645
 5879TIP3    H139052   6.765   2.868   1.170 -0.6830  0.1951 -0.5120
 5879TIP3    H239053   6.657   2.970   1.200 -0.1328  0.4028  0.7959
 5880TIP3   OH239054   2.033   5.926  12.953 -0.3839 -0.2975 -0.1752
 5880TIP3    H139055   2.094   5.919  13.027 -0.1772  0.0723 -0.3120
 5880TIP3    H239056   2.037   5.839  12.912 -1.0168 -0.7327  0.6460
 5881TIP3   OH239057   3.905   5.725  15.710  0.5974  0.8152  0.1247
 5881TIP3    H139058   3.945   5.643  15.682 -2.4886 -0.6020 -0.5973
 5881TIP3    H239059   3.854   5.754  15.634  1.1316  3.1166  0.5774
 5882TIP3   OH239060   0.718   5.829  12.712 -0.5603 -0.7503 -0.0171
 5882TIP3    H139061   0.705   5.804  12.803 -1.1720  0.6200  0.3008
 5882TIP3    H239062   0.640   5.796  12.666 -0.0029 -1.9063 -0.1678
 5883TIP3   OH239063   2.763   3.312  14.081 -0.2629 -0.1980  0.2961
 5883TIP3    H139064   2.710   3.310  14.001 -0.1820 -0.9084  0.2474
 5883TIP3    H239065   2.725   3.243  14.136 -1.2118  1.2114  1.4617
 5884TIP3   OH239066   5.915   0.380   2.417 -0.0906 -0.0947  0.2469
 5884TIP3    H139067   5.856   0.347   2.349 -0.4316 -0.4510  0.7110
 5884TIP3    H239068   5.980   0.432   2.369 -0.9200  0.5058 -0.2451
 5885TIP3   OH239069   4.226   6.482  15.478 -0.2633 -0.1129 -0.1380
 5885TIP3    H139070   4.208   6.512  15.389  0.9426  1.4051  0.0678
 5885TIP3    H239071   4.140   6.461  15.515 -0.9776  1.0183 -1.0766
 5886TIP3   OH239072   0.787   3.848  12.065  0.3401 -0.0892  0.3364
 5886TIP3    H139073   0.793   3.941  12.089  0.4136  0.2911 -1.0986
 5886TIP3    H239074   0.875   3.824  12.039  0.0359 -0.1793 -0.6267
 5887TIP3   OH239075   5.384   0.176  13.970  0.1567 -0.2789  0.2194
 5887TIP3    H139076   5.392   0.215  13.883 -2.7460 -1.4706 -0.6769
 5887TIP3    H239077   5.376   0.251  14.029  0.0478  0.5367 -0.8025
 5888TIP3   OH239078   2.681   1.714  12.135  0.5961  0.3333  0.3895
 5888TIP3    H139079   2.770   1.732  12.167  2.2799 -3.5667 -1.3964
 5888TIP3    H239080   2.646   1.651  12.197  0.1590 -0.1689 -0.3550
 5889TIP3   OH239081   6.218   0.060   4.535  0.1613 -0.5049  0.0784
 5889TIP3    H139082   6.177   0.147   4.541 -1.9647 -1.5257  1.4856
 5889TIP3    H239083   6.178   0.020   4.458  0.5570 -0.5355 -0.1141
 5890TIP3   OH239084   5.455   5.167  12.831 -0.3743  0.1854 -0.2222
 5890TIP3    H139085   5.394   5.194  12.900 -1.6664  0.0687 -1.2604
 5890TIP3    H239086   5.398   5.144  12.757  0.9209 -0.5212 -1.0415
 5891TIP3   OH239087   0.841   3.950  11.440  0.1637 -0.6092 -0.2026
 5891TIP3    H139088   0.832   3.869  11.390  0.7298 -0.8624  0.0979
 5891TIP3    H239089   0.911   3.998  11.396 -0.2768 -0.2132 -0.4732
 5892TIP3   OH239090   1.045   3.805   0.235  0.5400  0.3793 -0.1031
 5892TIP3    H139091   1.093   3.880   0.271  0.9986 -0.2491  0.6331
 5892TIP3    H239092   1.059   3.735   0.299 -1.1383  0.0927 -0.0189
 5893TIP3   OH239093   2.362   4.239   4.253 -0.3990 -0.7983  0.0953
 5893TIP3    H139094   2.363   4.305   4.323  1.4108  1.3118 -1.7658
 5893TIP3    H239095   2.450   4.202   4.253  0.0480  0.1396 -1.7807
 5894TIP3   OH239096   2.915   5.408   3.377 -0.2302  0.2354 -0.1076
 5894TIP3    H139097   2.888   5.327   3.334 -2.7712  1.5694 -1.2296
 5894TIP3    H239098   2.921   5.385   3.470 -0.0053 -1.4111 -0.4922
 5895TIP3   OH239099   0.670   4.832  17.286 -0.5412 -0.0987  0.2131
 5895TIP3    H139100   0.588   4.789  17.261  0.6826 -2.6697  0.3267
 5895TIP3    H239101   0.691   4.888  17.212 -0.0109 -3.0851 -2.0887
 5896TIP3   OH239102   2.904   4.315  13.575 -0.4863  0.1801 -0.0123
 5896TIP3    H139103   2.900   4.402  13.614  1.2130 -0.1374  0.9606
 5896TIP3    H239104   2.882   4.255  13.647  0.2845 -0.2947 -0.1627
 5897TIP3   OH239105   3.003   6.745  12.705 -0.0228  0.4626 -0.5560
 5897TIP3    H139106   3.020   6.752  12.611 -0.7042  0.5493 -0.6780
 5897TIP3    H239107   2.921   6.794  12.718  0.3693  0.9376  0.1764
 5898TIP3   OH239108   3.776   3.890   4.853  0.5820  0.4315 -0.0298
 5898TIP3    H139109   3.701   3.868   4.798  1.2650  0.7249 -1.0986
 5898TIP3    H239110   3.743   3.960   4.911  0.1042  0.7549 -0.6768
 5899TIP3   OH239111   3.292   0.489  16.226  0.8642 -0.1499 -0.1051
 5899TIP3    H139112   3.289   0.430  16.151  1.0339 -0.7534  0.3577
 5899TIP3    H239113   3.293   0.431  16.302  0.9257  0.4532  0.3571
 5900TIP3   OH239114   2.280   0.109  11.045 -0.7921  0.1685 -0.0447
 5900TIP3    H139115   2.318   0.066  10.968 -1.2298  0.1323 -0.2498
 5900TIP3    H239116   2.236   0.187  11.010 -0.4446  0.5013  0.2570
 5901TIP3   OH239117   1.209   0.228   2.911  0.1041 -0.0327  0.3016
 5901TIP3    H139118   1.207   0.271   2.996 -0.9833 -0.3708  0.4609
 5901TIP3    H239119   1.119   0.234   2.879  0.5343  0.2784 -0.9283
 5902TIP3   OH239120   6.663   5.765   2.464 -0.1537  0.8945  0.5990
 5902TIP3    H139121   6.671   5.806   2.550  0.2449  0.1593  0.9197
 5902TIP3    H239122   6.704   5.828   2.404 -1.7622  2.1079  0.7044
 5903TIP3   OH239123   5.783   0.695  13.505 -0.7340  0.2616 -0.1771
 5903TIP3    H139124   5.820   0.624  13.557  1.9785  1.4303 -0.3550
 5903TIP3    H239125   5.783   0.770  13.564  1.1885  1.2854 -1.3910
 5904TIP3   OH239126   0.887   5.117   0.180  0.6420  0.1993  0.2310
 5904TIP3    H139127   0.830   5.039   0.184  1.5115 -0.5037 -0.5623
 5904TIP3    H239128   0.876   5.159   0.265  1.0495 -1.4623  1.1500
 5905TIP3   OH239129   5.944   5.378  14.850 -0.4668 -0.4983 -0.1419
 5905TIP3    H139130   6.008   5.357  14.782  1.3547  0.5344  1.1538
 5905TIP3    H239131   5.940   5.474  14.852 -0.4955 -0.4981  1.1397
 5906TIP3   OH239132   4.800   2.356  15.165  0.1991 -0.8321  0.1356
 5906TIP3    H139133   4.730   2.418  15.144  0.3487 -0.6721  0.1082
 5906TIP3    H239134   4.786   2.284  15.105 -0.7265 -1.3991  0.9844
 5907TIP3   OH239135   5.788   0.390   3.042 -0.0265 -0.0331 -0.6038
 5907TIP3    H139136   5.800   0.448   2.966  1.2755  1.0297  0.3523
 5907TIP3    H239137   5.804   0.302   3.008  0.5002  0.4233 -1.5833
 5908TIP3   OH239138   5.369   0.701   6.485 -0.2940 -0.0668  0.7197
 5908TIP3    H139139   5.367   0.789   6.448  0.9808 -0.3351 -0.0383
 5908TIP3    H239140   5.415   0.710   6.568  0.3693 -0.1062  0.3610
 5909TIP3   OH239141   4.148   4.992  15.821 -0.1938  0.6071 -0.2592
 5909TIP3    H139142   4.165   4.934  15.895  0.2902 -1.9759 -2.2431
 5909TIP3    H239143   4.213   5.062  15.830  2.2639 -1.5198 -0.0423
 5910TIP3   OH239144   3.586   1.584   3.762  0.5808  0.0512 -0.2479
 5910TIP3    H139145   3.571   1.490   3.751  1.9956 -0.4358  1.4847
 5910TIP3    H239146   3.580   1.620   3.673 -0.0249 -1.6580 -0.9445
 5911TIP3   OH239147   2.540   6.249  10.567 -0.1415  0.0025  0.1950
 5911TIP3    H139148   2.568   6.332  10.527 -1.7944 -0.7138 -2.6785
 5911TIP3    H239149   2.621   6.198  10.574  0.3315  0.3764 -1.8420
 5912TIP3   OH239150   3.847   5.073  13.413  0.2371 -0.0599  0.0215
 5912TIP3    H139151   3.935   5.037  13.407  0.0461 -0.3874 -0.9360
 5912TIP3    H239152   3.790   4.996  13.419  0.1291  0.1107  3.3563
 5913TIP3   OH239153   2.105   6.016  11.336 -0.5656  0.3310  0.1637
 5913TIP3    H139154   2.058   5.935  11.358  0.9994 -0.8791 -0.7673
 5913TIP3    H239155   2.046   6.063  11.278 -1.2960 -0.3768  0.3182
 5914TIP3   OH239156   4.498   4.295   4.222  0.0574 -0.1089  0.3473
 5914TIP3    H139157   4.493   4.219   4.165  0.8499 -0.5010  0.7781
 5914TIP3    H239158   4.591   4.304   4.242 -0.0696  0.7611  0.5888
 5915TIP3   OH239159   1.590   1.183   4.513 -0.2456 -0.3364 -0.1650
 5915TIP3    H139160   1.591   1.113   4.447  3.2868 -0.9758  0.3729
 5915TIP3    H239161   1.651   1.248   4.479 -1.3289  1.1680  0.7086
 5916TIP3   OH239162   0.127   3.961  15.011 -0.0671  0.0832 -0.1166
 5916TIP3    H139163   0.141   4.026  15.081  1.9010 -0.9561  0.5227
 5916TIP3    H239164   0.152   3.878  15.051 -0.3139 -0.7492 -1.6492
 5917TIP3   OH239165   6.238   1.371  10.704  0.3341 -0.6177  0.4004
 5917TIP3    H139166   6.215   1.310  10.635 -0.8719 -1.5430  1.5676
 5917TIP3    H239167   6.175   1.443  10.695 -1.2147 -1.7388  1.7733
 5918TIP3   OH239168   1.436   0.533   1.373 -0.3031  0.7145  0.3801
 5918TIP3    H139169   1.417   0.602   1.437 -2.5420  0.8265 -0.3222
 5918TIP3    H239170   1.355   0.523   1.323  0.4386 -1.3937 -0.5402
 5919TIP3   OH239171   6.229   2.507  16.027  0.2080 -0.1806 -0.0552
 5919TIP3    H139172   6.198   2.422  15.996  0.7201  0.3534 -2.1556
 5919TIP3    H239173   6.323   2.494  16.041  0.2082 -0.0764  0.0397
 5920TIP3   OH239174   1.992   5.094   5.229  0.3501  0.2468 -0.0510
 5920TIP3    H139175   1.983   5.151   5.153  1.8830 -0.0803 -0.5119
 5920TIP3    H239176   2.051   5.024   5.199  2.0221  0.7856  1.7857
 5921TIP3   OH239177   6.079   4.209   1.966 -0.0275  0.4174  0.0181
 5921TIP3    H139178   6.017   4.220   2.037 -0.4073  1.4155 -0.4488
 5921TIP3    H239179   6.043   4.261   1.894  0.0890 -0.9637 -1.0760
 5922TIP3   OH239180   6.627   4.736   4.762 -0.4715 -0.6405 -0.3036
 5922TIP3    H139181   6.605   4.751   4.670 -1.7016 -2.4636 -0.3807
 5922TIP3    H239182   6.619   4.641   4.773  0.3247 -0.5390  1.5289
 5923TIP3   OH239183   6.303   1.014   0.253  0.4941  0.0737  0.3679
 5923TIP3    H139184   6.348   0.930   0.244 -2.5884 -1.5509 -2.1597
 5923TIP3    H239185   6.355   1.075   0.201  0.8389 -1.2224 -0.8605
 5924TIP3   OH239186   0.558   0.086  12.763 -0.1014  0.0742  0.2115
 5924TIP3    H139187   0.480   0.122  12.720  1.6469  1.3531 -2.1184
 5924TIP3    H239188   0.557   0.124  12.851 -0.0098  3.4476 -1.1174
 5925TIP3   OH239189   1.486   4.438  14.666  0.1974 -0.1731  0.1672
 5925TIP3    H139190   1.579   4.463  14.667  0.1679 -0.0938  1.0305
 5925TIP3    H239191   1.473   4.402  14.578  0.4799  1.8644 -0.7655
 5926TIP3   OH239192   0.207   6.758   4.069 -0.3321 -0.0115  0.1134
 5926TIP3    H139193   0.269   6.829   4.084 -1.3788  0.8771  0.4303
 5926TIP3    H239194   0.250   6.680   4.104  2.1425 -0.1925 -2.9976
 5927TIP3   OH239195   4.339   5.511  14.017  0.6845  0.2832 -0.3765
 5927TIP3    H139196   4.382   5.559  14.088  2.0147  0.3530 -1.1838
 5927TIP3    H239197   4.328   5.575  13.947 -1.5858  0.4790  0.1081
 5928TIP3   OH239198   6.257   3.748  17.012  0.0498 -0.4177  0.1685
 5928TIP3    H139199   6.244   3.771  16.920 -1.6964 -0.8690  0.2573
 5928TIP3    H239200   6.311   3.669  17.010  0.5470 -0.0721 -0.4238
 5929TIP3   OH239201   2.092   4.912  16.926 -0.0183 -0.3304 -0.3172
 5929TIP3    H139202   2.036   4.922  16.849 -1.0125  1.0871  0.5438
 5929TIP3    H239203   2.181   4.929  16.892  0.0131 -2.9056 -1.7476
 5930TIP3   OH239204   1.758   0.531  12.817 -0.2903  0.1555  0.8363
 5930TIP3    H139205   1.806   0.556  12.738 -1.0333  2.2287  0.9707
 5930TIP3    H239206   1.680   0.487  12.783 -0.1382  0.1753  0.4493
 5931TIP3   OH239207   5.814   6.174   2.385  0.0359 -0.6573 -0.7595
 5931TIP3    H139208   5.846   6.150   2.472 -0.1174 -0.5530 -0.6754
 5931TIP3    H239209   5.793   6.267   2.392 -1.4897 -1.0004 -0.4608
 5932TIP3   OH239210   1.065   1.683  11.312  0.7918 -0.3239 -0.1875
 5932TIP3    H139211   1.030   1.759  11.358 -1.3999 -1.4132  0.1071
 5932TIP3    H239212   1.051   1.702  11.219  1.8378  0.3221 -0.2287
 5933TIP3   OH239213   4.860   6.176  12.925  0.4825  0.2527  0.1216
 5933TIP3    H139214   4.891   6.261  12.958 -2.6499  1.0944  1.1850
 5933TIP3    H239215   4.910   6.111  12.975  1.1451  1.4684  1.1041
 5934TIP3   OH239216   1.347   0.507   0.946 -0.3259 -0.6250 -0.4073
 5934TIP3    H139217   1.264   0.461   0.951 -0.0865 -1.1445 -1.0735
 5934TIP3    H239218   1.407   0.444   0.905  0.5451 -0.4765  0.5779
 5935TIP3   OH239219   1.671   5.107   5.646 -0.2830  0.3672 -0.3263
 5935TIP3    H139220   1.759   5.137   5.623 -0.2578 -0.1271 -0.8765
 5935TIP3    H239221   1.667   5.118   5.741  0.1650  0.9453 -0.3670
 5936TIP3   OH239222   5.623   5.489  11.246  0.6024 -0.0658  0.1561
 5936TIP3    H139223   5.569   5.568  11.240  0.4590 -0.2130 -0.6721
 5936TIP3    H239224   5.584   5.428  11.183  1.3997 -0.3797 -0.0518
 5937TIP3   OH239225   5.797   0.764  16.934  0.6012 -0.4295  0.4367
 5937TIP3    H139226   5.823   0.717  17.014 -1.2123  0.8897  1.8991
 5937TIP3    H239227   5.864   0.830  16.922  1.4952 -1.3577  0.1829
 5938TIP3   OH239228   2.977   0.954   5.918  0.0823 -0.1625 -0.5164
 5938TIP3    H139229   2.976   0.862   5.944 -1.7089 -0.5476 -1.8110
 5938TIP3    H239230   2.935   1.000   5.991  0.5703 -0.4062 -0.0722
 5939TIP3   OH239231   6.514   3.058   2.749 -0.1718 -0.5728  0.3161
 5939TIP3    H139232   6.563   2.984   2.786  0.3305 -1.0257 -1.1705
 5939TIP3    H239233   6.466   3.020   2.675 -0.3480  0.4820 -0.1212
 5940TIP3   OH239234   3.097   4.036  12.654  0.1791  0.1905 -0.4339
 5940TIP3    H139235   3.150   4.046  12.733 -0.5014 -0.5944  0.1495
 5940TIP3    H239236   3.145   3.973  12.601 -0.5294 -1.1715  0.4682
 5941TIP3   OH239237   1.327   1.035  15.570  0.4405 -0.3922  0.6535
 5941TIP3    H139238   1.271   1.074  15.503 -1.2511  0.0263  2.2283
 5941TIP3    H239239   1.388   0.979  15.521 -2.9928 -3.0045 -1.1063
 5942TIP3   OH239240   2.426   0.579  14.697  0.3532 -0.2585 -0.2442
 5942TIP3    H139241   2.515   0.601  14.672  0.7668 -2.2426 -0.6996
 5942TIP3    H239242   2.414   0.488  14.667 -2.0912  0.2122 -0.9583
 5943TIP3   OH239243   6.551   3.290  17.186  0.1594 -0.0741  0.3355
 5943TIP3    H139244   6.505   3.259  17.108 -1.3119  1.8222  0.3788
 5943TIP3    H239245   6.539   3.220  17.250 -1.1529 -0.4075 -0.2361
 5944TIP3   OH239246   0.046   6.181   2.556 -0.0883 -0.7984  0.1267
 5944TIP3    H139247  -0.040   6.178   2.515  0.3714 -1.4140 -0.8424
 5944TIP3    H239248   0.028   6.185   2.650 -1.1664 -0.9977 -0.0569
 5945TIP3   OH239249   0.030   4.196   2.486  0.4710 -0.2179  0.1508
 5945TIP3    H139250   0.034   4.221   2.579  1.5005 -0.8145  0.2826
 5945TIP3    H239251   0.050   4.276   2.439 -0.1947  0.1225  0.4457
 5946TIP3   OH239252   0.346   0.341  15.695 -0.4391  0.4578  0.3755
 5946TIP3    H139253   0.441   0.353  15.689 -0.4432  0.0709 -0.6751
 5946TIP3    H239254   0.327   0.268  15.636 -1.5648  1.3923 -0.4574
 5947TIP3   OH239255   4.472   1.521   1.525  0.3965 -0.1028  0.1210
 5947TIP3    H139256   4.486   1.467   1.603  1.5372 -0.6900 -0.4607
 5947TIP3    H239257   4.453   1.608   1.560  0.1346 -0.5144  1.0595
 5948TIP3   OH239258   4.146   4.177   5.684 -0.2837 -1.0792 -0.1796
 5948TIP3    H139259   4.154   4.246   5.750  0.1268  0.2299 -1.5474
 5948TIP3    H239260   4.072   4.124   5.714 -1.0923  0.3914  0.5508
 5949TIP3   OH239261   4.782   4.470  10.933  0.2023  0.0878  0.2563
 5949TIP3    H139262   4.797   4.534  10.863  0.1099  0.5424  0.6505
 5949TIP3    H239263   4.841   4.397  10.911 -0.7235 -0.3126 -0.9620
 5950TIP3   OH239264   2.607   2.433  13.200 -0.0932 -0.1779 -0.3814
 5950TIP3    H139265   2.697   2.402  13.197 -0.8471 -2.5907 -0.7129
 5950TIP3    H239266   2.569   2.389  13.277 -1.4169 -0.6021 -1.2404
 5951TIP3   OH239267   6.646   4.221   5.853  0.3655  0.1355  0.0948
 5951TIP3    H139268   6.636   4.175   5.769 -1.7553 -0.8923  0.8298
 5951TIP3    H239269   6.707   4.167   5.903  1.4903  0.6512 -0.6874
 5952TIP3   OH239270   3.150   2.135  12.317  0.4900  0.7067 -0.0271
 5952TIP3    H139271   3.194   2.215  12.289 -1.6729  1.5298 -1.2972
 5952TIP3    H239272   3.064   2.163  12.348  0.2947 -0.9717  1.1305
 5953TIP3   OH239273   6.617   1.794  13.348 -0.0382  0.3713 -0.8006
 5953TIP3    H139274   6.607   1.806  13.254  0.3301 -0.1753 -0.9142
 5953TIP3    H239275   6.693   1.737  13.357  1.0895  1.8978 -0.1005
 5954TIP3   OH239276   4.368   0.360   3.969  0.3041  0.4390 -0.0125
 5954TIP3    H139277   4.360   0.452   3.943  0.9174  0.2750 -0.8236
 5954TIP3    H239278   4.380   0.313   3.887  1.1719 -0.2324  0.4895
 5955TIP3   OH239279   2.093   5.244  15.621 -0.3743  0.7294 -0.1246
 5955TIP3    H139280   2.143   5.201  15.690 -0.1255  2.0901  0.5782
 5955TIP3    H239281   2.002   5.228  15.644 -0.2797  0.4686  0.0666
 5956TIP3   OH239282   3.157   2.436   4.925 -0.1920 -0.1248 -0.2757
 5956TIP3    H139283   3.221   2.390   4.871 -1.2540  0.0414 -1.7382
 5956TIP3    H239284   3.192   2.525   4.934 -0.2254 -0.0170 -1.1151
 5957TIP3   OH239285   3.184   1.278  14.289 -0.0586 -0.5646  0.0627
 5957TIP3    H139286   3.131   1.301  14.213  0.8695 -0.2803 -0.5120
 5957TIP3    H239287   3.240   1.354  14.303 -0.0789 -0.6968  0.9116
 5958TIP3   OH239288   5.039   2.985   2.809 -0.3091 -0.3127  0.1951
 5958TIP3    H139289   5.011   3.047   2.742 -0.0698  0.6292  0.9380
 5958TIP3    H239290   5.064   3.040   2.883 -0.1210 -1.3086  0.8905
 5959TIP3   OH239291   3.392   4.182  13.232 -0.0387  0.2986  0.1023
 5959TIP3    H139292   3.339   4.222  13.162  0.0292 -0.5282 -0.4358
 5959TIP3    H239293   3.375   4.088  13.224  0.1621  0.1784  1.0529
 5960TIP3   OH239294   1.317   6.374   5.029 -0.0262  0.8542 -0.5089
 5960TIP3    H139295   1.253   6.382   4.958 -1.1875  0.9860  0.5354
 5960TIP3    H239296   1.371   6.453   5.021 -0.8700  1.4421 -0.5564
 5961TIP3   OH239297   1.606   2.483  14.401  0.1509  0.5178 -0.3743
 5961TIP3    H139298   1.685   2.494  14.454  0.1978  0.9238 -0.5229
 5961TIP3    H239299   1.636   2.433  14.325 -0.0374 -0.5680  0.2479
 5962TIP3   OH239300   1.798   1.919  12.850  0.4386 -0.0522 -0.2639
 5962TIP3    H139301   1.813   1.971  12.771 -1.4284  1.7696  0.4694
 5962TIP3    H239302   1.704   1.902  12.850  0.6424 -1.3185  0.8072
 5963TIP3   OH239303   2.464   4.239  13.651  0.0848 -0.0635 -0.9544
 5963TIP3    H139304   2.413   4.304  13.698  0.5455 -1.9410  2.5007
 5963TIP3    H239305   2.551   4.241  13.692  0.4236 -2.1081 -1.4210
 5964TIP3   OH239306   4.197   5.425   2.355 -0.3059  0.5006 -0.3992
 5964TIP3    H139307   4.225   5.344   2.311 -0.3128  1.1009 -1.5426
 5964TIP3    H239308   4.152   5.475   2.287 -1.5314  0.8740  0.6568
 5965TIP3   OH239309   3.079   0.650   4.896  0.0173  0.4938  0.5823
 5965TIP3    H139310   3.028   0.682   4.822 -1.7711  0.6116  1.8040
 5965TIP3    H239311   3.082   0.555   4.885 -0.2668  0.5074  0.3789
 5966TIP3   OH239312   5.979   4.365   4.765  0.1087  0.1751  0.4503
 5966TIP3    H139313   5.991   4.444   4.712  0.3114 -0.9569 -1.2638
 5966TIP3    H239314   6.051   4.308   4.739 -0.6232 -0.9761  0.9084
 5967TIP3   OH239315   4.943   1.802  17.235 -0.1671 -0.0310 -0.0254
 5967TIP3    H139316   4.867   1.859  17.233 -0.0628  0.1045 -0.2206
 5967TIP3    H239317   4.962   1.784  17.143  0.3489  0.3633 -0.0056
 5968TIP3   OH239318   2.684   6.420   5.640 -0.3892  0.3070 -0.1225
 5968TIP3    H139319   2.666   6.411   5.733  1.2740  0.2321  0.2259
 5968TIP3    H239320   2.707   6.332   5.611  3.1375  0.8904  0.3851
 5969TIP3   OH239321   3.304   5.520   3.832  0.2245  0.1487  0.1599
 5969TIP3    H139322   3.346   5.504   3.748 -0.7557 -0.6438 -0.2037
 5969TIP3    H239323   3.216   5.550   3.809  0.0245  0.1389  0.9000
 5970TIP3   OH239324   3.865   3.200   0.373 -0.4747  0.3460 -0.0582
 5970TIP3    H139325   3.836   3.109   0.378  1.5187 -0.4857 -1.9996
 5970TIP3    H239326   3.810   3.239   0.305  0.9891 -0.4807 -1.8065
 5971TIP3   OH239327   1.217   0.903  12.253 -0.2452 -0.5143  0.6724
 5971TIP3    H139328   1.190   0.895  12.162 -1.7746 -4.0526  1.2461
 5971TIP3    H239329   1.134   0.908  12.302  0.5220  0.5652  1.9333
 5972TIP3   OH239330   3.485   0.543   0.756  0.5479 -0.1715 -0.1865
 5972TIP3    H139331   3.498   0.504   0.842  1.5894 -1.0356 -0.7176
 5972TIP3    H239332   3.458   0.633   0.774  0.3061 -0.4726  1.0350
 5973TIP3   OH239333   2.910   0.139  13.403 -0.5052  0.0308 -0.0659
 5973TIP3    H139334   2.838   0.129  13.465 -0.2966 -1.5095 -0.0414
 5973TIP3    H239335   2.943   0.050  13.389  0.4871  0.5387 -1.1585
 5974TIP3   OH239336   3.773   5.375  13.652  0.3925  0.0631 -0.1297
 5974TIP3    H139337   3.814   5.341  13.732 -0.9985  2.2797  1.6693
 5974TIP3    H239338   3.845   5.412  13.602  1.2571 -1.0377  0.2467
 5975TIP3   OH239339   5.134   4.916   1.513 -0.5401 -0.2368 -0.7458
 5975TIP3    H139340   5.195   4.982   1.480 -0.4501 -0.6305 -1.3790
 5975TIP3    H239341   5.190   4.851   1.556 -0.7455  1.0851  1.7425
 5976TIP3   OH239342   4.562   2.159  17.157 -0.0954 -0.6051 -0.0807
 5976TIP3    H139343   4.636   2.219  17.161  0.5143 -1.3148 -0.4239
 5976TIP3    H239344   4.514   2.185  17.078  0.8385 -1.3144 -0.9059
 5977TIP3   OH239345   1.638   4.466  13.783 -0.0485 -0.1697 -0.4954
 5977TIP3    H139346   1.697   4.440  13.712 -1.9733 -0.7468 -1.9450
 5977TIP3    H239347   1.557   4.492  13.739 -1.2480 -0.3640  1.4858
 5978TIP3   OH239348   6.739   0.095  10.782  0.0649 -0.0457 -0.3218
 5978TIP3    H139349   6.730   0.182  10.743 -1.0909  1.2398  2.5351
 5978TIP3    H239350   6.823   0.097  10.826 -0.2846 -0.0959  0.3574
 5979TIP3   OH239351   0.147   3.487   5.554  0.2529 -0.1770  0.2766
 5979TIP3    H139352   0.240   3.502   5.536 -0.2894  0.1889 -2.7514
 5979TIP3    H239353   0.103   3.510   5.472 -2.4403 -1.1761  1.3415
 5980TIP3   OH239354   1.290   2.487  13.199 -0.0127 -0.3153  0.6537
 5980TIP3    H139355   1.326   2.557  13.252 -0.0546 -0.5789  1.0387
 5980TIP3    H239356   1.355   2.473  13.130 -0.4460  0.7346  0.0123
 5981TIP3   OH239357   6.299   1.855  16.460  0.2985 -0.2662  0.2800
 5981TIP3    H139358   6.203   1.851  16.461  0.2770 -0.4511 -0.9545
 5981TIP3    H239359   6.326   1.772  16.499  0.0562  1.4294  4.7164
 5982TIP3   OH239360   5.436   3.628  11.995  0.6086  0.0262 -0.5400
 5982TIP3    H139361   5.422   3.722  11.978  0.5055  0.1632  0.2542
 5982TIP3    H239362   5.530   3.620  12.008  0.4330  0.3409  1.1359
 5983TIP3   OH239363   5.716   1.845   0.412 -0.3946 -0.0466  0.5220
 5983TIP3    H139364   5.810   1.863   0.417 -0.4880  0.4133  0.5959
 5983TIP3    H239365   5.699   1.832   0.318 -0.1879 -0.5229  0.5461
 5984TIP3   OH239366   5.612   1.974  14.492 -0.2614  0.2599  0.4268
 5984TIP3    H139367   5.582   1.969  14.583 -0.3866  0.4584  0.3989
 5984TIP3    H239368   5.557   2.042  14.453 -0.5889 -0.2109  0.0545
 5985TIP3   OH239369   6.707   0.408   5.932  0.0934 -0.3638 -0.0472
 5985TIP3    H139370   6.734   0.457   5.855 -0.0996 -0.6042 -0.2680
 5985TIP3    H239371   6.788   0.374   5.969  0.1935 -0.1798 -0.0984
 5986TIP3   OH239372   3.743   1.348   0.175  0.1736 -0.0768  0.2475
 5986TIP3    H139373   3.669   1.409   0.166 -0.9068 -1.3623  0.0464
 5986TIP3    H239374   3.768   1.328   0.085 -1.3961 -2.1082  0.1830
 5987TIP3   OH239375   5.916   0.930   4.709  0.8958  0.1247 -0.1103
 5987TIP3    H139376   6.005   0.897   4.699  0.7222 -0.7845  1.0864
 5987TIP3    H239377   5.905   0.940   4.803  0.1472  1.4533 -0.3158
 5988TIP3   OH239378   4.265   5.775   0.556 -0.0514  0.0148 -0.0316
 5988TIP3    H139379   4.185   5.739   0.593  0.0441 -1.4665 -1.1699
 5988TIP3    H239380   4.256   5.870   0.566 -1.7761 -0.1375  0.1552
 5989TIP3   OH239381   0.680   1.118  15.942 -0.6691  0.5463  0.3976
 5989TIP3    H139382   0.643   1.056  16.004  1.9460 -1.4341  0.1308
 5989TIP3    H239383   0.629   1.105  15.862  0.6573 -2.4069 -0.1005
 5990TIP3   OH239384   3.867   3.377  16.032  0.7585 -0.3561  0.4530
 5990TIP3    H139385   3.865   3.394  15.938  1.4574 -0.8224  0.3420
 5990TIP3    H239386   3.938   3.313  16.043 -1.2290 -2.6303  0.9251
 5991TIP3   OH239387   2.996   1.463  15.719  0.0813 -0.0869 -0.0896
 5991TIP3    H139388   2.911   1.501  15.737 -0.6302 -0.1749 -2.8240
 5991TIP3    H239389   3.002   1.388  15.778 -1.4821  0.2491  0.5307
 5992TIP3   OH239390   2.189   1.216   0.058  0.6629 -0.0260 -0.3242
 5992TIP3    H139391   2.194   1.152   0.129 -0.9142  0.9975  0.7784
 5992TIP3    H239392   2.263   1.275   0.073 -0.8529  1.4641  1.8552
 5993TIP3   OH239393   0.743   3.181  13.382 -0.2176  0.2781 -0.0843
 5993TIP3    H139394   0.647   3.180  13.377 -0.1919 -1.0904 -1.0299
 5993TIP3    H239395   0.772   3.187  13.291  0.5721 -0.3141  0.1115
 5994TIP3   OH239396   0.951   0.110   4.355  0.3132 -0.2016 -0.0469
 5994TIP3    H139397   0.988   0.094   4.268 -1.1036  0.4344 -0.8150
 5994TIP3    H239398   0.966   0.203   4.372 -0.1738 -0.1237 -0.0101
 5995TIP3   OH239399   0.078   6.036   4.009  0.2837  0.1068  0.1546
 5995TIP3    H139400   0.048   6.035   3.918  1.0977 -0.0667 -0.1233
 5995TIP3    H239401   0.031   6.109   4.049  0.0908  0.3332 -0.4669
 5996TIP3   OH239402   2.281   0.848  15.228  0.4458  0.1392  0.1016
 5996TIP3    H139403   2.271   0.754  15.243  0.0460 -0.0655 -1.3462
 5996TIP3    H239404   2.262   0.860  15.135  1.2515  1.5527  0.0959
 5997TIP3   OH239405   2.737   6.202   4.813 -0.2833 -0.1386 -0.3117
 5997TIP3    H139406   2.714   6.263   4.884  1.0818  0.4302 -0.3132
 5997TIP3    H239407   2.766   6.123   4.858  1.2597  0.4667 -0.1570
 5998TIP3   OH239408   4.700   1.775  16.037 -0.3684  0.2834  0.6367
 5998TIP3    H139409   4.609   1.749  16.053 -0.0327 -1.3321  0.1340
 5998TIP3    H239410   4.707   1.779  15.942  0.0192  0.7057  0.6812
 5999TIP3   OH239411   1.405   5.861   0.643  0.3978  0.2780  0.4248
 5999TIP3    H139412   1.474   5.815   0.594  1.3458  0.7406  1.2692
 5999TIP3    H239413   1.331   5.801   0.642  1.6276 -1.3672  1.5632
 6000TIP3   OH239414   1.595   4.516  15.478 -0.5449 -0.5434  0.6794
 6000TIP3    H139415   1.683   4.483  15.492  0.3976  2.2500  1.9819
 6000TIP3    H239416   1.559   4.525  15.566 -0.8187  1.5591  0.3991
 6001TIP3   OH239417   3.602   2.562  10.722 -0.4771 -0.0136 -0.0212
 6001TIP3    H139418   3.575   2.648  10.691  0.2468 -0.5259 -2.2310
 6001TIP3    H239419   3.525   2.526  10.766 -0.9275  1.5374  0.5192
 6002TIP3   OH239420   2.826   2.903   4.053 -0.2571  0.1695  0.1012
 6002TIP3    H139421   2.879   2.923   4.129 -0.4485  1.0122  0.0185
 6002TIP3    H239422   2.837   2.978   3.994 -0.6000 -0.1828 -0.4293
 6003TIP3   OH239423   6.431   3.757  16.306 -0.2528  1.1063 -0.5357
 6003TIP3    H139424   6.440   3.671  16.265 -2.0932  2.0957 -3.2879
 6003TIP3    H239425   6.504   3.761  16.369 -1.2779 -3.1753  1.2907
 6004TIP3   OH239426   2.535   3.147  15.574 -0.0420  0.4955  0.0194
 6004TIP3    H139427   2.440   3.160  15.586 -0.2362 -1.3194  0.7128
 6004TIP3    H239428   2.551   3.170  15.482 -1.7203 -2.0010 -0.9913
 6005TIP3   OH239429   2.070   2.617  12.310 -0.6561  0.8854  0.2224
 6005TIP3    H139430   2.099   2.526  12.317 -1.4004  0.7406  1.8889
 6005TIP3    H239431   1.993   2.623  12.366 -0.8045  2.4767 -0.0836
 6006TIP3   OH239432   1.838   5.430   4.441 -0.3790 -0.0057 -0.0465
 6006TIP3    H139433   1.807   5.390   4.359 -0.7436 -1.2157  0.6613
 6006TIP3    H239434   1.828   5.361   4.507 -1.4546  1.3808  1.3203
 6007TIP3   OH239435   1.356   0.555  11.705  0.1867  0.4185 -0.5559
 6007TIP3    H139436   1.266   0.580  11.683  0.4098  0.2556 -1.7261
 6007TIP3    H239437   1.388   0.628  11.759 -0.3305  0.9641 -0.9656
 6008TIP3   OH239438   0.306   3.289   1.412  0.4187  0.2640 -0.1629
 6008TIP3    H139439   0.318   3.318   1.322 -0.1674 -0.1987 -0.3976
 6008TIP3    H239440   0.213   3.267   1.418 -0.2634  3.1240  1.3853
 6009TIP3   OH239441   2.811   1.484  14.833  0.4138  0.2650 -0.2410
 6009TIP3    H139442   2.729   1.453  14.871  1.7403 -2.1338  0.9297
 6009TIP3    H239443   2.836   1.559  14.886 -1.6690  1.9606 -1.5370
 6010TIP3   OH239444   6.585   2.660  10.723 -0.4787  0.0432  0.7318
 6010TIP3    H139445   6.610   2.738  10.772 -1.0260  0.7287 -0.0470
 6010TIP3    H239446   6.604   2.587  10.782 -0.9371  0.8234  1.8904
 6011TIP3   OH239447   6.494   0.451   4.261  0.3391  0.2968  0.1714
 6011TIP3    H139448   6.455   0.365   4.272  3.1304 -0.9285  1.3077
 6011TIP3    H239449   6.559   0.440   4.192 -0.3439  1.9371 -0.7958
 6012TIP3   OH239450   1.811   3.896   1.498  0.1489  0.0512  0.2857
 6012TIP3    H139451   1.857   3.828   1.547  2.5825  1.0214 -0.5148
 6012TIP3    H239452   1.808   3.863   1.408 -0.3062  0.2272  0.2321
 6013TIP3   OH239453   0.372   4.849  12.545 -0.3120  0.8220 -0.3045
 6013TIP3    H139454   0.341   4.764  12.576  2.1677  0.0313  0.2794
 6013TIP3    H239455   0.338   4.912  12.608 -1.5217  0.1833 -0.2949
 6014TIP3   OH239456   2.997   1.337  12.128 -0.1467 -0.1826  0.1203
 6014TIP3    H139457   3.046   1.419  12.130 -0.5985  0.1397 -0.9578
 6014TIP3    H239458   2.945   1.338  12.208 -0.2556  0.6529  0.0480
 6015TIP3   OH239459   2.850   6.141   5.826  0.6066 -0.5274  0.0039
 6015TIP3    H139460   2.887   6.226   5.802 -1.2434  0.5330  0.7263
 6015TIP3    H239461   2.850   6.091   5.744  2.4639 -0.1785 -0.2721
 6016TIP3   OH239462   6.398   4.582   2.552 -0.0556  0.1863  0.6722
 6016TIP3    H139463   6.364   4.598   2.465  1.0585 -1.2603 -0.0728
 6016TIP3    H239464   6.435   4.666   2.579  1.6487  0.1281 -1.2307
 6017TIP3   OH239465   4.784   5.423  16.574 -0.0254  0.6233 -0.2228
 6017TIP3    H139466   4.781   5.407  16.668  0.4321  1.2758 -0.0875
 6017TIP3    H239467   4.775   5.518  16.566 -1.5889  0.4567 -0.9265
 6018TIP3   OH239468   5.277   5.955  11.065  0.2691  0.3156 -0.0453
 6018TIP3    H139469   5.189   5.980  11.092  0.5413  0.1739  1.0688
 6018TIP3    H239470   5.275   5.956  10.970  0.1084  3.9832 -0.1505
 6019TIP3   OH239471   2.186   3.419   2.500  0.6200 -0.7452  1.0981
 6019TIP3    H139472   2.149   3.467   2.427  0.3149 -0.5550  1.3794
 6019TIP3    H239473   2.269   3.385   2.467  0.3381 -0.9175  0.5674
 6020TIP3   OH239474   4.846   5.784  11.843 -0.2507 -0.3580 -0.6190
 6020TIP3    H139475   4.754   5.807  11.848 -0.3847 -0.8740 -0.7219
 6020TIP3    H239476   4.856   5.744  11.757 -0.0386 -0.7836 -0.3972
 6021TIP3   OH239477   4.429   1.277   3.624  0.1199  0.5538 -0.0166
 6021TIP3    H139478   4.474   1.341   3.680 -0.4402  0.4589  0.5616
 6021TIP3    H239479   4.351   1.253   3.675  0.1894 -0.3845 -0.3511
 6022TIP3   OH239480   2.931   1.070  13.288 -0.1491 -0.3692  0.3366
 6022TIP3    H139481   2.957   1.005  13.222 -1.0010 -0.0411 -0.3446
 6022TIP3    H239482   2.879   1.134  13.240  1.0883  1.1245  0.8980
 6023TIP3   OH239483   0.744   4.756  12.266 -0.5725  0.3425  0.2646
 6023TIP3    H139484   0.781   4.771  12.179  0.2019  0.6361  0.6332
 6023TIP3    H239485   0.695   4.836  12.285 -1.7458 -0.2123 -0.3921
 6024TIP3   OH239486   4.208   5.639   1.166  0.4379 -0.1425  0.1948
 6024TIP3    H139487   4.233   5.680   1.084 -0.9062  0.0388 -0.1458
 6024TIP3    H239488   4.133   5.583   1.143 -0.4520  0.4978  1.3998
 6025TIP3   OH239489   4.048   5.678   2.246 -0.6104  0.2444 -0.0906
 6025TIP3    H139490   3.998   5.746   2.292 -1.3457 -1.1782  1.3049
 6025TIP3    H239491   3.985   5.607   2.233  0.4924 -0.7253 -0.2625
 6026TIP3   OH239492   4.599   3.828   1.241 -0.1585  0.5924  0.3828
 6026TIP3    H139493   4.588   3.896   1.307 -0.2957  1.6015 -0.6448
 6026TIP3    H239494   4.513   3.786   1.235  0.5615 -1.4714  2.8552
 6027TIP3   OH239495   6.351   3.580   1.750  0.2702  0.2716  0.6770
 6027TIP3    H139496   6.278   3.616   1.700  0.6413 -0.0999 -0.1573
 6027TIP3    H239497   6.329   3.487   1.760  2.8537 -1.1771 -4.0239
 6028TIP3   OH239498   3.268   3.947   5.066  0.4463 -0.5085  0.4176
 6028TIP3    H139499   3.275   4.041   5.084  1.8340 -0.3788 -0.6231
 6028TIP3    H239500   3.295   3.905   5.147 -0.2391 -0.0071  0.9094
 6029TIP3   OH239501   5.331   5.408  14.499 -0.0568  0.2823 -0.3472
 6029TIP3    H139502   5.312   5.406  14.406 -0.0191  1.7881 -0.4122
 6029TIP3    H239503   5.276   5.339  14.537 -1.4213  0.8499 -1.2455
 6030TIP3   OH239504   3.501   0.470   1.029 -0.4301 -0.0577  0.3821
 6030TIP3    H139505   3.445   0.399   0.998  1.2670 -0.4146 -2.2651
 6030TIP3    H239506   3.556   0.430   1.096  1.0145 -1.5864 -1.5758
 6031TIP3   OH239507   5.386   1.287   1.740  0.5395 -0.1417  0.3983
 6031TIP3    H139508   5.412   1.248   1.656 -0.0062 -2.1936  1.1248
 6031TIP3    H239509   5.293   1.307   1.728  0.6435  0.2691  0.2689
 6032TIP3   OH239510   1.959   1.332   3.969  0.3334 -0.1138  0.1270
 6032TIP3    H139511   1.973   1.279   4.047 -1.1067 -0.1030  0.4075
 6032TIP3    H239512   2.047   1.364   3.946  0.6032  1.3725  2.7906
 6033TIP3   OH239513   4.534   5.766  17.048  0.3548  0.9832  0.6244
 6033TIP3    H139514   4.545   5.686  16.997 -1.6669  0.5491  0.8075
 6033TIP3    H239515   4.576   5.834  16.995 -1.0925  0.4325 -1.3363
 6034TIP3   OH239516   3.430   4.681  17.286  0.0015 -0.6065 -0.0476
 6034TIP3    H139517   3.465   4.770  17.278  0.2747 -0.5932  1.0974
 6034TIP3    H239518   3.341   4.687  17.251 -1.1242  0.8743  2.7721
 6035TIP3   OH239519   3.899   4.118  14.914 -0.0188  0.5429  0.3346
 6035TIP3    H139520   3.893   4.044  14.854  1.3164  0.5930  0.1129
 6035TIP3    H239521   3.878   4.194  14.860 -1.0369  0.3892  0.4812
 6036TIP3   OH239522   2.195   2.051   1.409 -0.0288  0.6149 -0.1648
 6036TIP3    H139523   2.202   2.134   1.361  0.8679  1.1875  0.8987
 6036TIP3    H239524   2.102   2.044   1.432 -0.0730  1.4396 -0.0742
 6037TIP3   OH239525   1.525   1.022  13.363 -0.7689  0.5730  0.2851
 6037TIP3    H139526   1.435   1.055  13.361 -1.0955 -0.2836 -1.6777
 6037TIP3    H239527   1.535   0.974  13.280  1.3373  0.2133  0.6864
 6038TIP3   OH239528   4.422   4.841  16.831 -0.0535  0.6123  0.0160
 6038TIP3    H139529   4.349   4.823  16.772 -0.2693  1.2625  0.0749
 6038TIP3    H239530   4.465   4.756  16.843 -0.7711  0.2353 -0.0479
 6039TIP3   OH239531   1.468   6.203   0.150  0.3134  0.1046 -0.2269
 6039TIP3    H139532   1.390   6.257   0.135  0.3929  0.4834  0.6896
 6039TIP3    H239533   1.435   6.114   0.163 -0.2150  0.6123  2.4866
 6040TIP3   OH239534   5.421   1.179  11.873  0.6064 -0.0566 -0.4328
 6040TIP3    H139535   5.441   1.272  11.884  0.6120 -0.3015  2.1545
 6040TIP3    H239536   5.409   1.168  11.778  0.7508  2.5222 -0.8153
 6041TIP3   OH239537   6.319   2.135   5.284  0.2719 -0.9077  0.1109
 6041TIP3    H139538   6.361   2.188   5.215 -0.1098  1.6719  1.7152
 6041TIP3    H239539   6.378   2.142   5.358 -0.6810 -1.2480  0.9199
 6042TIP3   OH239540   1.006   2.669  11.626  0.4230 -0.2994  0.1757
 6042TIP3    H139541   0.999   2.574  11.622  0.9882 -0.3240 -0.4973
 6042TIP3    H239542   1.042   2.694  11.541 -1.0767  0.6521 -0.2135
 6043TIP3   OH239543   3.902   5.087  16.890 -0.1818 -0.9845  0.4345
 6043TIP3    H139544   3.809   5.088  16.865 -0.2718  1.3473  0.6904
 6043TIP3    H239545   3.945   5.039  16.820 -1.3384 -0.4236 -0.7062
 6044TIP3   OH239546   4.883   2.360  12.104  0.3347 -0.1646  0.1515
 6044TIP3    H139547   4.795   2.353  12.065  0.4353  0.7422 -0.2491
 6044TIP3    H239548   4.872   2.328  12.193 -0.3645 -0.2520  0.0412
 6045TIP3   OH239549   4.713   2.453  12.532  0.6773 -0.9720 -0.1235
 6045TIP3    H139550   4.751   2.425  12.616  1.8143 -1.1047 -0.6616
 6045TIP3    H239551   4.662   2.531  12.553 -1.7732 -2.8283  1.2586
 6046TIP3   OH239552   5.810   5.670  13.376  0.0388 -0.0964 -0.1088
 6046TIP3    H139553   5.882   5.732  13.365 -0.8261  1.3329  1.7786
 6046TIP3    H239554   5.743   5.698  13.313  0.5052 -0.5239 -0.8175
 6047TIP3   OH239555   6.645   2.775  16.815  0.2580  0.0596 -0.4877
 6047TIP3    H139556   6.605   2.785  16.728 -2.1737 -1.0946  0.4114
 6047TIP3    H239557   6.643   2.862  16.853  0.6507  0.4336 -1.3023
 6048TIP3   OH239558   0.045   0.898   3.577  0.3539 -0.2086 -0.4891
 6048TIP3    H139559  -0.020   0.828   3.581  0.5042 -0.3200  0.2560
 6048TIP3    H239560   0.091   0.885   3.494  0.5095 -1.1157 -0.2732
 6049TIP3   OH239561   5.881   1.704  17.127  0.0141 -0.5573  0.2509
 6049TIP3    H139562   5.946   1.641  17.158  0.5528 -0.7152 -1.1268
 6049TIP3    H239563   5.828   1.655  17.063  0.3717  0.3254 -0.7596
 6050TIP3   OH239564   6.479   2.703  11.972  0.2978  0.0034 -0.1631
 6050TIP3    H139565   6.477   2.726  11.879  1.5118  0.4312 -0.1032
 6050TIP3    H239566   6.459   2.609  11.974 -2.8347  0.5586 -0.5567
 6051TIP3   OH239567   5.248   6.562   3.093 -0.0362  0.0352  0.1591
 6051TIP3    H139568   5.296   6.609   3.024 -3.1524  2.3947 -0.6440
 6051TIP3    H239569   5.180   6.514   3.046  0.2629 -1.6419  1.3669
 6052TIP3   OH239570   2.345   2.419   2.321 -0.4415  0.0371  0.2211
 6052TIP3    H139571   2.370   2.504   2.285 -0.3293 -0.3698 -0.6899
 6052TIP3    H239572   2.412   2.359   2.288 -0.5885 -0.4272  0.7583
 6053TIP3   OH239573   5.827   4.331   4.084  0.4339  0.5952 -0.5515
 6053TIP3    H139574   5.867   4.297   4.004 -1.2877  0.1543 -1.2701
 6053TIP3    H239575   5.853   4.423   4.086 -0.4507  0.9210 -2.2772
 6054TIP3   OH239576   6.447   2.371  16.766 -0.2262 -0.0724 -0.2594
 6054TIP3    H139577   6.528   2.414  16.793 -0.8367  0.4113  0.8639
 6054TIP3    H239578   6.475   2.283  16.739  0.8304  0.5011 -1.1722
 6055TIP3   OH239579   3.779   4.704  14.188  0.7019 -0.6690 -0.1528
 6055TIP3    H139580   3.713   4.736  14.249  0.8513 -0.8690  0.1201
 6055TIP3    H239581   3.826   4.637  14.238 -0.2498 -2.0312 -1.0242
 6056TIP3   OH239582   6.647   5.183  13.310 -0.2374 -0.1088  0.0529
 6056TIP3    H139583   6.733   5.183  13.269 -0.1252 -0.1420  0.2886
 6056TIP3    H239584   6.663   5.203  13.402 -0.2262 -2.2359  0.5839
 6057TIP3   OH239585   5.411   0.211  16.559  0.2770  0.1439  0.6110
 6057TIP3    H139586   5.458   0.255  16.487 -0.1354  1.8703  1.3363
 6057TIP3    H239587   5.465   0.227  16.636  0.1131 -0.6632  0.8980
 6058TIP3   OH239588   1.392   1.250   1.713 -0.4005  0.3927 -0.2672
 6058TIP3    H139589   1.418   1.188   1.645 -0.9414 -0.4012  0.2351
 6058TIP3    H239590   1.467   1.254   1.772 -0.1207  0.7149 -0.6333
 6059TIP3   OH239591   1.255   3.414  16.894  0.4813 -1.0900 -0.3198
 6059TIP3    H139592   1.337   3.426  16.846  1.3411  0.1052  1.3630
 6059TIP3    H239593   1.281   3.409  16.985 -1.3974 -0.0077  0.3241
 6060TIP3   OH239594   3.241   0.658  16.684  0.5561  0.1143 -0.3607
 6060TIP3    H139595   3.237   0.656  16.588  1.1826 -0.6249 -0.3822
 6060TIP3    H239596   3.318   0.712  16.703  1.1004 -0.6758 -0.3003
 6061TIP3   OH239597   4.693   0.188   3.266  0.0568  0.2119 -0.4264
 6061TIP3    H139598   4.637   0.151   3.198 -0.5973  0.7123 -0.1736
 6061TIP3    H239599   4.722   0.272   3.231 -2.4135  1.7334  0.9012
 6062TIP3   OH239600   5.337   6.653  17.358 -0.1034 -0.2222 -0.6504
 6062TIP3    H139601   5.356   6.566  17.324  1.0664 -0.2760  0.0811
 6062TIP3    H239602   5.257   6.680  17.313 -0.3303 -1.5576 -1.0833
 6063TIP3   OH239603   2.207   4.788  11.661  0.8658  0.1964  0.7198
 6063TIP3    H139604   2.176   4.699  11.643 -0.4649  0.5284  1.2078
 6063TIP3    H239605   2.223   4.790  11.756  0.5664  0.5589  0.7688
 6064TIP3   OH239606   4.820   1.306   4.003  0.3520  0.1263 -0.5658
 6064TIP3    H139607   4.741   1.264   3.970 -0.0031  1.4496 -1.4863
 6064TIP3    H239608   4.805   1.313   4.098 -1.4821  1.9407 -0.9082
 6065TIP3   OH239609   2.005   0.455   0.226 -0.8602 -0.2123 -0.1306
 6065TIP3    H139610   1.972   0.539   0.194 -0.2996  0.0551 -0.0316
 6065TIP3    H239611   1.981   0.392   0.159 -0.9910  0.0896 -0.3691
 6066TIP3   OH239612   2.788   5.193  14.606  0.4572  0.0410 -0.0126
 6066TIP3    H139613   2.807   5.100  14.601 -3.0142 -0.8035 -0.0586
 6066TIP3    H239614   2.767   5.219  14.516 -2.6982 -0.2999  0.4958
 6067TIP3   OH239615   4.075   5.129  15.218  0.3935 -0.1503  0.2848
 6067TIP3    H139616   4.031   5.126  15.134  2.2536 -1.2446 -0.7282
 6067TIP3    H239617   4.152   5.073  15.207  1.0644  0.2137  2.5004
 6068TIP3   OH239618   2.335   6.492   4.815  0.8281 -0.1965  0.0708
 6068TIP3    H139619   2.344   6.521   4.724 -0.0836  1.2624  0.4313
 6068TIP3    H239620   2.267   6.424   4.812 -0.3177  0.9322 -0.1329
 6069TIP3   OH239621   6.075   0.352  13.841  0.0491 -0.4013  0.0878
 6069TIP3    H139622   6.007   0.300  13.883 -1.9842  0.2927 -2.1568
 6069TIP3    H239623   6.083   0.315  13.753  2.4110 -0.2588  0.1801
 6070TIP3   OH239624   2.514   6.600  12.055  0.7679 -0.1070  0.0700
 6070TIP3    H139625   2.499   6.600  11.960  1.0020  0.2274  0.0323
 6070TIP3    H239626   2.588   6.659  12.068 -0.0046  0.7621  0.5831
 6071TIP3   OH239627   1.089   3.750  11.650 -0.4303  0.2246 -0.1943
 6071TIP3    H139628   1.043   3.830  11.677 -0.3126  0.3066 -0.2364
 6071TIP3    H239629   1.054   3.731  11.563  1.7989  2.0119 -1.5959
 6072TIP3   OH239630   5.782   3.900   3.950  0.3120 -0.0830  0.3376
 6072TIP3    H139631   5.871   3.917   3.980  0.5542  2.6279 -1.4898
 6072TIP3    H239632   5.792   3.841   3.876  0.3313 -1.3485  1.3026
 6073TIP3   OH239633   5.193   6.055  11.484  0.1256 -0.1657  0.3569
 6073TIP3    H139634   5.266   6.078  11.541  2.6860  2.9062 -3.5723
 6073TIP3    H239635   5.153   6.139  11.461 -1.3154 -1.2909 -1.5830
 6074TIP3   OH239636   2.567   4.745  12.011  0.0977 -0.0863 -0.0558
 6074TIP3    H139637   2.612   4.684  12.069  1.5363 -0.1245 -1.1393
 6074TIP3    H239638   2.621   4.746  11.932 -2.2452 -0.7139 -1.7662
 6075TIP3   OH239639   3.886   0.888  16.219 -0.3769 -0.3613 -0.4707
 6075TIP3    H139640   3.959   0.926  16.267 -0.8664  1.5153 -1.1307
 6075TIP3    H239641   3.824   0.863  16.287 -1.0933  2.3274 -0.0022
 6076TIP3   OH239642   2.857   2.713  12.743 -0.0026 -0.3316  0.5956
 6076TIP3    H139643   2.881   2.663  12.821  0.8205  0.2668  0.7343
 6076TIP3    H239644   2.809   2.789  12.777 -0.2493 -0.4317  0.4713
 6077TIP3   OH239645   3.159   1.979  13.809 -0.5473 -0.6798  0.2388
 6077TIP3    H139646   3.158   1.892  13.850 -1.6361 -0.0574  1.6451
 6077TIP3    H239647   3.169   2.039  13.883 -0.4593  0.4170 -0.6526
 6078TIP3   OH239648   3.656   3.216   1.441  0.7967  0.7938  0.3903
 6078TIP3    H139649   3.580   3.268   1.417  1.4581  2.5715  1.8821
 6078TIP3    H239650   3.625   3.158   1.510  0.2678 -0.1964 -0.6519
 6079TIP3   OH239651   1.028   1.745  15.467 -0.0522  0.1553 -0.7280
 6079TIP3    H139652   0.998   1.829  15.501 -0.3312  0.2315 -1.1483
 6079TIP3    H239653   1.120   1.759  15.443 -0.0030  0.2441 -0.4817
 6080TIP3   OH239654   3.537   1.960   2.633 -0.2074 -0.6065 -0.6016
 6080TIP3    H139655   3.487   1.915   2.565 -2.9494 -1.2526  1.6460
 6080TIP3    H239656   3.555   1.892   2.698  0.6990  0.3596  0.1883
 6081TIP3   OH239657   0.638   6.760   2.234 -0.2784 -0.0445 -0.1046
 6081TIP3    H139658   0.709   6.793   2.289  1.1487 -1.6146 -0.9116
 6081TIP3    H239659   0.651   6.804   2.150  0.9859 -1.7418 -0.8536
 6082TIP3   OH239660   4.283   0.258   5.513  0.2908 -0.3102 -0.1002
 6082TIP3    H139661   4.332   0.241   5.433  1.3942  1.2166  0.2178
 6082TIP3    H239662   4.347   0.251   5.583 -0.5898 -1.2776  0.6390
 6083TIP3   OH239663   1.112   3.753  11.357  0.1949  0.1376  0.2248
 6083TIP3    H139664   1.034   3.781  11.308 -0.7512 -1.9028  0.4453
 6083TIP3    H239665   1.156   3.835  11.381 -2.8371  1.5076  1.6578
 6084TIP3   OH239666   3.507   5.134   5.433 -0.1837  0.1191 -0.4975
 6084TIP3    H139667   3.515   5.190   5.510 -2.1324  0.1170 -0.2481
 6084TIP3    H239668   3.492   5.194   5.360 -2.8861 -0.0175 -0.1388
 6085TIP3   OH239669   5.853   0.092  16.403  0.3693 -0.1071 -0.5558
 6085TIP3    H139670   5.812   0.010  16.430 -1.8993  0.9414 -0.5386
 6085TIP3    H239671   5.781   0.156  16.405  2.2558  2.1081  0.3710
 6086TIP3   OH239672   1.852   4.016  11.606  0.2371 -0.2800 -0.2923
 6086TIP3    H139673   1.938   3.988  11.637  0.0184 -0.5637  0.0758
 6086TIP3    H239674   1.814   3.938  11.566 -0.6684 -0.7635  1.3893
 6087TIP3   OH239675   6.381   3.417  14.616 -0.1020  0.2784  0.0977
 6087TIP3    H139676   6.347   3.391  14.702  0.0844  0.3085  0.1798
 6087TIP3    H239677   6.327   3.368  14.553 -0.5566  0.6140  0.2142
 6088TIP3   OH239678   3.191   5.220   5.719  0.2016 -0.1910 -0.6069
 6088TIP3    H139679   3.121   5.188   5.662  1.5258 -0.3647 -2.2103
 6088TIP3    H239680   3.234   5.140   5.751  1.3092 -0.1102 -1.7970
 6089TIP3   OH239681   4.982   0.302  15.664 -0.6347 -0.5164 -0.0093
 6089TIP3    H139682   4.921   0.247  15.711 -2.1378  2.1527  1.3894
 6089TIP3    H239683   4.998   0.376  15.723  2.8980 -0.3818 -0.8996
 6090TIP3   OH239684   4.813   3.189  15.477  0.4014 -0.2235 -0.9576
 6090TIP3    H139685   4.726   3.171  15.441  0.5082 -1.0571 -0.8381
 6090TIP3    H239686   4.797   3.255  15.544  0.0227  0.4249 -1.6760
 6091TIP3   OH239687   2.329   1.667  15.370  0.8635  0.5722  0.0423
 6091TIP3    H139688   2.255   1.652  15.311  0.7030  2.0187 -0.1602
 6091TIP3    H239689   2.293   1.719  15.441  1.3747  0.0452  0.6949
 6092TIP3   OH239690   6.375   4.079   1.109 -0.0662  0.2089  0.5428
 6092TIP3    H139691   6.297   4.135   1.117 -0.7382 -0.4886 -0.8650
 6092TIP3    H239692   6.355   4.002   1.163  0.3636  0.7573  1.5160
 6093TIP3   OH239693   3.145   1.860   0.362 -0.2528  0.0259  0.4791
 6093TIP3    H139694   3.130   1.861   0.456 -1.2346  1.6544  0.3335
 6093TIP3    H239695   3.180   1.947   0.342 -0.9245  0.0395 -0.7695
 6094TIP3   OH239696   2.605   2.504   0.603 -0.1321  0.2545  0.4925
 6094TIP3    H139697   2.668   2.521   0.533  0.5531 -0.7758  0.8433
 6094TIP3    H239698   2.551   2.433   0.571 -1.4062  1.3870  0.0332
 6095TIP3   OH239699   0.296   5.365  12.818 -0.2385 -0.2795  0.0636
 6095TIP3    H139700   0.375   5.417  12.806  0.9506 -1.9100  0.4750
 6095TIP3    H239701   0.311   5.318  12.900 -1.5037 -0.8740 -0.0269
 6096TIP3   OH239702   0.082   5.099  12.134 -0.0724 -0.4133 -0.5991
 6096TIP3    H139703   0.080   5.055  12.219 -0.2110  2.5887  1.1287
 6096TIP3    H239704  -0.009   5.121  12.117 -0.0281 -0.8881 -1.5013
 6097TIP3   OH239705   3.198   6.258   1.082 -0.0800  0.9882 -0.0938
 6097TIP3    H139706   3.213   6.336   1.028 -3.0911  0.4078 -2.0027
 6097TIP3    H239707   3.168   6.191   1.020 -1.4110 -0.4620  1.9832
 6098TIP3   OH239708   2.062   3.489  12.783 -0.3161 -0.8912 -0.3762
 6098TIP3    H139709   1.976   3.518  12.813  0.2522  0.0778  0.3600
 6098TIP3    H239710   2.089   3.555  12.720  0.9337  0.1960  1.2188
 6099TIP3   OH239711   3.784   2.019  12.934  0.4355  0.5033 -0.4473
 6099TIP3    H139712   3.845   1.968  12.881 -0.8525  0.6962 -2.1923
 6099TIP3    H239713   3.701   1.970  12.928  0.2467  0.5388  1.4104
 6100TIP3   OH239714   6.706   3.271   3.500  0.2057  0.5736 -0.0125
 6100TIP3    H139715   6.668   3.358   3.490  0.7612  1.0228  1.4813
 6100TIP3    H239716   6.790   3.286   3.544  2.7342 -0.2422 -3.9698
 6101TIP3   OH239717   0.121   2.889   4.262  0.2611  0.1363  0.0659
 6101TIP3    H139718   0.132   2.808   4.212 -0.9244  1.2688 -2.2157
 6101TIP3    H239719   0.143   2.959   4.201 -0.9349  1.6166  1.2167
 6102TIP3   OH239720   4.072   4.748   2.472 -0.3437 -0.3290 -0.1592
 6102TIP3    H139721   4.118   4.826   2.503 -1.5565  0.6953 -0.8576
 6102TIP3    H239722   3.987   4.751   2.516 -1.2578 -0.0219 -1.8729
 6103TIP3   OH239723   6.103   5.680   1.666  0.4531  0.4556 -0.7899
 6103TIP3    H139724   6.062   5.726   1.593 -2.3640 -0.9809 -0.2472
 6103TIP3    H239725   6.171   5.627   1.626  0.0487  0.9257 -2.1520
 6104TIP3   OH239726   4.536   1.968  15.044  0.4825  0.5419  0.4164
 6104TIP3    H139727   4.479   1.915  14.989  1.1011  1.9791 -1.7566
 6104TIP3    H239728   4.477   2.014  15.104 -0.6779  1.5963 -1.4340
 6105TIP3   OH239729   4.869   2.972  10.977  0.0335 -0.3604  0.0892
 6105TIP3    H139730   4.839   3.007  10.893 -1.0414  1.7437  1.2535
 6105TIP3    H239731   4.830   2.885  10.983  0.6443 -0.8048 -1.8204
 6106TIP3   OH239732   2.130   4.895   5.109  0.8804  0.0405 -0.2959
 6106TIP3    H139733   2.209   4.883   5.058  1.7564  2.5568  0.3239
 6106TIP3    H239734   2.140   4.835   5.183  2.0351  0.0556 -0.4229
 6107TIP3   OH239735   6.355   6.733   3.554 -0.0758  0.0154  0.0766
 6107TIP3    H139736   6.375   6.740   3.461 -1.9530 -0.7819 -0.4456
 6107TIP3    H239737   6.368   6.641   3.575  0.0880  0.1404  0.5324
 6108TIP3   OH239738   4.300   3.021   2.940 -0.1203  0.1227  0.0865
 6108TIP3    H139739   4.220   3.069   2.917  0.7323  1.4079 -0.2924
 6108TIP3    H239740   4.329   3.060   3.022 -1.6931 -2.6562  2.1250
 6109TIP3   OH239741   2.205   5.191   0.057 -0.0805 -0.0558 -1.3119
 6109TIP3    H139742   2.291   5.169   0.095 -1.4424 -2.7554  0.5893
 6109TIP3    H239743   2.191   5.124  -0.010 -0.8545  0.0699 -1.2823
 6110TIP3   OH239744   4.699   2.162   5.648 -0.3571  0.0042 -0.1106
 6110TIP3    H139745   4.621   2.217   5.652  0.8163  1.8280 -1.0787
 6110TIP3    H239746   4.679   2.098   5.579 -1.3960 -0.2702  0.4150
 6111TIP3   OH239747   6.612   1.889  10.666  0.0903  0.2994 -0.1772
 6111TIP3    H139748   6.612   1.793  10.665 -1.2307  0.2842 -0.7484
 6111TIP3    H239749   6.681   1.912  10.728  1.0973 -1.0025 -0.7437
 6112TIP3   OH239750   6.706   0.178  11.956  0.2150 -0.2604 -0.5887
 6112TIP3    H139751   6.736   0.087  11.952  2.0961  0.1635  1.6281
 6112TIP3    H239752   6.785   0.229  11.939 -0.3167  0.9482  0.4563
 6113TIP3   OH239753   5.323   2.020   6.354  0.2389 -0.0540 -0.3186
 6113TIP3    H139754   5.380   2.096   6.341 -0.5950  0.8655  1.1459
 6113TIP3    H239755   5.241   2.043   6.311 -0.6700  0.7233  1.7358
 6114TIP3   OH239756   0.691   3.726  15.008  0.5224  0.5716 -0.6341
 6114TIP3    H139757   0.731   3.659  15.063 -1.2204 -1.0198 -1.1676
 6114TIP3    H239758   0.720   3.705  14.919 -1.1050 -0.4403 -0.9919
 6115TIP3   OH239759   1.689   2.302  17.303 -0.4652 -0.2079  0.3102
 6115TIP3    H139760   1.730   2.317  17.388 -2.0165  0.8331  0.9094
 6115TIP3    H239761   1.656   2.213  17.308 -0.1400 -0.3169  0.6053
 6116TIP3   OH239762   6.584   1.553  12.039  0.2882  0.3897  0.4196
 6116TIP3    H139763   6.529   1.574  11.964  1.7054  2.1993 -0.2115
 6116TIP3    H239764   6.629   1.472  12.015  0.5911  0.8568 -0.6333
 6117TIP3   OH239765   2.767   2.268  16.931 -0.3864 -0.0089 -0.0083
 6117TIP3    H139766   2.703   2.265  17.002 -1.3743  0.8750 -0.8301
 6117TIP3    H239767   2.718   2.244  16.853  0.5797 -0.5134 -0.4689
 6118TIP3   OH239768   4.876   4.092  13.871  0.3741 -0.2735 -0.3039
 6118TIP3    H139769   4.845   4.070  13.783  1.2962  0.5804 -0.8605
 6118TIP3    H239770   4.807   4.147  13.907  0.5834  0.4736 -1.0098
 6119TIP3   OH239771   2.821   4.299  15.894 -0.2681  0.1516 -0.2226
 6119TIP3    H139772   2.774   4.345  15.964  0.1762 -2.7581  2.2233
 6119TIP3    H239773   2.911   4.295  15.925  0.1514 -0.3421 -1.4556
 6120TIP3   OH239774   1.469   5.697  10.864  0.5563 -0.5113 -0.2735
 6120TIP3    H139775   1.521   5.681  10.786  0.0027 -1.6532 -0.4290
 6120TIP3    H239776   1.450   5.791  10.862 -0.6577 -0.7341 -2.2923
 6121TIP3   OH239777   5.989   1.898  15.535 -0.1810 -0.3795  0.7811
 6121TIP3    H139778   5.916   1.836  15.524 -1.2961  1.0257 -0.1637
 6121TIP3    H239779   5.953   1.968  15.588  0.6691  0.0683  0.7838
 6122TIP3   OH239780   0.280   0.659  14.245 -0.3369  0.1544  0.2791
 6122TIP3    H139781   0.219   0.654  14.171 -0.9588  2.0165  0.6151
 6122TIP3    H239782   0.306   0.568  14.261 -1.3549 -0.4452 -1.2472
 6123TIP3   OH239783   5.307   6.602  13.306 -0.7825  0.1285  0.4747
 6123TIP3    H139784   5.392   6.643  13.321 -1.5774  1.1791  2.5512
 6123TIP3    H239785   5.311   6.571  13.215  0.7069  2.8914 -0.5384
 6124TIP3   OH239786   3.714   0.663   1.566  0.3849  0.3555 -0.5014
 6124TIP3    H139787   3.661   0.593   1.605  1.4367  1.1577  2.7171
 6124TIP3    H239788   3.759   0.621   1.493 -0.4909 -1.7832  0.0955
 6125TIP3   OH239789   5.521   4.057  11.844 -0.2354 -0.7602  0.3573
 6125TIP3    H139790   5.438   4.011  11.859 -1.3318  0.8240 -0.5347
 6125TIP3    H239791   5.542   4.097  11.928 -0.3304 -1.2412  0.6103
 6126TIP3   OH239792   3.644   4.080  16.822 -0.5705  0.2799  0.2608
 6126TIP3    H139793   3.599   4.002  16.790  0.3555 -0.1117 -0.1382
 6126TIP3    H239794   3.673   4.057  16.910  1.1413 -0.4787 -0.4486
 6127TIP3   OH239795   3.353   5.851   3.718 -0.5081  0.4336  0.4827
 6127TIP3    H139796   3.280   5.795   3.691 -3.6181  4.5563 -0.6413
 6127TIP3    H239797   3.341   5.862   3.812  0.1403 -0.6317  0.7179
 6128TIP3   OH239798   3.271   0.616   1.102  0.0458  0.3929 -0.0962
 6128TIP3    H139799   3.358   0.581   1.083 -0.2635  0.7175 -2.4768
 6128TIP3    H239800   3.286   0.710   1.115  0.1418  0.3279  0.2658
 6129TIP3   OH239801   4.638   4.367  14.523 -0.3078 -0.2293 -0.0590
 6129TIP3    H139802   4.727   4.401  14.524  0.0600 -1.1411  2.1774
 6129TIP3    H239803   4.619   4.355  14.430  1.1407  1.8286 -0.6996
 6130TIP3   OH239804   5.596   2.862  13.749  0.3907  0.1598  0.0660
 6130TIP3    H139805   5.658   2.789  13.745  0.6786  0.2240  2.1849
 6130TIP3    H239806   5.599   2.900  13.661 -1.4574 -3.6503 -1.8969
 6131TIP3   OH239807   5.446   3.290  13.438 -0.4624  0.0920 -0.2037
 6131TIP3    H139808   5.470   3.248  13.356  1.3773 -1.2351  0.9334
 6131TIP3    H239809   5.462   3.384  13.423  1.3604 -0.2908 -0.9080
 6132TIP3   OH239810   1.829   3.342   2.631 -0.2837  0.8315 -0.3318
 6132TIP3    H139811   1.777   3.420   2.649 -0.5625  1.1528 -2.2878
 6132TIP3    H239812   1.777   3.293   2.567  0.9397  0.1971 -0.8725
 6133TIP3   OH239813   6.627   3.055  16.847 -1.1721  0.2930 -0.4678
 6133TIP3    H139814   6.626   3.100  16.763 -1.5471  0.8719 -0.1646
 6133TIP3    H239815   6.553   3.093  16.895 -0.3681  0.6981  0.4901
 6134TIP3   OH239816   6.256   2.407  12.661 -0.0953 -0.2031 -0.0394
 6134TIP3    H139817   6.275   2.500  12.647 -1.4389  1.0072  4.5002
 6134TIP3    H239818   6.161   2.401  12.651 -0.3666 -0.4110  2.1767
 6135TIP3   OH239819   5.086   5.417   5.785 -0.0615 -0.1130  0.1271
 6135TIP3    H139820   5.065   5.325   5.797  0.2075 -0.2009 -0.0795
 6135TIP3    H239821   5.003   5.457   5.758  0.3697 -0.7428 -2.3251
 6136TIP3   OH239822   5.611   0.771  16.737 -0.2536 -0.6113  0.6261
 6136TIP3    H139823   5.679   0.766  16.805 -1.0961 -1.1240  1.4468
 6136TIP3    H239824   5.595   0.680  16.713 -3.2907 -0.9367  3.1575
 6137TIP3   OH239825   1.951   4.974   5.858  0.2579  0.4978 -0.7639
 6137TIP3    H139826   1.990   4.887   5.855  0.8290  0.6738  0.8455
 6137TIP3    H239827   1.858   4.958   5.875  0.8027  0.2116  2.4527
 6138TIP3   OH239828   5.792   1.993  15.228  0.0479  0.5707 -0.0483
 6138TIP3    H139829   5.761   1.917  15.278  0.4737  1.1937  1.2005
 6138TIP3    H239830   5.769   1.972  15.137  0.1519 -1.0394  0.2589
 6139TIP3   OH239831   0.715   4.471  16.381  0.3280 -0.2088 -0.2014
 6139TIP3    H139832   0.625   4.438  16.370  0.2077 -0.4964  1.4181
 6139TIP3    H239833   0.705   4.566  16.385  0.0147 -0.2632  0.4965
 6140TIP3   OH239834   1.880   5.477   3.353 -0.3225 -0.3554  0.1829
 6140TIP3    H139835   1.970   5.471   3.382 -0.9638  1.0654  2.7541
 6140TIP3    H239836   1.877   5.555   3.297 -0.1324  0.1365  0.8572
 6141TIP3   OH239837   2.558   4.864  13.648 -0.0703 -0.6409  0.1025
 6141TIP3    H139838   2.535   4.934  13.709  0.2616 -0.5350  0.1055
 6141TIP3    H239839   2.481   4.807  13.648 -1.7728  1.4102 -2.4014
 6142TIP3   OH239840   1.908   4.669   4.292 -0.3679 -0.3759  0.3624
 6142TIP3    H139841   1.934   4.578   4.277 -0.8884 -0.5709  0.6279
 6142TIP3    H239842   1.820   4.664   4.328  0.2768  0.1462  2.1209
 6143TIP3   OH239843   2.183   0.688  16.325  0.2224 -0.2596  0.3329
 6143TIP3    H139844   2.245   0.757  16.302  0.0165  0.2991  1.3903
 6143TIP3    H239845   2.195   0.621  16.257  0.9419  0.4841 -0.2946
 6144TIP3   OH239846   4.862   0.390   1.798 -0.6190  0.5069  0.4093
 6144TIP3    H139847   4.912   0.348   1.727 -0.0178 -1.1401  1.7507
 6144TIP3    H239848   4.773   0.359   1.785 -0.2170 -1.1290  1.2715
 6145TIP3   OH239849   1.126   5.498   2.639  0.2615 -0.3085  0.0826
 6145TIP3    H139850   1.198   5.437   2.628 -0.5915 -1.4998  0.8497
 6145TIP3    H239851   1.064   5.476   2.570  0.4832  0.5209 -0.3975
 6146TIP3   OH239852   5.203   4.003   3.159  0.0772 -0.6381 -0.5728
 6146TIP3    H139853   5.111   4.014   3.135 -0.0910 -1.7012 -0.4506
 6146TIP3    H239854   5.238   4.092   3.161 -0.9397 -0.2269 -0.6505
 6147TIP3   OH239855   4.092   5.916  14.177 -0.1617 -0.1805  0.3691
 6147TIP3    H139856   4.007   5.959  14.175 -0.6699 -1.1785 -0.7976
 6147TIP3    H239857   4.155   5.988  14.172 -0.9261  0.5557  0.9630
 6148TIP3   OH239858   0.639   0.904   2.942  0.0351  0.5442  0.2326
 6148TIP3    H139859   0.566   0.842   2.945 -0.7206  1.3932 -0.4429
 6148TIP3    H239860   0.694   0.872   2.871  0.6954 -0.4822  1.1711
 6149TIP3   OH239861   0.438   2.944  16.211  0.0851  0.0430 -0.3324
 6149TIP3    H139862   0.384   3.023  16.215  2.0817  1.4785 -0.1945
 6149TIP3    H239863   0.392   2.881  16.266 -2.5753  0.4079 -1.9917
 6150TIP3   OH239864   4.911   5.154  11.687 -0.0251  0.0596 -0.1231
 6150TIP3    H139865   4.846   5.217  11.718  0.7647 -1.1123  4.5976
 6150TIP3    H239866   4.876   5.069  11.711  2.5258 -0.6956  1.2382
 6151TIP3   OH239867   0.392   2.613   3.197  0.3657  0.5664 -0.1835
 6151TIP3    H139868   0.446   2.565   3.260  0.7729 -0.8531 -1.5653
 6151TIP3    H239869   0.304   2.611   3.234  0.8350  0.9433  0.9950
 6152TIP3   OH239870   2.585   2.007  15.458  0.0471  0.0560 -0.0132
 6152TIP3    H139871   2.512   2.057  15.496 -0.4348 -1.6256  1.3894
 6152TIP3    H239872   2.545   1.924  15.430  1.2912 -0.6015  0.0919
 6153TIP3   OH239873   1.616   4.416  11.565  0.1326 -0.1040 -0.5559
 6153TIP3    H139874   1.667   4.471  11.625  0.7849 -1.4811  0.1796
 6153TIP3    H239875   1.614   4.467  11.483  0.4070  1.1768  0.2002
 6154TIP3   OH239876   0.395   1.480  13.340 -0.4690  0.1847  0.0388
 6154TIP3    H139877   0.345   1.402  13.364  1.9890 -1.4692  0.1838
 6154TIP3    H239878   0.435   1.509  13.422 -1.1127  1.4395 -0.0753
 6155TIP3   OH239879   3.229   3.495   5.027 -0.0531 -0.0035 -0.2392
 6155TIP3    H139880   3.181   3.551   4.966 -1.0510 -0.1598  0.3751
 6155TIP3    H239881   3.260   3.422   4.973  1.8707  1.4193 -1.2009
 6156TIP3   OH239882   4.878   0.586   5.873 -0.1956 -0.0506 -0.2030
 6156TIP3    H139883   4.808   0.634   5.916 -1.9767 -0.6375 -2.2584
 6156TIP3    H239884   4.839   0.555   5.791  1.6557 -2.6720 -0.2299
 6157TIP3   OH239885   1.664   1.213  12.824 -0.4846  0.6022 -0.8259
 6157TIP3    H139886   1.628   1.160  12.754 -1.5551  1.8053 -1.2432
 6157TIP3    H239887   1.590   1.268  12.852 -0.5843 -0.9199  2.3472
 6158TIP3   OH239888   6.092   4.891  15.966 -0.0708 -0.2066 -0.1489
 6158TIP3    H139889   6.013   4.836  15.966  1.2599 -2.2348 -0.8348
 6158TIP3    H239890   6.060   4.977  15.940 -1.9766 -1.1242 -1.1398
 6159TIP3   OH239891   2.100   4.338   2.620  0.3721 -0.9311 -0.0093
 6159TIP3    H139892   2.022   4.380   2.583  0.9066  0.7875  0.7519
 6159TIP3    H239893   2.100   4.250   2.580 -1.7444 -0.8639 -0.2884
 6160TIP3   OH239894   2.031   3.476   1.541 -0.5371 -0.2197 -0.4961
 6160TIP3    H139895   2.082   3.450   1.464  2.5672  0.7788  1.0548
 6160TIP3    H239896   2.043   3.405   1.603 -0.8099  0.1510 -0.0162
 6161TIP3   OH239897   1.215   4.421   4.810 -0.6611 -0.0066 -0.2837
 6161TIP3    H139898   1.188   4.380   4.728 -2.7749 -1.4720  1.0162
 6161TIP3    H239899   1.272   4.493   4.784 -0.9107 -0.6739 -2.9813
 6162TIP3   OH239900   3.238   1.356  12.408 -0.3704  0.0230 -0.3605
 6162TIP3    H139901   3.156   1.345  12.456  1.4251 -0.7670  2.8211
 6162TIP3    H239902   3.264   1.267  12.385  0.9871 -0.0689  1.3362
 6163TIP3   OH239903   1.218   2.729   4.283 -0.1299  0.0748 -0.0042
 6163TIP3    H139904   1.310   2.733   4.309  0.2862 -0.1184 -1.3889
 6163TIP3    H239905   1.188   2.820   4.290 -0.0177  0.0433  1.0428
 6164TIP3   OH239906   3.330   3.107  11.292 -0.6074 -0.5385  0.1890
 6164TIP3    H139907   3.350   3.149  11.208  1.6108 -1.6655  0.0479
 6164TIP3    H239908   3.280   3.029  11.268 -1.2493 -0.0887  0.0604
 6165TIP3   OH239909   0.829   0.819  15.942 -0.0262 -0.1583  0.1246
 6165TIP3    H139910   0.884   0.878  15.993  0.8865 -1.5788  0.8779
 6165TIP3    H239911   0.837   0.849  15.852  1.7146 -0.1165  0.2723
 6166TIP3   OH239912   1.978   1.243   0.836  0.0546 -0.5380  0.3183
 6166TIP3    H139913   1.966   1.162   0.787  0.0846 -0.1993 -0.2696
 6166TIP3    H239914   1.893   1.286   0.833  0.3297 -0.0022 -0.4066
 6167TIP3   OH239915   2.068   4.221  12.480  0.1882  0.2214 -0.3927
 6167TIP3    H139916   2.016   4.264  12.413  2.0594 -1.7133 -3.3511
 6167TIP3    H239917   2.036   4.130  12.481 -1.6384  0.6979  3.4777
 6168TIP3   OH239918   5.089   6.361   6.818  0.6564  0.2441  0.8041
 6168TIP3    H139919   5.109   6.447   6.855  0.2737  0.2569  0.9799
 6168TIP3    H239920   5.057   6.380   6.730 -0.6148  0.3684  1.2850
 6169TIP3   OH239921   5.318   2.601  16.942  0.0709 -0.3727  0.5477
 6169TIP3    H139922   5.225   2.589  16.961 -0.1683 -1.0364 -0.9003
 6169TIP3    H239923   5.333   2.695  16.949 -1.1327 -0.0342 -0.9146
 6170TIP3   OH239924   0.837   0.040   2.443 -0.4320  0.2100  0.5311
 6170TIP3    H139925   0.797  -0.044   2.463 -2.2281  0.8491 -0.1777
 6170TIP3    H239926   0.844   0.084   2.528 -0.2116 -0.3173  0.7944
 6171TIP3   OH239927   5.310   2.416   2.388 -0.2476 -0.0405  0.3426
 6171TIP3    H139928   5.337   2.508   2.389 -0.5297  0.1197 -1.7440
 6171TIP3    H239929   5.218   2.417   2.413 -0.8059  0.5177 -1.6005
 6172TIP3   OH239930   3.935   3.105  11.198 -0.0135 -0.2274  0.8636
 6172TIP3    H139931   4.027   3.130  11.203  0.1671 -0.5691 -0.2858
 6172TIP3    H239932   3.937   3.012  11.174 -0.6262  0.1990 -1.0126
 6173TIP3   OH239933   2.740   3.558  17.156  0.2587  0.6709 -0.2509
 6173TIP3    H139934   2.798   3.490  17.122 -0.8267 -0.4625  0.0854
 6173TIP3    H239935   2.759   3.560  17.250  0.5813  1.1432 -0.3216
 6174TIP3   OH239936   1.144   5.522   5.156  0.0145 -0.2918 -0.0445
 6174TIP3    H139937   1.170   5.439   5.198  0.4268  0.4989  1.3221
 6174TIP3    H239938   1.141   5.585   5.227 -3.0850  0.3089 -0.5616
 6175TIP3   OH239939   6.711   3.838   6.009  0.2461  0.0849  0.1010
 6175TIP3    H139940   6.666   3.754   6.000 -0.6818  0.7093 -1.6482
 6175TIP3    H239941   6.799   3.821   5.975 -0.0732 -0.1083 -0.6759
 6176TIP3   OH239942   4.465   2.162   2.832  0.1081 -0.1771  0.3691
 6176TIP3    H139943   4.482   2.130   2.920 -0.0468 -0.9791  0.1222
 6176TIP3    H239944   4.548   2.150   2.785  0.4222  0.9792  0.6047
 6177TIP3   OH239945   2.771   3.999   5.372  0.0553  0.5105  0.2434
 6177TIP3    H139946   2.782   3.957   5.457 -0.1901 -0.8316 -0.3629
 6177TIP3    H239947   2.854   3.983   5.327 -0.0631  0.6332 -0.0202
 6178TIP3   OH239948   1.785   3.845   0.624  0.5817  0.2767 -0.3231
 6178TIP3    H139949   1.710   3.867   0.679 -0.0852  0.1884 -1.1701
 6178TIP3    H239950   1.852   3.815   0.686 -0.3686 -0.4536  0.3895
 6179TIP3   OH239951   1.047   3.316  13.325  0.3237 -0.3404  0.1976
 6179TIP3    H139952   0.964   3.312  13.278  0.3888 -0.9149  0.1237
 6179TIP3    H239953   1.074   3.224  13.334  0.5771 -0.2042  0.8813
 6180TIP3   OH239954   0.718   5.035  13.968 -0.4471  0.2629  0.1097
 6180TIP3    H139955   0.664   4.988  14.031 -0.7630  1.5482  0.8321
 6180TIP3    H239956   0.772   4.967  13.927 -1.4195 -0.8124  0.5631
 6181TIP3   OH239957   5.152   3.879  16.181 -0.4966  0.0713 -0.0943
 6181TIP3    H139958   5.081   3.938  16.207 -0.4482  0.9714 -1.8208
 6181TIP3    H239959   5.122   3.841  16.098  0.9392  0.3588 -0.7826
 6182TIP3   OH239960   3.511   6.576   1.037 -0.3858 -0.2484  0.7319
 6182TIP3    H139961   3.461   6.644   0.991 -0.1704 -1.3057 -1.2018
 6182TIP3    H239962   3.446   6.527   1.086 -1.5548 -2.0891 -2.3533
 6183TIP3   OH239963   3.769   4.367  16.065  0.0607  0.1229  0.1699
 6183TIP3    H139964   3.827   4.429  16.108  1.3357  0.0972 -1.4461
 6183TIP3    H239965   3.780   4.384  15.971  0.5941 -2.6545 -0.3359
 6184TIP3   OH239966   6.772   4.694   0.955  0.2787 -0.2350  0.0100
 6184TIP3    H139967   6.823   4.756   1.006  1.6058 -1.4224  0.1839
 6184TIP3    H239968   6.775   4.728   0.865 -1.0779  1.2243  0.4676
 6185TIP3   OH239969   2.197   0.295  17.289  0.2548  0.1339  0.1548
 6185TIP3    H139970   2.261   0.365  17.297  0.2114  0.2144 -0.1920
 6185TIP3    H239971   2.118   0.338  17.255  0.8085 -0.4010 -1.8905
 6186TIP3   OH239972   2.119   1.003   4.472 -0.0812 -0.0025 -0.2624
 6186TIP3    H139973   2.126   1.087   4.427 -2.0357 -1.0508 -2.7610
 6186TIP3    H239974   2.119   0.937   4.402 -0.4900 -1.9716  1.4659
 6187TIP3   OH239975   5.326   3.309   3.413 -0.2617  0.1825 -0.2582
 6187TIP3    H139976   5.253   3.249   3.429  0.9661 -1.2814  0.0416
 6187TIP3    H239977   5.304   3.350   3.329 -1.6968  0.2221  0.1020
 6188TIP3   OH239978   0.451   1.650   2.288  0.1431  0.2841  0.7752
 6188TIP3    H139979   0.396   1.697   2.225 -0.1425  0.9773  1.5259
 6188TIP3    H239980   0.504   1.591   2.234  0.3299  1.2897 -0.1764
 6189TIP3   OH239981   6.323   2.974   2.942  0.3249  0.5068 -0.0887
 6189TIP3    H139982   6.329   3.001   3.034  0.4828 -1.1297  0.4074
 6189TIP3    H239983   6.401   3.011   2.901 -0.0390  1.7388  0.2831
 6190TIP3   OH239984   6.302   6.214   2.004 -0.2356 -0.1426 -0.9317
 6190TIP3    H139985   6.261   6.127   1.995  0.7700 -0.5720 -1.4788
 6190TIP3    H239986   6.235   6.275   1.972 -0.6775 -0.7801 -1.2613
 6191TIP3   OH239987   1.042   4.158  11.356  0.0737 -0.0157  0.1482
 6191TIP3    H139988   1.075   4.236  11.311  1.1931  0.2292  1.3305
 6191TIP3    H239989   1.100   4.147  11.431 -1.0438 -1.0757  0.8997
 6192TIP3   OH239990   2.933   2.585   4.870  0.0729  0.1899  0.0703
 6192TIP3    H139991   2.954   2.515   4.932  0.7218  1.0468  0.8319
 6192TIP3    H239992   2.912   2.539   4.789  1.1433 -0.8638  0.3674
 6193TIP3   OH239993   3.991   4.356  13.590 -0.0158  0.1436 -0.1280
 6193TIP3    H139994   4.029   4.291  13.530 -0.3345  2.5643 -3.2075
 6193TIP3    H239995   3.897   4.349  13.576 -0.2518 -0.5053  1.5792
 6194TIP3   OH239996   1.449   6.315  11.020 -0.6461  0.8858 -0.1764
 6194TIP3    H139997   1.500   6.348  11.094 -0.1614 -0.3056  0.0438
 6194TIP3    H239998   1.360   6.348  11.035 -0.1843  2.0486  0.0370
 6195TIP3   OH239999   1.233   3.209  14.310  0.3763 -0.0405 -0.0199
 6195TIP3    H140000   1.251   3.209  14.404  1.0999  2.5501 -0.0897
 6195TIP3    H240001   1.294   3.145  14.274  0.8828 -0.2352  1.1459
 6196TIP3   OH240002   3.829   2.206   3.174  0.0409  0.3035  0.0613
 6196TIP3    H140003   3.752   2.191   3.119 -0.6853  2.3077  0.4207
 6196TIP3    H240004   3.865   2.289   3.142  0.4032  0.8218  1.6991
 6197TIP3   OH240005   4.668   0.971   1.048  0.0837 -0.6065 -0.7154
 6197TIP3    H140006   4.753   0.988   1.007 -0.7492  0.2731 -2.1512
 6197TIP3    H240007   4.689   0.957   1.140  1.9928 -2.4390 -1.3556
 6198TIP3   OH240008   4.627   0.304   0.733 -0.2391  0.0421  0.3156
 6198TIP3    H140009   4.570   0.381   0.726 -1.7343 -0.9625  0.8058
 6198TIP3    H240010   4.644   0.278   0.643  2.1212  2.1640  0.0379
 6199TIP3   OH240011   2.570   0.043  13.274  0.1986  0.2387 -0.4940
 6199TIP3    H140012   2.514  -0.024  13.235  0.6455 -0.0791 -0.6056
 6199TIP3    H240013   2.637  -0.006  13.322  0.9913  0.5736 -1.2183
 6200TIP3   OH240014   5.469   2.426  13.228  0.2965 -0.5275 -0.0000
 6200TIP3    H140015   5.400   2.484  13.197  1.2574  0.4148 -0.4132
 6200TIP3    H240016   5.506   2.470  13.304 -0.6040 -1.7994  1.2379
 6201TIP3   OH240017   2.284   3.324   4.555 -0.5056  0.0871 -0.2072
 6201TIP3    H140018   2.259   3.345   4.465 -1.0504  0.5569  0.0453
 6201TIP3    H240019   2.203   3.333   4.605  0.2442  2.2131  0.7296
 6202TIP3   OH240020   1.583   5.311  12.419 -0.1867  0.0189 -0.1849
 6202TIP3    H140021   1.496   5.345  12.439 -0.5205 -0.0129 -1.4806
 6202TIP3    H240022   1.567   5.231  12.370  0.4908  1.2236 -2.5184
 6203TIP3   OH240023   3.923   1.891   1.019  0.1530  0.3129 -0.6078
 6203TIP3    H140024   3.950   1.805   0.986 -2.0999 -0.4583 -0.5576
 6203TIP3    H240025   3.886   1.873   1.106 -1.0254  1.2032 -0.9026
 6204TIP3   OH240026   6.588   4.153   2.211  0.2798 -0.4561  0.1222
 6204TIP3    H140027   6.494   4.165   2.201  0.1849  0.6699  1.9725
 6204TIP3    H240028   6.602   4.059   2.197 -1.2970 -0.8448  0.9738
 6205TIP3   OH240029   2.978   4.171   3.171  0.0230  0.0912  0.2725
 6205TIP3    H140030   3.022   4.227   3.106  1.8530  0.5173  1.7923
 6205TIP3    H240031   3.017   4.084   3.158 -1.7751 -0.5911 -1.1133
 6206TIP3   OH240032   6.380   0.976   5.058  0.4160 -0.1149  0.4854
 6206TIP3    H140033   6.308   1.022   5.101 -0.2075 -1.7119  1.2458
 6206TIP3    H240034   6.337   0.922   4.992  0.9281 -0.8605  0.7513
 6207TIP3   OH240035   6.149   5.573  16.898 -0.1477 -0.2091  0.4370
 6207TIP3    H140036   6.176   5.651  16.947  0.6202  0.2993 -0.7294
 6207TIP3    H240037   6.054   5.572  16.904 -0.1110  0.3158  1.2140
 6208TIP3   OH240038   4.914   0.047  13.416 -0.0115  0.0203  0.3628
 6208TIP3    H140039   4.970  -0.016  13.462 -0.1444 -1.1127 -0.9881
 6208TIP3    H240040   4.839   0.059  13.474  0.9575  0.5221  1.5687
 6209TIP3   OH240041   3.879   6.019   0.812  0.3971 -0.7798  0.4378
 6209TIP3    H140042   3.861   5.939   0.763 -0.7725  0.7055 -1.7301
 6209TIP3    H240043   3.862   5.996   0.904 -0.6703 -2.7794 -0.2005
 6210TIP3   OH240044   2.826   0.169   0.641  0.2733 -0.5261  0.1855
 6210TIP3    H140045   2.881   0.127   0.575  1.5966 -0.3528  1.1346
 6210TIP3    H240046   2.853   0.260   0.641 -0.1668 -0.3876  0.5295
 6211TIP3   OH240047   2.783   4.901   0.575 -0.0480 -0.0611 -0.0552
 6211TIP3    H140048   2.720   4.961   0.535  0.8819 -0.8369 -2.9215
 6211TIP3    H240049   2.864   4.951   0.581 -0.0068 -0.1645  0.3044
 6212TIP3   OH240050   3.623   6.004   5.468  0.0580  0.2799  0.3415
 6212TIP3    H140051   3.555   6.021   5.403 -1.9975  1.6008  2.6621
 6212TIP3    H240052   3.678   6.083   5.466  1.6415 -0.7707 -1.5039
 6213TIP3   OH240053   3.018   5.695  13.501  0.3804 -0.5595  0.2843
 6213TIP3    H140054   2.955   5.631  13.466 -0.1354  0.2521 -0.2932
 6213TIP3    H240055   2.967   5.745  13.565  0.6738 -0.4417  0.4262
 6214TIP3   OH240056   1.480   0.963   1.037 -0.3392  0.7391  0.2706
 6214TIP3    H140057   1.470   0.871   1.061  0.9071  0.5157 -0.0246
 6214TIP3    H240058   1.532   0.962   0.957 -0.5471  1.6921  0.1090
 6215TIP3   OH240059   3.459   2.789  15.597  0.7108 -0.1579 -0.5332
 6215TIP3    H140060   3.496   2.712  15.639 -1.7238 -0.4971  1.2427
 6215TIP3    H240061   3.458   2.768  15.504  4.0458 -0.3940 -0.6184
 6216TIP3   OH240062   4.576   3.580  12.248 -0.3344 -0.0808  0.6880
 6216TIP3    H140063   4.638   3.541  12.186 -0.8079  0.3889 -0.1042
 6216TIP3    H240064   4.492   3.540  12.225 -0.3190 -0.8348  1.8569
 6217TIP3   OH240065   0.322   3.151  14.906 -0.2579 -0.4651  0.4776
 6217TIP3    H140066   0.256   3.098  14.863  0.8364  0.8429 -3.1822
 6217TIP3    H240067   0.403   3.101  14.895 -0.1002 -0.6871  2.3027
 6218TIP3   OH240068   0.795   4.240  16.475  0.3118 -0.2036 -0.0848
 6218TIP3    H140069   0.762   4.325  16.444  1.1387  0.4205  0.7059
 6218TIP3    H240070   0.723   4.204  16.526 -0.1675 -0.1384 -0.7009
 6219TIP3   OH240071   2.605   2.273   4.165  0.0658 -0.6161 -0.6368
 6219TIP3    H140072   2.695   2.293   4.138 -0.3176  0.2605 -1.3123
 6219TIP3    H240073   2.556   2.268   4.083 -1.0094  1.4958 -0.1792
 6220TIP3   OH240074   3.543   2.771  12.380 -0.0673  0.4488  0.4025
 6220TIP3    H140075   3.608   2.705  12.404  0.3614  1.7124  3.1038
 6220TIP3    H240076   3.506   2.799  12.464 -0.6255  3.2034 -0.6677
 6221TIP3   OH240077   2.934   2.328   4.299  0.3344  0.3379 -0.2725
 6221TIP3    H140078   2.954   2.271   4.225  0.6862  0.1019  0.0006
 6221TIP3    H240079   3.020   2.352   4.334  0.1769  0.7213 -0.1499
 6222TIP3   OH240080   5.236   3.680   5.219 -0.3400  0.3879  0.2821
 6222TIP3    H140081   5.278   3.745   5.274  0.2746 -0.7609  1.2284
 6222TIP3    H240082   5.234   3.600   5.273 -0.0215 -0.6894 -1.2203
 6223TIP3   OH240083   0.459   5.234  14.004  0.0212 -0.1664  0.1681
 6223TIP3    H140084   0.438   5.141  14.008 -0.5061 -0.1204 -1.2552
 6223TIP3    H240085   0.535   5.239  13.946  0.2030  0.2737  0.4394
 6224TIP3   OH240086   4.167   0.334   3.449 -0.2653 -0.5580 -0.1649
 6224TIP3    H140087   4.189   0.394   3.520  0.0609  0.1277 -0.8310
 6224TIP3    H240088   4.252   0.310   3.411 -0.4926  2.5954 -3.1748
 6225TIP3   OH240089   3.929   4.002  11.196 -0.2777  0.0983 -0.0345
 6225TIP3    H140090   3.855   4.059  11.179 -2.5827 -2.2437  1.3480
 6225TIP3    H240091   3.950   4.017  11.288  2.2170  1.9591 -0.8003
 6226TIP3   OH240092   3.912   1.675   5.471 -0.3323  0.5916 -0.2248
 6226TIP3    H140093   3.884   1.600   5.420 -2.4884 -0.2790  2.0218
 6226TIP3    H240094   3.921   1.746   5.408 -2.2259 -0.5642 -1.8959
 6227TIP3   OH240095   2.718   1.677  14.575 -0.3105 -0.3582 -0.5009
 6227TIP3    H140096   2.694   1.709  14.662 -0.8994 -0.4181 -0.6346
 6227TIP3    H240097   2.665   1.730  14.515  2.6903  2.2495 -1.0966
 6228TIP3   OH240098   1.642   6.141  14.966 -0.6954 -0.8415 -0.2274
 6228TIP3    H140099   1.716   6.093  15.003  0.0260 -0.4012 -1.0428
 6228TIP3    H240100   1.573   6.076  14.957 -0.6746 -1.1089  1.2270
 6229TIP3   OH240101   1.378   4.821   0.903  0.3835 -0.4294  0.1979
 6229TIP3    H140102   1.470   4.798   0.888  0.8292  1.0130  0.5297
 6229TIP3    H240103   1.382   4.890   0.969 -0.9772 -0.6351  0.5142
 6230TIP3   OH240104   4.148   6.304   4.075  0.2704 -0.4105 -0.3291
 6230TIP3    H140105   4.108   6.217   4.070  0.4273 -0.4600 -0.8276
 6230TIP3    H240106   4.125   6.345   3.991 -0.9154  0.5270  0.4221
 6231TIP3   OH240107   6.410   2.681   2.887  0.1601  0.2791  0.4999
 6231TIP3    H140108   6.426   2.661   2.795 -2.0453 -0.9803  0.3106
 6231TIP3    H240109   6.432   2.774   2.896  1.7393  0.0708 -0.9360
 6232TIP3   OH240110   1.332   5.654  14.437 -0.4449  0.2426  0.2185
 6232TIP3    H140111   1.344   5.560  14.444  0.7032  0.4086  0.9055
 6232TIP3    H240112   1.410   5.685  14.392 -0.7643  0.8693  0.0845
 6233TIP3   OH240113   5.860   1.228   4.733 -0.2285 -0.0033  0.0396
 6233TIP3    H140114   5.847   1.243   4.639 -0.0891  1.5583  0.2417
 6233TIP3    H240115   5.862   1.133   4.742  0.6120 -0.1876 -1.6615
 6234TIP3   OH240116   6.465   5.106   0.643  0.4687  0.0012  0.5212
 6234TIP3    H140117   6.554   5.091   0.610 -0.1421 -0.9626 -0.7152
 6234TIP3    H240118   6.438   5.188   0.602  1.2894  1.0708  2.0215
 6235TIP3   OH240119   2.422   2.484  13.555 -0.1664 -0.6550  0.1891
 6235TIP3    H140120   2.386   2.501  13.643  2.7886 -0.8436  1.5656
 6235TIP3    H240121   2.440   2.571  13.520  0.1339 -0.5916  0.4853
 6236TIP3   OH240122   4.825   6.564   3.759  0.0650  0.0029  0.5663
 6236TIP3    H140123   4.742   6.524   3.732  0.0140 -0.3655  1.2695
 6236TIP3    H240124   4.843   6.628   3.690  1.7585 -3.2806 -2.3501
 6237TIP3   OH240125   2.739   5.260  16.337  0.0505  0.0853 -0.3507
 6237TIP3    H140126   2.747   5.266  16.242  0.2985 -0.6032 -0.3743
 6237TIP3    H240127   2.723   5.350  16.365 -0.5961  0.2075 -1.0945
 6238TIP3   OH240128   2.960   1.296   3.846 -0.1771  0.3720 -0.2186
 6238TIP3    H140129   3.015   1.218   3.837  1.6407  1.4552  0.9051
 6238TIP3    H240130   2.888   1.269   3.903  0.4096 -0.4951  0.1255
 6239TIP3   OH240131   3.702   1.357  15.856  0.2209  0.5563  0.7310
 6239TIP3    H140132   3.743   1.291  15.911  1.1425  1.2056  0.8476
 6239TIP3    H240133   3.766   1.428  15.851  0.2428  0.4612 -1.2962
 6240TIP3   OH240134   1.740   4.528   6.393 -0.3672 -0.1242 -0.0681
 6240TIP3    H140135   1.646   4.535   6.408 -0.4186  2.3955 -1.1812
 6240TIP3    H240136   1.774   4.616   6.404  1.4812 -0.4802 -2.0744
 6241TIP3   OH240137   1.727   0.110  16.860  0.1503  0.5048  0.0245
 6241TIP3    H140138   1.708   0.044  16.793 -0.8437 -0.5611  1.2980
 6241TIP3    H240139   1.767   0.182  16.812  1.3755 -1.0622 -1.3996
 6242TIP3   OH240140   0.814   0.991   3.683  0.0739 -0.3569  0.0407
 6242TIP3    H140141   0.742   1.049   3.708 -0.1409 -0.6926  0.1973
 6242TIP3    H240142   0.834   0.942   3.762  1.1333  0.4170  0.2770
 6243TIP3   OH240143   4.610   4.282  12.311 -0.4461 -0.8358  0.2518
 6243TIP3    H140144   4.687   4.240  12.272  2.5826  2.2995  2.2655
 6243TIP3    H240145   4.620   4.268  12.405 -2.5943 -0.6252  0.5577
 6244TIP3   OH240146   0.363   1.139  14.756 -0.9388 -0.2578  0.3225
 6244TIP3    H140147   0.421   1.161  14.829 -0.8482 -1.6611  0.6990
 6244TIP3    H240148   0.415   1.159  14.677 -0.2856 -0.6120  0.6524
 6245TIP3   OH240149   2.874   0.935   2.708  0.4532  0.5255  0.3950
 6245TIP3    H140150   2.795   0.943   2.655  1.5170 -3.0305 -2.0972
 6245TIP3    H240151   2.942   0.981   2.658  1.0114 -1.0463 -0.3685
 6246TIP3   OH240152   0.783   5.859  14.762 -0.1132 -0.3034  0.3561
 6246TIP3    H140153   0.739   5.859  14.847  0.0677  0.0357  0.4511
 6246TIP3    H240154   0.833   5.778  14.762 -2.3780 -1.8024 -0.6237
 6247TIP3   OH240155   2.362   1.024  16.983  0.3204 -0.4811 -0.1149
 6247TIP3    H140156   2.338   0.944  17.029 -2.1017  0.0011 -0.3813
 6247TIP3    H240157   2.322   1.014  16.896  0.9922  0.5074 -0.5496
 6248TIP3   OH240158   3.923   6.299  14.669 -0.4462 -0.1681  0.1405
 6248TIP3    H140159   3.858   6.230  14.679 -0.6240 -0.2879 -1.6293
 6248TIP3    H240160   3.999   6.256  14.631 -0.7554  0.6657 -1.5230
 6249TIP3   OH240161   6.524   2.850  12.698  0.0367  0.1631 -0.0285
 6249TIP3    H140162   6.444   2.892  12.730  0.1920  0.2490  0.2504
 6249TIP3    H240163   6.509   2.838  12.604 -0.7406 -0.8125  0.2088
 6250TIP3   OH240164   0.836   4.058  15.115  0.1418  0.3219 -0.2960
 6250TIP3    H140165   0.860   3.967  15.136  0.3937  0.7117  1.2003
 6250TIP3    H240166   0.806   4.095  15.197  1.2693  1.9865 -0.5819
 6251TIP3   OH240167   0.552   0.659   6.058  0.0043 -1.0607  0.3077
 6251TIP3    H140168   0.578   0.707   6.136 -0.6405 -1.4758  0.7822
 6251TIP3    H240169   0.498   0.721   6.009  0.4716 -0.7750  0.1449
 6252TIP3   OH240170   1.352   4.215   5.189  0.0818 -0.2662 -0.1857
 6252TIP3    H140171   1.416   4.264   5.138  0.4515 -1.7950 -1.2408
 6252TIP3    H240172   1.270   4.263   5.177  0.5164  0.3396 -0.8081
 6253TIP3   OH240173   4.667   5.202   1.984 -0.4131 -0.0034 -0.3359
 6253TIP3    H140174   4.605   5.250   1.929  0.5498  2.3357  0.5155
 6253TIP3    H240175   4.621   5.121   2.006 -2.4421  0.8384 -1.2150
 6254TIP3   OH240176   2.037   0.236   5.116  0.1362 -0.0503 -0.3441
 6254TIP3    H140177   2.049   0.280   5.032  0.2024  1.1032  0.2503
 6254TIP3    H240178   2.020   0.307   5.178 -0.6127 -0.9289  0.4973
 6255TIP3   OH240179   3.577   4.163   4.201 -0.7690  0.1599  0.0213
 6255TIP3    H140180   3.532   4.192   4.281  1.2102  0.8464  0.9578
 6255TIP3    H240181   3.600   4.244   4.156 -0.4590 -0.1721 -0.4206
 6256TIP3   OH240182   4.468   3.554   6.341 -0.4569 -0.2974 -0.6443
 6256TIP3    H140183   4.432   3.511   6.419  1.8029 -1.4715 -0.1812
 6256TIP3    H240184   4.497   3.639   6.373 -2.0052  0.3576 -0.8636
 6257TIP3   OH240185   4.556   3.855   2.109 -0.1852 -0.0910  0.5482
 6257TIP3    H140186   4.576   3.840   2.017 -1.1493  0.1094  0.2906
 6257TIP3    H240187   4.500   3.781   2.134  0.2976 -0.2925  1.0515
 6258TIP3   OH240188   6.656   6.008  12.120 -0.0341  0.3776  0.4742
 6258TIP3    H140189   6.561   6.003  12.132 -0.2135  0.0489 -0.9096
 6258TIP3    H240190   6.672   5.966  12.036  1.2841  0.9213  0.4207
 6259TIP3   OH240191   1.673   6.425   2.179 -0.0134 -0.2527 -0.1460
 6259TIP3    H140192   1.758   6.427   2.134 -0.0762 -0.8426 -0.2998
 6259TIP3    H240193   1.651   6.517   2.193 -0.3804 -0.0077 -2.0514
 6260TIP3   OH240194   6.505   1.036  14.440 -0.1270  0.4486  0.0323
 6260TIP3    H140195   6.523   1.008  14.530  0.6510 -0.7767 -0.4803
 6260TIP3    H240196   6.442   0.972  14.407  0.0718  0.5107 -0.4809
 6261TIP3   OH240197   2.013   5.304   0.664  0.4490  0.7531 -0.1320
 6261TIP3    H140198   2.064   5.340   0.591  2.6073  0.8909  1.3699
 6261TIP3    H240199   1.946   5.370   0.682 -1.2929 -0.0178 -3.0033
 6262TIP3   OH240200   4.479   0.440   3.232  0.5902  0.0283 -0.1403
 6262TIP3    H140201   4.488   0.450   3.137 -0.2344  1.1946 -0.1070
 6262TIP3    H240202   4.479   0.529   3.266  1.4194 -0.3869  1.0298
 6263TIP3   OH240203   5.833   5.802   3.587  0.0657 -0.2708 -0.2074
 6263TIP3    H140204   5.828   5.725   3.531 -1.5120  1.3208 -2.4391
 6263TIP3    H240205   5.923   5.803   3.619  0.5350 -2.1933 -1.3308
 6264TIP3   OH240206   5.765   6.448   6.633  0.7763 -0.1539  0.2841
 6264TIP3    H140207   5.809   6.453   6.718  0.5618  1.0599  0.3452
 6264TIP3    H240208   5.776   6.536   6.595 -1.8593  0.3057  0.4332
 6265TIP3   OH240209   5.538   0.477   5.642 -0.3704 -0.4370  0.4257
 6265TIP3    H140210   5.454   0.459   5.683  0.0878 -1.8131  0.8152
 6265TIP3    H240211   5.584   0.533   5.704 -1.1423  0.7093  0.0075
 6266TIP3   OH240212   4.230   1.972  14.115  0.3210  0.0114 -0.2012
 6266TIP3    H140213   4.218   1.878  14.131  1.4043 -0.0023  0.6814
 6266TIP3    H240214   4.142   2.009  14.124  0.1879 -0.6351  1.6670
 6267TIP3   OH240215   2.662   1.217  11.996  0.2016 -0.5990  0.5095
 6267TIP3    H140216   2.685   1.310  11.996  0.3898 -0.6279  1.6666
 6267TIP3    H240217   2.720   1.179  11.930  1.5276 -0.1923  1.3812
 6268TIP3   OH240218   0.712   5.048  15.129  0.0876 -0.4367  0.0455
 6268TIP3    H140219   0.758   5.123  15.169 -0.9723  0.4094 -0.2940
 6268TIP3    H240220   0.621   5.059  15.156 -0.0102 -1.8823  0.3769
 6269TIP3   OH240221   2.334   5.579   3.467  0.1089 -0.0281  0.0500
 6269TIP3    H140222   2.397   5.642   3.502  0.3679 -0.7085  0.8451
 6269TIP3    H240223   2.360   5.568   3.376  1.1581 -0.2944  0.3658
 6270TIP3   OH240224   5.869   4.886  12.538 -0.8115 -0.3416 -0.3036
 6270TIP3    H140225   5.873   4.861  12.446 -1.2268  1.0841 -0.7319
 6270TIP3    H240226   5.959   4.878  12.569 -0.5953 -0.4431 -0.9513
 6271TIP3   OH240227   2.049   6.021   2.805 -0.0073 -0.2725  0.4200
 6271TIP3    H140228   2.090   5.938   2.780 -0.1038 -0.2500  0.1884
 6271TIP3    H240229   2.008   6.002   2.890  1.2871 -0.0314  1.1158
 6272TIP3   OH240230   4.116   1.635  12.194 -0.3251  0.0069 -0.0906
 6272TIP3    H140231   4.180   1.651  12.125  2.2907 -0.9581  1.9502
 6272TIP3    H240232   4.095   1.542  12.188  1.6468 -0.6202  1.6799
 6273TIP3   OH240233   2.347   0.512   3.482 -0.4364  0.4056  0.4104
 6273TIP3    H140234   2.350   0.568   3.405 -1.3549 -1.4129 -1.0432
 6273TIP3    H240235   2.394   0.432   3.456  0.1891  0.1646  2.1307
 6274TIP3   OH240236   0.692   6.715  16.204 -0.0609 -0.2188 -0.0178
 6274TIP3    H140237   0.693   6.641  16.264  1.5551  0.6326  1.1033
 6274TIP3    H240238   0.753   6.778  16.243  0.2119  0.8341 -1.9942
 6275TIP3   OH240239   0.055   6.378  10.440  0.2592 -0.1795 -0.0418
 6275TIP3    H140240  -0.019   6.438  10.447 -0.0619 -0.7474  2.0343
 6275TIP3    H240241   0.128   6.426  10.479  1.4300  0.8744 -3.1794
 6276TIP3   OH240242   4.333   5.976   1.391 -0.0463 -0.6555  0.0964
 6276TIP3    H140243   4.290   5.978   1.476 -0.9925  1.0361 -0.3965
 6276TIP3    H240244   4.400   5.907   1.400 -1.4239 -1.8830  1.5462
 6277TIP3   OH240245   2.340   0.139  12.163  0.4209  0.0852  0.1357
 6277TIP3    H140246   2.351   0.227  12.127  0.5296  0.4571  1.0556
 6277TIP3    H240247   2.400   0.085  12.112  1.8495  0.9186  0.8589
 6278TIP3   OH240248   5.367   2.963  15.845 -0.1724  0.2669 -0.0738
 6278TIP3    H140249   5.425   2.944  15.919 -0.0637 -0.0413 -0.2363
 6278TIP3    H240250   5.284   2.988  15.886 -0.0085  0.4418  0.1571
 6279TIP3   OH240251   5.085   3.117  11.268  0.0217 -0.1828  0.7327
 6279TIP3    H140252   5.060   3.027  11.249 -1.2248 -0.0422  1.5610
 6279TIP3    H240253   5.076   3.162  11.184  0.2254 -0.7315  0.4116
 6280TIP3   OH240254   6.308   6.300  13.641 -0.3382  0.5167  0.3828
 6280TIP3    H140255   6.323   6.294  13.547 -0.3608  0.9135  0.3504
 6280TIP3    H240256   6.394   6.293  13.681 -0.4621 -1.0977  0.4188
 6281TIP3   OH240257   4.000   3.516  16.378 -0.0611 -0.3261 -0.5371
 6281TIP3    H140258   4.065   3.574  16.337 -0.2119  0.8893  0.8461
 6281TIP3    H240259   3.928   3.512  16.315  0.3971  0.1487 -1.1040
 6282TIP3   OH240260   2.951   1.054  16.207 -0.4800  0.2684 -0.0068
 6282TIP3    H140261   2.971   1.121  16.141  0.8937  0.0902  0.2071
 6282TIP3    H240262   2.940   0.973  16.157 -2.0252  0.5903 -0.2529
 6283TIP3   OH240263   2.034   6.317  14.809 -0.1754  0.2954 -0.3859
 6283TIP3    H140264   1.951   6.270  14.812  0.0095  0.0140  0.5043
 6283TIP3    H240265   2.076   6.287  14.729  0.0976 -1.3344  0.3353
 6284TIP3   OH240266   2.307   0.237  12.866 -0.3291  0.5893  0.4707
 6284TIP3    H140267   2.334   0.267  12.953 -1.2014  0.3209  0.8483
 6284TIP3    H240268   2.280   0.146  12.879 -2.8512  1.2532  0.4810
 6285TIP3   OH240269   4.627   5.998   3.525  0.4250  0.1418  0.0839
 6285TIP3    H140270   4.649   6.067   3.588  0.6617 -0.8532  1.1280
 6285TIP3    H240271   4.638   6.039   3.440 -0.9040  1.8317  0.6737
 6286TIP3   OH240272   6.426   1.485   0.705 -0.4566  0.1364  0.2917
 6286TIP3    H140273   6.492   1.451   0.645  0.4453  0.7261  0.9253
 6286TIP3    H240274   6.473   1.549   0.758 -1.1421 -0.5754  1.8235
 6287TIP3   OH240275   6.021   2.411  12.957  0.0095 -0.1382  0.0403
 6287TIP3    H140276   6.087   2.476  12.933  1.1569 -1.4112 -0.4170
 6287TIP3    H240277   6.009   2.422  13.051 -1.1562  1.8916 -0.2928
 6288TIP3   OH240278   4.091   4.489   6.514  0.7572  0.1003 -0.2388
 6288TIP3    H140279   4.092   4.538   6.595 -0.2419  2.2370 -1.4293
 6288TIP3    H240280   4.030   4.416   6.531 -0.3601  1.1831  0.5907
 6289TIP3   OH240281   1.978   1.792  11.940  0.3390  0.0191  0.0516
 6289TIP3    H140282   1.993   1.720  12.002 -0.8275  0.0440  0.3767
 6289TIP3    H240283   2.022   1.867  11.980  0.8407 -0.3102  0.1272
 6290TIP3   OH240284   5.828   5.989  13.572  0.1623 -0.0605  0.0817
 6290TIP3    H140285   5.805   6.081  13.560 -1.0064 -0.1382  1.4269
 6290TIP3    H240286   5.801   5.947  13.490  1.4419  0.8983 -0.8598
 6291TIP3   OH240287   6.732   5.102   0.286  0.4469  0.3254  0.4383
 6291TIP3    H140288   6.654   5.155   0.268  0.6852  0.2965 -0.7723
 6291TIP3    H240289   6.727   5.030   0.223  0.7558 -0.4450  1.2627
 6292TIP3   OH240290   6.526   2.611  14.342 -0.3123 -0.8165 -0.4618
 6292TIP3    H140291   6.543   2.702  14.320 -0.2838 -1.5272 -4.0470
 6292TIP3    H240292   6.434   2.598  14.318 -0.0641 -1.9349 -0.8440
 6293TIP3   OH240293   0.003   2.589   5.910 -0.0826  0.9645  0.2528
 6293TIP3    H140294   0.063   2.545   5.971 -0.4273 -1.0105 -0.7284
 6293TIP3    H240295  -0.060   2.520   5.886  0.5368  1.3918 -2.9639
 6294TIP3   OH240296   3.050   5.420  15.063  0.4337 -0.0076 -0.0096
 6294TIP3    H140297   3.008   5.492  15.109  0.5368 -0.2721  0.5174
 6294TIP3    H240298   3.142   5.445  15.057  0.4953 -0.1563  0.3004
 6295TIP3   OH240299   5.366   4.320  12.302 -0.4114  0.6137 -0.5049
 6295TIP3    H140300   5.460   4.311  12.317 -0.3560  0.0039 -1.1555
 6295TIP3    H240301   5.359   4.389  12.236 -0.4416  0.8503 -0.2561
 6296TIP3   OH240302   4.850   2.262  14.240 -0.7037 -0.4735  0.3772
 6296TIP3    H140303   4.922   2.240  14.299 -1.4241 -1.2082  1.0188
 6296TIP3    H240304   4.891   2.274  14.154 -0.0559 -3.4426  0.1515
 6297TIP3   OH240305   1.413   3.187   4.876 -1.1317  0.2914  0.0585
 6297TIP3    H140306   1.426   3.220   4.787 -1.0050 -1.8647 -0.7763
 6297TIP3    H240307   1.483   3.228   4.927 -1.1069  1.4408 -0.8529
 6298TIP3   OH240308   6.488   5.205   2.174 -0.8058 -0.1581  0.0761
 6298TIP3    H140309   6.457   5.138   2.235  0.6458 -0.9980 -0.0606
 6298TIP3    H240310   6.510   5.279   2.231 -0.1255 -0.6842  0.5252
 6299TIP3   OH240311   0.225   3.333   0.915 -0.3064  0.1627  0.1682
 6299TIP3    H140312   0.193   3.367   0.831  0.9542  2.7353  0.6291
 6299TIP3    H240313   0.303   3.283   0.891 -1.3503 -1.2626 -0.3881
 6300TIP3   OH240314   6.740   5.049  12.976  0.0342  0.3108 -0.4394
 6300TIP3    H140315   6.737   5.112  12.904 -2.2074  0.7029 -0.0864
 6300TIP3    H240316   6.786   5.095  13.047 -2.3915  2.0223  0.1454
 6301TIP3   OH240317   2.096   1.475   1.357 -0.2038 -0.0246 -0.4981
 6301TIP3    H140318   2.106   1.553   1.303  2.8775 -1.0955 -1.6866
 6301TIP3    H240319   2.085   1.403   1.294 -2.0394 -0.7351  0.5425
 6302TIP3   OH240320   3.015   3.546   4.481  0.4172 -0.2140  0.2420
 6302TIP3    H140321   2.976   3.463   4.508 -0.2266  0.2139  0.6581
 6302TIP3    H240322   3.007   3.602   4.558  0.5616  0.3305 -0.1341
 6303TIP3   OH240323   5.541   3.915   6.754 -0.0492 -0.1424 -0.4192
 6303TIP3    H140324   5.585   4.000   6.745 -3.1674  1.4364 -2.6258
 6303TIP3    H240325   5.584   3.859   6.690  0.9859  0.2199 -0.0692
 6304TIP3   OH240326   4.877   2.915   1.423  0.1999  1.0358 -0.1998
 6304TIP3    H140327   4.896   2.865   1.502 -0.4434  1.1156  0.0076
 6304TIP3    H240328   4.782   2.923   1.421  0.2870  2.3266 -0.1841
 6305TIP3   OH240329   4.880   5.814   0.021  0.4817  0.3295 -0.2068
 6305TIP3    H140330   4.859   5.780  -0.066  0.6864 -0.4736  0.0503
 6305TIP3    H240331   4.950   5.757   0.053  0.6068  0.7990  0.3695
 6306TIP3   OH240332   3.899   0.621   0.355  0.1454 -0.0973  0.2269
 6306TIP3    H140333   3.917   0.595   0.264 -1.0804  0.0697 -0.0767
 6306TIP3    H240334   3.863   0.709   0.348  1.9159  0.7476  1.0595
 6307TIP3   OH240335   5.408   0.771  11.551  0.5701  0.0673  0.3018
 6307TIP3    H140336   5.472   0.765  11.480 -2.1114  0.8850 -2.4060
 6307TIP3    H240337   5.382   0.680  11.568  1.1115 -0.1195  0.1414
 6308TIP3   OH240338   2.930   6.062   6.115  0.0948  0.3441  0.5088
 6308TIP3    H140339   2.963   6.035   6.029 -0.0858 -0.0835  0.5729
 6308TIP3    H240340   2.918   6.157   6.107 -3.4267 -0.0818 -1.1980
 6309TIP3   OH240341   2.648   5.279  12.969 -0.4438 -0.0732  0.3187
 6309TIP3    H140342   2.718   5.340  12.992  0.8834 -0.9766 -1.0481
 6309TIP3    H240343   2.568   5.329  12.978  0.5244  1.5896  0.1400
 6310TIP3   OH240344   4.061   5.207   4.562  0.0737 -0.7063  0.0162
 6310TIP3    H140345   4.011   5.142   4.514 -0.8839 -0.2229  0.3438
 6310TIP3    H240346   4.150   5.200   4.526 -0.2258 -1.5447 -0.5904
 6311TIP3   OH240347   3.352   3.832   6.000  0.4409  0.0386 -0.1280
 6311TIP3    H140348   3.443   3.845   6.029  0.5603  1.4128 -0.9975
 6311TIP3    H240349   3.354   3.749   5.953  1.4518  0.4062 -0.7929
 6312TIP3   OH240350   6.176   4.809   3.992 -0.5627 -0.1328  0.4625
 6312TIP3    H140351   6.158   4.716   3.983 -0.6758 -0.0875  0.2030
 6312TIP3    H240352   6.265   4.820   3.960 -0.8927 -0.0042 -0.4497
 6313TIP3   OH240353   5.869   3.402  13.832  0.1292 -0.2252 -0.4678
 6313TIP3    H140354   5.938   3.361  13.884 -0.5084 -0.4970  0.1734
 6313TIP3    H240355   5.817   3.329  13.800 -1.0842  0.0527  0.7799
 6314TIP3   OH240356   0.778   3.919   4.284  0.2580 -0.4861  0.3717
 6314TIP3    H140357   0.827   3.837   4.281  1.3479  0.1716 -0.9152
 6314TIP3    H240358   0.845   3.987   4.287 -0.5787  0.4149 -0.3878
 6315TIP3   OH240359   4.638   1.994  11.943  0.0570  0.5980 -0.2294
 6315TIP3    H140360   4.686   1.987  11.860 -1.2000 -1.0305 -0.8788
 6315TIP3    H240361   4.628   2.089  11.956  2.0675  0.9464 -0.8265
 6316TIP3   OH240362   3.705   2.814   3.337 -0.6291 -0.2258  0.0391
 6316TIP3    H140363   3.778   2.787   3.393  0.8240  0.7405 -1.2950
 6316TIP3    H240364   3.681   2.734   3.290  1.3587 -0.0656 -1.3998
 6317TIP3   OH240365   1.552   5.514  14.039 -0.0030 -0.4864 -0.6456
 6317TIP3    H140366   1.606   5.440  14.065  1.2595  0.0379 -1.6895
 6317TIP3    H240367   1.604   5.561  13.974 -0.6923  1.4021  0.0824
 6318TIP3   OH240368   0.617   2.749   0.587 -0.4708  0.1682  0.1566
 6318TIP3    H140369   0.619   2.815   0.518  2.6492 -1.3376 -1.3861
 6318TIP3    H240370   0.588   2.669   0.543  0.0626 -0.4796  0.9632
 6319TIP3   OH240371   2.701   0.404   5.590 -0.2224 -0.3793  0.3179
 6319TIP3    H140372   2.753   0.324   5.586  0.8735  0.3318  0.1489
 6319TIP3    H240373   2.744   0.457   5.657 -1.6061 -0.3805  1.2516
 6320TIP3   OH240374   2.869   5.629  14.581 -0.1857  0.4945 -0.1032
 6320TIP3    H140375   2.789   5.652  14.629 -0.4610 -0.3378 -0.1559
 6320TIP3    H240376   2.855   5.665  14.494 -0.5312  0.3078 -0.1292
 6321TIP3   OH240377   0.125   3.443   2.717 -0.2693 -0.2925  0.4082
 6321TIP3    H140378   0.117   3.381   2.645  1.4182  1.4334 -1.4015
 6321TIP3    H240379   0.079   3.522   2.687  0.3785  0.4285  1.2345
 6322TIP3   OH240380   4.313   2.475   0.557 -0.0218  0.1827 -0.1628
 6322TIP3    H140381   4.282   2.496   0.469 -2.1035  1.8253  0.8516
 6322TIP3    H240382   4.330   2.560   0.598  2.3256 -0.5792  0.6035
 6323TIP3   OH240383   0.372   3.974   4.012 -0.2431 -0.0801  0.1089
 6323TIP3    H140384   0.308   3.903   4.006  0.0507 -0.3922  0.5813
 6323TIP3    H240385   0.421   3.955   4.092  0.9860 -0.3121 -0.6638
 6324TIP3   OH240386   2.654   2.995   1.618 -0.1788 -0.3364 -0.4476
 6324TIP3    H140387   2.611   3.004   1.533 -1.0082 -0.6889 -0.0776
 6324TIP3    H240388   2.722   3.062   1.617 -1.6694  1.2678 -0.4957
 6325TIP3   OH240389   6.400   0.061   3.304 -0.2622  0.3329 -1.0840
 6325TIP3    H140390   6.492   0.084   3.289  0.1600 -0.1359  0.5315
 6325TIP3    H240391   6.359   0.144   3.329 -0.1691  0.4503 -1.3141
 6326TIP3   OH240392   6.769   1.567   2.124 -0.1237  0.1138 -0.1580
 6326TIP3    H140393   6.836   1.629   2.151 -1.8256  1.3600  1.4470
 6326TIP3    H240394   6.794   1.484   2.166  0.8177  0.3274 -0.2668
 6327TIP3   OH240395   0.303   2.451   1.286  0.6883  0.0061 -0.1782
 6327TIP3    H140396   0.216   2.418   1.263  0.8986 -0.4788 -0.2835
 6327TIP3    H240397   0.335   2.390   1.353  1.1161 -0.0560 -0.4379
 6328TIP3   OH240398   0.802   4.099   4.869 -0.0947  0.3730  0.0154
 6328TIP3    H140399   0.866   4.093   4.798 -0.6626  1.0051 -0.5557
 6328TIP3    H240400   0.729   4.045   4.841  0.6577 -1.3611  1.2193
 6329TIP3   OH240401   2.547   1.844   4.628  0.2685  0.0727  0.5014
 6329TIP3    H140402   2.577   1.923   4.675  0.9101  0.2084 -0.1167
 6329TIP3    H240403   2.455   1.836   4.652  0.4376  0.4544  1.3477
 6330TIP3   OH240404   2.162   0.175   2.221 -0.0002 -0.0423 -0.2847
 6330TIP3    H140405   2.075   0.142   2.200 -0.5028  1.3412 -0.4707
 6330TIP3    H240406   2.147   0.244   2.286  0.9659  0.0970 -0.1911
 6331TIP3   OH240407   1.253   2.336  13.957 -0.1745 -0.4283  0.7612
 6331TIP3    H140408   1.344   2.347  13.929 -0.5745 -1.9767 -1.3723
 6331TIP3    H240409   1.258   2.270  14.027  0.3743 -0.0455  1.0983
 6332TIP3   OH240410   2.784   2.344   5.000  0.1728 -0.3417  0.1125
 6332TIP3    H140411   2.869   2.302   4.990 -0.3359 -1.1474 -1.0648
 6332TIP3    H240412   2.737   2.323   4.919 -0.3416  1.9892 -0.2640
 6333TIP3   OH240413   4.675   3.036  16.131 -0.0315 -0.0930  0.3116
 6333TIP3    H140414   4.696   2.974  16.061  0.6612 -0.7360  1.0714
 6333TIP3    H240415   4.591   3.073  16.106 -0.0750 -0.7622 -0.5557
 6334TIP3   OH240416   1.920   4.389   4.258 -0.0847  0.0573 -0.0523
 6334TIP3    H140417   1.845   4.336   4.284  2.9382 -3.3784  2.5579
 6334TIP3    H240418   1.983   4.327   4.223  2.3108  2.4892 -0.3900
 6335TIP3   OH240419   3.250   2.696   5.152 -0.5601  0.1747 -0.4778
 6335TIP3    H140420   3.171   2.699   5.207 -0.1381  1.9053  0.0801
 6335TIP3    H240421   3.322   2.712   5.213 -0.0291  1.4211 -1.4117
 6336TIP3   OH240422   2.700   1.818  16.628  0.0305  0.0160 -0.3754
 6336TIP3    H140423   2.647   1.895  16.608  0.6148  0.4394 -0.3483
 6336TIP3    H240424   2.765   1.815  16.557  1.2265  0.6983  0.6467
 6337TIP3   OH240425   3.024   6.094   4.518 -0.6822 -0.1844 -0.3311
 6337TIP3    H140426   2.930   6.074   4.513 -0.6543 -0.2111 -0.7311
 6337TIP3    H240427   3.049   6.116   4.429 -0.0620 -1.2234 -0.4200
 6338TIP3   OH240428   3.845   6.328   1.660 -0.2901 -0.3665 -0.0550
 6338TIP3    H140429   3.757   6.346   1.625  0.4786  1.8406 -1.0597
 6338TIP3    H240430   3.830   6.301   1.750 -1.9393  1.8010  0.4001
 6339TIP3   OH240431   5.194   3.692  11.553  0.1554  0.0490 -0.3102
 6339TIP3    H140432   5.143   3.705  11.473  0.7218  0.9267 -0.5503
 6339TIP3    H240433   5.279   3.732  11.534 -0.2280  1.7635  1.2796
 6340TIP3   OH240434   4.554   4.525   3.009 -0.1646 -0.0213  0.2536
 6340TIP3    H140435   4.558   4.610   2.967  0.5019 -0.5098 -0.7113
 6340TIP3    H240436   4.629   4.524   3.069  0.0680 -0.0783 -0.0367
 6341TIP3   OH240437   1.631   6.429   0.379  0.3449  0.3295  0.1446
 6341TIP3    H140438   1.651   6.355   0.323  1.0591  0.1634  0.6112
 6341TIP3    H240439   1.541   6.453   0.356 -0.6378 -1.9313  1.3500
 6342TIP3   OH240440   0.639   6.087   2.464 -0.0022  0.2549  0.4163
 6342TIP3    H140441   0.695   6.140   2.522  0.9073 -0.6026  0.3453
 6342TIP3    H240442   0.698   6.020   2.429 -1.7471 -2.8754  2.9976
 6343TIP3   OH240443   2.685   1.007  12.861 -0.0162  0.2425  0.5399
 6343TIP3    H140444   2.606   1.033  12.908  0.7178  0.6643  1.5800
 6343TIP3    H240445   2.718   1.087  12.821  0.2395  0.1981  0.6576
 6344TIP3   OH240446   4.955   3.195   0.750 -0.0994  0.0728  0.6861
 6344TIP3    H140447   5.015   3.263   0.779  0.6705 -0.3690  0.1889
 6344TIP3    H240448   5.004   3.113   0.762  0.2355 -0.1406 -1.6903
 6345TIP3   OH240449   1.047   1.247   4.691  0.6054 -0.4266 -0.3200
 6345TIP3    H140450   1.134   1.286   4.683  0.7070 -0.9790 -3.4500
 6345TIP3    H240451   1.027   1.215   4.603 -3.3642  0.8974 -0.1267
 6346TIP3   OH240452   1.686   1.362   3.293  0.0084 -0.0125 -0.1426
 6346TIP3    H140453   1.730   1.368   3.208 -2.0443 -0.4153 -1.2953
 6346TIP3    H240454   1.660   1.270   3.300 -0.5586  0.1881  0.5375
 6347TIP3   OH240455   1.044   2.563  16.814  0.7996  0.1661 -0.0877
 6347TIP3    H140456   0.983   2.594  16.747 -0.0731 -1.7281 -0.2517
 6347TIP3    H240457   1.116   2.626  16.812 -0.7094  1.9706 -0.5283
 6348TIP3   OH240458   5.802   0.069   5.540 -0.1567 -0.3844  0.3551
 6348TIP3    H140459   5.809   0.002   5.472  1.4275 -0.9364  1.0281
 6348TIP3    H240460   5.731   0.038   5.597 -0.5113 -0.6491 -0.2205
 6349TIP3   OH240461   5.844   1.019   4.963  0.2041  0.0368 -0.1967
 6349TIP3    H140462   5.786   0.962   5.014  0.4331 -0.0991 -0.0863
 6349TIP3    H240463   5.845   1.102   5.012 -0.5809  0.3351 -0.6630
 6350TIP3   OH240464   5.514   3.576  12.615 -0.6399  0.0645  0.0686
 6350TIP3    H140465   5.472   3.506  12.565  2.5554 -0.7768 -1.7383
 6350TIP3    H240466   5.553   3.633  12.549 -0.5174  1.8063  1.5826
 6351TIP3   OH240467   3.943   1.327   5.517  0.4404 -0.0875  0.1417
 6351TIP3    H140468   3.951   1.303   5.609 -2.3559 -0.6733  0.3118
 6351TIP3    H240469   4.017   1.283   5.474  0.7865 -1.2583  1.8441
 6352TIP3   OH240470   5.366   1.069  15.575  0.0692  0.5771  0.1402
 6352TIP3    H140471   5.455   1.098  15.594 -0.2889  0.9875  1.3610
 6352TIP3    H240472   5.361   1.065  15.480  1.4621  0.2845  0.0620
 6353TIP3   OH240473   0.130   1.572   1.662  0.1190 -1.0293  0.0294
 6353TIP3    H140474   0.187   1.588   1.737 -1.3726  0.5041  0.9413
 6353TIP3    H240475   0.097   1.483   1.676  2.8614 -2.3104 -1.0095
 6354TIP3   OH240476   5.184   2.822  15.035 -0.5882  0.6477 -0.1435
 6354TIP3    H140477   5.143   2.747  15.079 -0.2800  0.7177  0.2642
 6354TIP3    H240478   5.184   2.798  14.942 -1.6247  0.6749 -0.1653
 6355TIP3   OH240479   2.691   3.312  15.020 -0.0395  0.3355  1.0475
 6355TIP3    H140480   2.620   3.343  14.964  1.7846 -0.0036 -1.6156
 6355TIP3    H240481   2.767   3.362  14.991  1.2189 -0.6753  2.4778
 6356TIP3   OH240482   5.126   3.953   2.595  0.3902 -0.2132 -0.2046
 6356TIP3    H140483   5.217   3.924   2.589  0.5446 -0.0746  1.1905
 6356TIP3    H240484   5.132   4.046   2.617 -0.0237 -0.7473  2.4761
 6357TIP3   OH240485   6.305   1.231   5.571 -0.0007 -0.3868  0.0866
 6357TIP3    H140486   6.235   1.196   5.626  0.6200  0.1560  1.2624
 6357TIP3    H240487   6.307   1.325   5.591  0.5724 -0.2689 -0.4813
 6358TIP3   OH240488   1.498   5.096  15.495  0.2768 -0.3146 -0.2141
 6358TIP3    H140489   1.553   5.018  15.483 -0.8013 -1.3950  1.4264
 6358TIP3    H240490   1.449   5.078  15.575  0.8558  2.5857  0.9003
 6359TIP3   OH240491   0.665   4.193  11.221 -0.3766  0.8049 -0.9101
 6359TIP3    H140492   0.673   4.259  11.290 -1.2715  0.9518 -0.9365
 6359TIP3    H240493   0.572   4.170  11.221  0.2725 -2.4908  0.9754
 6360TIP3   OH240494   1.469   2.925   2.624  0.0682 -0.1605 -0.4820
 6360TIP3    H140495   1.561   2.911   2.643  0.4694  2.0743 -0.5644
 6360TIP3    H240496   1.455   2.883   2.539  0.6090 -1.7347  0.1613
 6361TIP3   OH240497   5.765   5.793   1.205  0.4504 -0.4645 -0.3976
 6361TIP3    H140498   5.741   5.764   1.117 -0.2492  1.3008 -0.8526
 6361TIP3    H240499   5.682   5.820   1.245  0.4569 -2.9387  1.5515
 6362TIP3   OH240500   1.395   5.643   5.814  0.3771 -0.4552  0.0573
 6362TIP3    H140501   1.484   5.679   5.817  0.1668  0.1486 -0.8277
 6362TIP3    H240502   1.408   5.549   5.827  1.0232 -0.2194  1.2580
 6363TIP3   OH240503   2.466   1.630   6.365 -0.0922 -0.2043 -0.7129
 6363TIP3    H140504   2.436   1.708   6.411  0.1751 -0.7081  0.3596
 6363TIP3    H240505   2.553   1.653   6.332 -0.7437  0.5342 -1.9566
 6364TIP3   OH240506   2.369   5.762   2.387 -0.5878 -0.6632 -0.1791
 6364TIP3    H140507   2.416   5.687   2.350 -0.3307 -0.6212  0.0586
 6364TIP3    H240508   2.315   5.795   2.315 -0.8860 -1.2248 -0.2195
 6365TIP3   OH240509   6.056   2.136   4.806  0.1510 -0.0088  0.0753
 6365TIP3    H140510   5.991   2.102   4.744  0.0274  0.0114  0.1929
 6365TIP3    H240511   6.071   2.065   4.867 -0.4031  0.2774  0.5536
 6366TIP3   OH240512   3.699   2.550  13.028  0.3938 -0.0915 -0.1818
 6366TIP3    H140513   3.714   2.642  13.007  1.8036 -0.3786 -0.5227
 6366TIP3    H240514   3.772   2.503  12.987 -0.2436 -1.3547  0.0678
 6367TIP3   OH240515   0.172   2.622   1.939 -0.0461 -0.0468  0.4698
 6367TIP3    H140516   0.175   2.613   2.035  0.0874  0.0548  0.4749
 6367TIP3    H240517   0.245   2.680   1.918 -1.7275  2.2104  0.5785
 6368TIP3   OH240518   3.502   5.263   6.088  0.0695 -0.4701  0.2085
 6368TIP3    H140519   3.567   5.331   6.105  0.5845 -1.1191  0.8913
 6368TIP3    H240520   3.417   5.305   6.104  0.2670  0.5500 -1.2483
 6369TIP3   OH240521   5.396   0.131   1.393 -0.1544  1.0154  0.4296
 6369TIP3    H140522   5.477   0.086   1.368 -1.0009 -0.4130  0.1694
 6369TIP3    H240523   5.397   0.130   1.489  0.1212  1.0028  0.4288
 6370TIP3   OH240524   0.197   1.187  11.088  0.4286  0.2296  0.2313
 6370TIP3    H140525   0.238   1.270  11.066  0.3449  0.9710  2.6260
 6370TIP3    H240526   0.174   1.194  11.180  1.2231 -2.7728  0.7881
 6371TIP3   OH240527   6.293   1.845  13.302  0.2970 -0.5207 -0.0764
 6371TIP3    H140528   6.378   1.806  13.281  0.5307 -0.4255  0.6797
 6371TIP3    H240529   6.232   1.804  13.240  0.5616 -1.9597  0.5814
 6372TIP3   OH240530   1.588   4.000  15.970  0.3665  0.1894 -0.1402
 6372TIP3    H140531   1.580   3.917  16.018 -1.2169 -0.3919 -1.3186
 6372TIP3    H240532   1.600   4.066  16.038 -0.3900 -0.7746  0.9648
 6373TIP3   OH240533   6.656   2.886  13.900  0.1351  0.0558  0.9024
 6373TIP3    H140534   6.736   2.857  13.856 -0.4767 -0.3942  0.0537
 6373TIP3    H240535   6.600   2.808  13.898 -1.9867  1.4541 -2.3948
 6374TIP3   OH240536   1.176   6.661  15.868 -0.2023  0.0491  0.2270
 6374TIP3    H140537   1.104   6.715  15.836  0.4145  1.5722  1.3236
 6374TIP3    H240538   1.152   6.639  15.958 -0.4184 -1.5180 -0.1761
 6375TIP3   OH240539   6.043   2.936  14.958  0.7006 -0.1832 -0.1198
 6375TIP3    H140540   6.015   2.985  15.036  1.5442  0.1032  0.0188
 6375TIP3    H240541   6.015   2.846  14.974 -1.4110  0.3273 -0.6414
 6376TIP3   OH240542   4.333   5.367  12.528 -1.1804  0.6038  0.1153
 6376TIP3    H140543   4.253   5.354  12.579 -2.5218  2.3951 -1.3739
 6376TIP3    H240544   4.320   5.315  12.449 -1.6528  2.1654 -0.8693
 6377TIP3   OH240545   6.346   4.974  16.528 -0.0970 -0.3512  0.1626
 6377TIP3    H140546   6.365   4.883  16.502 -0.2993 -0.4029  0.1953
 6377TIP3    H240547   6.418   4.997  16.587  0.3532 -0.2392 -0.4200
 6378TIP3   OH240548   0.073   1.309   1.514 -0.2050  0.3878  0.2740
 6378TIP3    H140549   0.020   1.318   1.593  0.4466  1.2717  0.6242
 6378TIP3    H240550   0.106   1.219   1.517 -2.3101 -0.4622 -0.3676
 6379TIP3   OH240551   1.372   1.830   0.532 -0.3845  0.3277  0.3070
 6379TIP3    H140552   1.364   1.908   0.476 -1.4078  0.4063  0.5482
 6379TIP3    H240553   1.438   1.776   0.488 -1.5485  0.1479 -1.2869
 6380TIP3   OH240554   3.951   4.251   5.130  0.5328  0.3035 -0.3634
 6380TIP3    H140555   3.887   4.183   5.149 -0.3312 -0.0629 -3.9031
 6380TIP3    H240556   4.035   4.213   5.156 -0.3594 -0.1990  1.9977
 6381TIP3   OH240557   1.727   6.625   4.782 -0.1313 -0.0889  0.0169
 6381TIP3    H140558   1.756   6.664   4.699 -2.2890  1.7247  0.0322
 6381TIP3    H240559   1.803   6.634   4.840  1.2019 -0.8048 -1.5163
 6382TIP3   OH240560   1.876   2.964   4.752 -0.1215 -0.5161  0.1476
 6382TIP3    H140561   1.834   3.003   4.828  1.3229 -0.2738  0.8512
 6382TIP3    H240562   1.880   3.035   4.688 -0.8619 -0.5717  0.0337
 6383TIP3   OH240563   6.064   1.528  12.089  0.2921  0.3332 -0.0164
 6383TIP3    H140564   6.157   1.543  12.106  0.5927 -1.6831  0.3930
 6383TIP3    H240565   6.058   1.434  12.071 -1.6322  0.4742 -0.3083
 6384TIP3   OH240566   1.655   3.612   3.100 -0.3421 -0.0168 -0.4050
 6384TIP3    H140567   1.586   3.678   3.108 -1.5245 -1.4086  3.4540
 6384TIP3    H240568   1.713   3.629   3.174 -0.0444 -2.5218  0.0394
 6385TIP3   OH240569   0.816   1.509  12.512  0.2400 -0.2526  0.4322
 6385TIP3    H140570   0.860   1.575  12.565  0.5169  0.2283 -0.3785
 6385TIP3    H240571   0.733   1.550  12.487  1.1879  0.5414 -1.5869
 6386TIP3   OH240572   2.739   4.194   5.940 -0.3052 -0.1413  0.7582
 6386TIP3    H140573   2.701   4.244   5.868  1.1679 -0.2967 -0.1465
 6386TIP3    H240574   2.787   4.259   5.991 -1.0117 -0.1040  1.3950
 6387TIP3   OH240575   4.410   5.312  13.278 -0.4544  0.2798  0.4330
 6387TIP3    H140576   4.488   5.256  13.271  0.5050  1.2918  2.2433
 6387TIP3    H240577   4.352   5.265  13.337 -0.8271 -0.0569 -0.2005
 6388TIP3   OH240578   5.218   6.663   4.163 -0.5992  1.2345 -0.2208
 6388TIP3    H140579   5.286   6.662   4.231  0.6148 -2.4725 -1.2814
 6388TIP3    H240580   5.136   6.670   4.212  0.1285 -2.6061  1.9662
 6389TIP3   OH240581   5.857   0.858  15.775  0.0844  0.1881  0.2350
 6389TIP3    H140582   5.865   0.767  15.806  2.1005  1.0425  2.5236
 6389TIP3    H240583   5.765   0.867  15.753  0.4009 -3.5813 -4.2663
 6390TIP3   OH240584   1.258   5.973   3.745  0.0559  0.0112  0.2125
 6390TIP3    H140585   1.183   6.028   3.767 -0.0662  0.3920 -1.0854
 6390TIP3    H240586   1.334   6.029   3.758  0.1146 -0.2990  1.2899
 6391TIP3   OH240587   0.209   1.797   4.972 -0.1878 -0.2214  0.1739
 6391TIP3    H140588   0.196   1.747   4.891  2.2712  0.7354 -0.9078
 6391TIP3    H240589   0.201   1.888   4.945  2.1684  0.1753  0.6332
 6392TIP3   OH240590   4.661   0.415  13.992 -0.2252  0.1028  0.1151
 6392TIP3    H140591   4.756   0.415  13.984 -0.1202  0.9848  1.2994
 6392TIP3    H240592   4.644   0.407  14.086 -1.3098  0.9968  0.0077
 6393TIP3   OH240593   5.674   4.856   4.255  0.0193  0.5063 -0.3353
 6393TIP3    H140594   5.666   4.805   4.336  0.1011 -2.8651 -2.2568
 6393TIP3    H240595   5.589   4.898   4.245  0.3379  1.8411  1.9431
 6394TIP3   OH240596   6.521   1.598   5.473  0.0630 -1.1040  0.1946
 6394TIP3    H140597   6.533   1.598   5.378 -0.7913 -1.3403  0.0731
 6394TIP3    H240598   6.546   1.686   5.501  2.5646 -1.7078  0.0827
 6395TIP3   OH240599   4.127   3.758  11.984 -0.0710 -1.2967  0.2136
 6395TIP3    H140600   4.036   3.749  11.956 -0.7084 -1.1626  2.0766
 6395TIP3    H240601   4.121   3.780  12.077  1.7658  1.8971 -0.2829
 6396TIP3   OH240602   2.514   0.047  12.346 -0.3992 -0.1694 -0.6466
 6396TIP3    H140603   2.482   0.045  12.436  1.4294  1.6694  0.1430
 6396TIP3    H240604   2.439   0.076  12.295 -0.9836  0.6156  0.5913
 6397TIP3   OH240605   0.723   1.861  12.488  0.4214 -0.6936  0.0208
 6397TIP3    H140606   0.769   1.927  12.437 -0.5440  0.7805  0.9874
 6397TIP3    H240607   0.780   1.844  12.563 -0.3723  0.8435  1.0140
 6398TIP3   OH240608   1.903   1.779   2.104  0.2842  0.0948  0.1009
 6398TIP3    H140609   1.891   1.684   2.107  3.2943 -0.3365  2.0189
 6398TIP3    H240610   1.972   1.793   2.039  1.1193  0.7789  1.1095
 6399TIP3   OH240611   6.507   3.838   3.642  0.0516  0.0352 -0.1138
 6399TIP3    H140612   6.509   3.816   3.548 -1.8669 -0.4123 -0.0962
 6399TIP3    H240613   6.433   3.787   3.676  0.5435  0.4157  1.6017
 6400TIP3   OH240614   3.143   3.071  11.072 -0.2105 -0.5282 -0.5132
 6400TIP3    H140615   3.218   3.131  11.066 -1.1193  0.7403  0.3679
 6400TIP3    H240616   3.131   3.039  10.983  1.3304 -0.7208 -0.6907
 6401TIP3   OH240617   0.186   5.969   4.367 -0.3905 -0.2715  0.1606
 6401TIP3    H140618   0.208   5.916   4.290  3.2025  0.0594  0.8099
 6401TIP3    H240619   0.174   5.906   4.438  2.6421 -0.4186  0.6533
 6402TIP3   OH240620   2.732   4.959  17.096 -0.3045  0.1815  0.0730
 6402TIP3    H140621   2.785   4.933  17.171 -0.8153 -0.8097  0.1154
 6402TIP3    H240622   2.700   4.876  17.060 -0.0569  0.6343 -1.2507
 6403TIP3   OH240623   0.833   1.854   3.456  0.3995  0.1727 -0.2599
 6403TIP3    H140624   0.849   1.772   3.503  1.3748 -0.3305 -1.4162
 6403TIP3    H240625   0.918   1.896   3.450  0.2213  0.4126 -1.2360
 6404TIP3   OH240626   3.079   2.347  15.782 -0.2505  0.1839 -0.3233
 6404TIP3    H140627   3.119   2.432  15.801 -1.9580  0.5733  2.0264
 6404TIP3    H240628   3.097   2.294  15.859  1.0375 -1.7787 -1.8667
 6405TIP3   OH240629   1.948   3.009   3.559 -0.0429  0.9290  0.0014
 6405TIP3    H140630   1.911   3.083   3.608 -1.5990 -0.0787  0.4060
 6405TIP3    H240631   1.959   2.940   3.624  0.6451  0.5251 -0.5300
 6406TIP3   OH240632   4.696   4.738   2.894 -0.1407 -0.9599 -0.2305
 6406TIP3    H140633   4.778   4.710   2.854  0.0825 -1.3563  0.4961
 6406TIP3    H240634   4.719   4.815   2.945  0.0424 -1.7849  0.9725
 6407TIP3   OH240635   5.673   4.338  15.475 -0.0842 -0.4903 -0.6853
 6407TIP3    H140636   5.640   4.405  15.535 -2.2149 -0.6634 -1.5942
 6407TIP3    H240637   5.659   4.375  15.388 -0.2539 -1.6521 -1.1644
 6408TIP3   OH240638   3.506   2.458   2.599  0.1182  0.0041 -0.2240
 6408TIP3    H140639   3.495   2.497   2.686  1.4813 -1.3942  0.6205
 6408TIP3    H240640   3.579   2.506   2.560  1.3925 -1.1974  0.5754
 6409TIP3   OH240641   2.955   2.689   5.962 -0.7424 -0.1438  0.2673
 6409TIP3    H140642   3.006   2.686   6.043 -1.7504 -0.6663  0.9029
 6409TIP3    H240643   2.970   2.603   5.922 -0.3392  0.0706 -0.0504
 6410TIP3   OH240644   3.935   3.817  15.211 -0.2035  0.0748 -0.5339
 6410TIP3    H140645   3.976   3.901  15.230  2.9214 -1.6468  1.2895
 6410TIP3    H240646   3.923   3.816  15.116  3.7532  1.0425 -1.2256
 6411TIP3   OH240647   1.047   4.958   4.503 -0.0267  0.4718  0.1744
 6411TIP3    H140648   1.010   5.043   4.528 -0.2107  0.0069  1.6206
 6411TIP3    H240649   0.971   4.908   4.473 -0.1784  0.3185  0.8031
 6412TIP3   OH240650   0.571   6.455  15.868 -0.0505 -0.2711  0.7617
 6412TIP3    H140651   0.576   6.359  15.866  2.4021 -0.2260  0.8950
 6412TIP3    H240652   0.634   6.481  15.935 -2.6134  1.4190  2.6707
 6413TIP3   OH240653   1.499   2.595   2.356  0.1726  0.1650  0.1423
 6413TIP3    H140654   1.495   2.513   2.307  0.6442  0.7647 -0.9554
 6413TIP3    H240655   1.536   2.572   2.441  1.9236 -0.5057 -0.7608
 6414TIP3   OH240656   0.231   2.305   1.804  0.1387 -0.2635  0.2563
 6414TIP3    H140657   0.255   2.240   1.870 -1.3298 -1.7978 -0.6376
 6414TIP3    H240658   0.201   2.253   1.729  1.1799  1.4186 -1.4263
 6415TIP3   OH240659   0.662   5.159  15.741 -0.0808  0.2023  0.4708
 6415TIP3    H140660   0.603   5.230  15.715  0.2606 -0.4135 -2.2953
 6415TIP3    H240661   0.735   5.165  15.680 -0.5394 -3.1334 -0.5948
 6416TIP3   OH240662   3.138   4.020  15.064 -0.1247 -0.1105  0.1041
 6416TIP3    H140663   3.142   4.111  15.033  0.5529 -0.1148  0.1808
 6416TIP3    H240664   3.044   4.000  15.066 -0.2300  0.1080 -1.3064
 6417TIP3   OH240665   6.035   5.029   0.303 -0.2796  0.3004  0.2748
 6417TIP3    H140666   5.976   5.102   0.320 -2.3271 -1.6807  2.5424
 6417TIP3    H240667   6.048   5.030   0.208 -2.0630  2.2279 -0.0348
 6418TIP3   OH240668   4.924   2.885  14.527 -0.0303  0.6546 -0.1615
 6418TIP3    H140669   4.988   2.874  14.456  0.5410 -1.6496  0.6172
 6418TIP3    H240670   4.974   2.921  14.599 -0.3484  1.8401 -0.5057
 6419TIP3   OH240671   1.273   6.294  11.734  0.6499  0.1932  0.1886
 6419TIP3    H140672   1.183   6.269  11.757  0.4857  0.9864  0.4391
 6419TIP3    H240673   1.268   6.321  11.643  0.9411 -1.1846 -0.2653
 6420TIP3   OH240674   1.675   4.075   4.388 -0.3792 -0.5048  0.6131
 6420TIP3    H140675   1.586   4.049   4.409 -0.0250 -0.7058  1.9834
 6420TIP3    H240676   1.665   4.146   4.324 -1.4303 -1.9363 -0.8990
 6421TIP3   OH240677   4.059   0.494   4.299  0.3646 -0.7320 -0.7147
 6421TIP3    H140678   3.976   0.540   4.314  0.0617 -1.9941  2.3380
 6421TIP3    H240679   4.047   0.409   4.342  2.8326 -1.4404 -1.2617
 6422TIP3   OH240680   1.830   2.930   2.939 -0.2705  0.0334  0.4880
 6422TIP3    H140681   1.753   2.874   2.957 -1.1482 -0.7498 -4.3294
 6422TIP3    H240682   1.903   2.869   2.937 -0.1543  0.1374  1.2841
 6423TIP3   OH240683   3.204   0.113  13.158  0.4034  0.1198 -0.2353
 6423TIP3    H140684   3.201   0.043  13.223 -2.2192  0.1708 -0.1962
 6423TIP3    H240685   3.282   0.163  13.181  1.0406 -1.4090  1.1855
 6424TIP3   OH240686   2.446   6.734   6.486 -0.1719 -0.0796 -0.0844
 6424TIP3    H140687   2.424   6.670   6.554  1.4075 -0.8433 -0.2475
 6424TIP3    H240688   2.529   6.771   6.514 -0.6239  1.2654 -0.4673
 6425TIP3   OH240689   5.280   4.835  12.909  0.7874 -0.3138  0.7359
 6425TIP3    H140690   5.266   4.742  12.927  1.2557 -0.8800 -1.4729
 6425TIP3    H240691   5.265   4.843  12.815  3.4371  1.2797  0.3470
 6426TIP3   OH240692   2.650   6.221  12.052 -0.0021 -0.8518 -0.0363
 6426TIP3    H140693   2.729   6.249  12.006 -0.0554  0.2700  0.5318
 6426TIP3    H240694   2.664   6.128  12.069  1.8787 -0.3735  1.3678
 6427TIP3   OH240695   6.497   5.201   1.889  0.7122  0.8055  0.5122
 6427TIP3    H140696   6.501   5.188   1.983  0.8521 -0.6428  0.3186
 6427TIP3    H240697   6.585   5.180   1.857  0.6601  1.2514  0.0442
 6428TIP3   OH240698   5.707   6.580  11.837  0.0253 -0.3046  0.0418
 6428TIP3    H140699   5.794   6.541  11.835  0.5360  0.7126  1.1434
 6428TIP3    H240700   5.672   6.566  11.749  2.6513  2.2793 -1.6120
 6429TIP3   OH240701   4.992   6.073   0.042 -0.2934  0.5410 -0.3326
 6429TIP3    H140702   4.960   5.986   0.063 -0.6111  0.6183 -0.4835
 6429TIP3    H240703   4.949   6.095  -0.041  0.1399  0.6558 -0.5293
 6430TIP3   OH240704   6.430   3.814  13.031 -0.1276 -0.2507 -0.0823
 6430TIP3    H140705   6.477   3.897  13.033 -2.9518  1.4979 -0.9549
 6430TIP3    H240706   6.408   3.796  13.122 -0.0591  0.2825  0.0403
 6431TIP3   OH240707   6.575   1.887   2.156 -0.3443 -0.1360 -0.6262
 6431TIP3    H140708   6.577   1.799   2.119  2.0029 -0.9735  1.2546
 6431TIP3    H240709   6.572   1.874   2.251 -0.8062  1.8444 -0.3109
 6432TIP3   OH240710   0.765   5.120   3.485  0.8996 -0.3344  0.2735
 6432TIP3    H140711   0.720   5.083   3.560  0.3601  2.9119  1.6983
 6432TIP3    H240712   0.696   5.160   3.432  1.5791 -0.0938 -0.4573
 6433TIP3   OH240713   2.161   2.043  10.948  0.1747 -0.4027  0.1738
 6433TIP3    H140714   2.069   2.062  10.969  0.2373  0.3667 -0.1956
 6433TIP3    H240715   2.158   2.005  10.860  0.2502  0.1259 -0.0610
 6434TIP3   OH240716   1.574   0.102   0.872  0.0969  0.2581  0.0869
 6434TIP3    H140717   1.504   0.048   0.908 -0.4108  0.8942  0.0755
 6434TIP3    H240718   1.639   0.108   0.943 -0.2009  0.2700  0.3600
 6435TIP3   OH240719   2.453   3.408  16.687  0.3735  0.1355 -0.1573
 6435TIP3    H140720   2.449   3.388  16.593 -0.4532  0.2093 -0.1482
 6435TIP3    H240721   2.477   3.501  16.690  1.0510 -0.0306 -0.2762
 6436TIP3   OH240722   4.640   2.267  11.927 -0.0419 -0.0957 -0.6274
 6436TIP3    H140723   4.605   2.311  12.005 -0.7180  0.2164 -1.1012
 6436TIP3    H240724   4.619   2.325  11.855 -0.9229 -1.1677 -1.2639
 6437TIP3   OH240725   2.815   6.343   2.071 -0.3826 -0.0977 -0.1222
 6437TIP3    H140726   2.896   6.300   2.043 -1.3423 -1.3439 -1.1571
 6437TIP3    H240727   2.831   6.368   2.162  0.6429 -1.6341  0.1553
 6438TIP3   OH240728   3.911   5.574  14.246 -0.2578 -0.1392 -0.0038
 6438TIP3    H140729   3.882   5.517  14.316 -0.8227  0.3353  0.1576
 6438TIP3    H240730   4.001   5.598  14.270 -1.3792  2.4281  2.1968
 6439TIP3   OH240731   3.056   3.454  15.607 -0.4181  0.2871  0.2058
 6439TIP3    H140732   3.022   3.368  15.628  0.3002 -0.1035 -0.1989
 6439TIP3    H240733   3.150   3.440  15.593 -0.0417  1.3488  1.4308
 6440TIP3   OH240734   3.758   5.732   3.810  0.1861 -0.2348  0.0782
 6440TIP3    H140735   3.846   5.758   3.783  0.2064  0.0074  0.3663
 6440TIP3    H240736   3.750   5.641   3.782  0.4437 -0.1882 -0.1540
 6441TIP3   OH240737   2.871   0.672  17.227  0.1773 -0.0123  0.1431
 6441TIP3    H140738   2.857   0.681  17.322  0.0023 -1.4155  0.2804
 6441TIP3    H240739   2.884   0.578  17.214  2.5794  0.3894 -0.9198
 6442TIP3   OH240740   4.880   1.607   3.044  0.1697  0.4160 -0.0048
 6442TIP3    H140741   4.897   1.654   3.126  1.9697  0.8378 -0.5782
 6442TIP3    H240742   4.967   1.588   3.009 -0.5133  1.7841 -2.6839
 6443TIP3   OH240743   1.542   0.494  14.665 -0.3319  0.3402  0.5594
 6443TIP3    H140744   1.460   0.544  14.663 -1.3552 -1.2111  1.7215
 6443TIP3    H240745   1.531   0.427  14.598 -0.9942 -1.2296  2.1407
 6444TIP3   OH240746   2.618   3.024  14.995  0.4504 -0.4367 -0.1619
 6444TIP3    H140747   2.624   2.982  15.080 -2.0586 -0.5332  0.0311
 6444TIP3    H240748   2.653   3.112  15.009  0.7728 -0.6974  0.7435
 6445TIP3   OH240749   2.990   2.357  11.712 -0.5833 -0.3620  0.0232
 6445TIP3    H140750   3.011   2.310  11.792 -0.1428 -0.2646 -0.0325
 6445TIP3    H240751   2.975   2.289  11.647  0.0084 -0.4274 -0.0456
 6446TIP3   OH240752   0.412   3.919   2.457 -0.2977  0.1840  0.0126
 6446TIP3    H140753   0.490   3.946   2.409  0.9020 -0.1249  1.6724
 6446TIP3    H240754   0.447   3.878   2.537 -2.1787  0.8899  1.2522
 6447TIP3   OH240755   2.572   2.536   1.043 -0.2771 -0.2534 -0.2097
 6447TIP3    H140756   2.632   2.607   1.068 -0.2699 -0.4212  0.2616
 6447TIP3    H240757   2.497   2.546   1.102 -0.6734 -0.1051 -0.7309
 6448TIP3   OH240758   0.681   4.026   1.361  0.0051 -0.0254 -0.0349
 6448TIP3    H140759   0.680   4.080   1.282  1.3205  0.5023  0.2827
 6448TIP3    H240760   0.693   3.937   1.328 -1.6653 -0.1128 -0.5314
 6449TIP3   OH240761   4.158   4.099   4.134 -0.5416  0.4104 -0.3068
 6449TIP3    H140762   4.253   4.095   4.141 -0.5392 -0.1788 -0.5675
 6449TIP3    H240763   4.127   4.102   4.224 -0.2015  3.8389 -0.1938
 6450TIP3   OH240764   2.748   1.687  12.809 -0.0936  0.1596  0.2742
 6450TIP3    H140765   2.729   1.659  12.720 -1.0050 -1.0347  0.8186
 6450TIP3    H240766   2.810   1.623  12.843 -0.0091  0.4097  0.6093
 6451TIP3   OH240767   3.594   5.201  15.476  0.2311  0.2830 -0.3730
 6451TIP3    H140768   3.634   5.119  15.503 -1.5686  0.4464  3.4677
 6451TIP3    H240769   3.645   5.269  15.521 -1.3045  0.8100  0.6625
 6452TIP3   OH240770   5.698   2.361   4.698  0.0218  0.0616 -0.7582
 6452TIP3    H140771   5.685   2.295   4.765 -0.0696  0.5774 -0.2582
 6452TIP3    H240772   5.707   2.443   4.746  1.3868  0.2560 -1.2896
 6453TIP3   OH240773   3.851   0.692  11.701 -0.4681 -0.1659 -0.4308
 6453TIP3    H140774   3.870   0.633  11.775 -1.0485 -0.1534 -0.2703
 6453TIP3    H240775   3.935   0.734  11.682  0.0187 -1.2300 -0.7092
 6454TIP3   OH240776   1.041   3.068  11.138  0.3242  0.0402 -0.8172
 6454TIP3    H140777   1.038   2.974  11.155  1.0860  0.3319  1.1094
 6454TIP3    H240778   0.953   3.089  11.106  0.2054 -1.3376 -1.4737
 6455TIP3   OH240779   1.915   0.685   2.164  0.3225 -0.1405 -0.5899
 6455TIP3    H140780   1.886   0.652   2.249 -1.6479  2.0434 -0.3117
 6455TIP3    H240781   2.008   0.704   2.176  0.1516 -0.1674  0.9955
 6456TIP3   OH240782   4.236   4.188  11.013 -0.2687  0.1215 -0.0522
 6456TIP3    H140783   4.200   4.246  10.945  0.2419  0.0831 -0.3580
 6456TIP3    H240784   4.177   4.113  11.013  0.7106 -0.7019 -1.7113
 6457TIP3   OH240785   0.705   5.239  17.072 -0.3646  0.5271 -0.4863
 6457TIP3    H140786   0.688   5.150  17.041  0.2311  0.2215  0.0355
 6457TIP3    H240787   0.734   5.287  16.995  0.4051 -0.0294 -0.5502
 6458TIP3   OH240788   4.779   1.465   1.965 -0.1436  0.3958  0.0775
 6458TIP3    H140789   4.789   1.407   1.890 -1.7195  0.3950 -0.1688
 6458TIP3    H240790   4.835   1.540   1.944  1.1663 -0.5687 -0.0380
 6459TIP3   OH240791   6.632   6.304  15.746  0.3918 -0.5986 -0.0546
 6459TIP3    H140792   6.586   6.384  15.721  1.3952  0.5810  1.6738
 6459TIP3    H240793   6.600   6.284  15.834  1.5723 -0.9748  0.3115
 6460TIP3   OH240794   3.246   6.743  13.391  0.5073 -0.6360  0.1204
 6460TIP3    H140795   3.333   6.706  13.406  1.1876  0.0294 -1.8633
 6460TIP3    H240796   3.242   6.819  13.450  2.3695  0.8711 -1.5257
 6461TIP3   OH240797   3.934   6.714  16.797  0.5753  0.3967 -0.1918
 6461TIP3    H140798   3.840   6.725  16.810  0.7501  1.0047  0.6069
 6461TIP3    H240799   3.971   6.801  16.812  1.2168  0.2827 -1.0245
 6462TIP3   OH240800   2.238   0.433   0.752  0.7742  0.0434  0.4506
 6462TIP3    H140801   2.328   0.404   0.741  0.1698 -1.8318 -0.0215
 6462TIP3    H240802   2.199   0.424   0.665 -0.3417 -1.0612  1.0310
 6463TIP3   OH240803   5.308   5.718   3.179 -0.6094  0.0769  0.3025
 6463TIP3    H140804   5.252   5.794   3.168  0.3358  0.9735  1.4366
 6463TIP3    H240805   5.300   5.695   3.271  0.9596  0.3210  0.5329
 6464TIP3   OH240806   3.387   5.406  11.355 -0.4719  0.0799 -0.4034
 6464TIP3    H140807   3.384   5.480  11.294 -2.7863 -0.8818 -1.5972
 6464TIP3    H240808   3.480   5.384  11.361  0.2626  2.9215 -0.1427
 6465TIP3   OH240809   0.179   1.805   6.642  0.1779  0.1444 -0.4688
 6465TIP3    H140810   0.148   1.737   6.582 -1.8302  0.8253 -0.2961
 6465TIP3    H240811   0.231   1.758   6.707 -1.0408 -1.2444 -0.4295
 6466TIP3   OH240812   1.348   3.221  16.122  0.6901 -0.1497 -0.0682
 6466TIP3    H140813   1.416   3.287  16.131  0.4387  0.2257 -0.7872
 6466TIP3    H240814   1.321   3.201  16.212  0.9165  0.5766  0.1670
 6467TIP3   OH240815   3.299   2.136   0.077 -0.3395 -0.4777  0.4547
 6467TIP3    H140816   3.294   2.153   0.171 -0.2043 -1.2346  0.6044
 6467TIP3    H240817   3.216   2.094   0.055 -0.7918  0.5949  0.0304
 6468TIP3   OH240818   0.980   0.155   3.242  0.4650  0.3325  1.4365
 6468TIP3    H140819   0.951   0.066   3.224 -0.4781  0.6345  1.3916
 6468TIP3    H240820   0.931   0.209   3.180  1.5712  0.8181  0.9588
 6469TIP3   OH240821   0.693   3.593  11.996  0.2039  0.1356  0.2819
 6469TIP3    H140822   0.686   3.684  12.025 -0.2133  0.4630 -0.8262
 6469TIP3    H240823   0.675   3.541  12.075  1.9189  0.9883  1.2848
 6470TIP3   OH240824   5.030   6.316  12.473 -0.2758  0.0691 -0.3290
 6470TIP3    H140825   5.032   6.257  12.548  0.0106  0.3834 -0.0878
 6470TIP3    H240826   5.111   6.298  12.425 -0.3671  0.0023 -0.4586
 6471TIP3   OH240827   4.587   6.737   0.313  0.0038  0.2212 -0.0571
 6471TIP3    H140828   4.620   6.701   0.231 -1.3289 -1.0923 -0.0616
 6471TIP3    H240829   4.493   6.743   0.301  0.1351  4.5454 -0.2944
 6472TIP3   OH240830   0.860   0.997   2.750 -0.4000  0.4586  0.4288
 6472TIP3    H140831   0.880   0.949   2.670  0.4026 -1.1101  1.5157
 6472TIP3    H240832   0.943   1.037   2.777 -0.4469  0.2315  0.9336
 6473TIP3   OH240833   2.726   0.474  13.400 -0.2528  0.4162  0.1263
 6473TIP3    H140834   2.691   0.523  13.474 -1.4420  0.0724 -0.1852
 6473TIP3    H240835   2.650   0.427  13.364  0.6793 -0.9599 -0.1151
 6474TIP3   OH240836   2.840   5.169   1.958  0.1552  0.1989  0.0119
 6474TIP3    H140837   2.789   5.122   2.023  0.1780  0.4678  0.2292
 6474TIP3    H240838   2.829   5.261   1.981 -0.2156  0.3278 -0.6473
 6475TIP3   OH240839   5.570   4.002   3.466 -0.4971  0.1161  0.0076
 6475TIP3    H140840   5.641   3.995   3.403 -0.9892 -1.2424 -0.4355
 6475TIP3    H240841   5.613   3.991   3.551 -0.1513 -0.5066 -0.2422
 6476TIP3   OH240842   6.733   3.241   6.990  0.1083 -0.3070  0.2621
 6476TIP3    H140843   6.798   3.189   6.943  0.7955  0.4412  0.3679
 6476TIP3    H240844   6.675   3.176   7.029  2.4832 -1.1833  2.6406
 6477TIP3   OH240845   1.611   2.384   5.644 -0.4534  0.0170  0.0937
 6477TIP3    H140846   1.557   2.411   5.719 -1.2396  2.6588 -1.2951
 6477TIP3    H240847   1.646   2.299   5.669 -1.6924  0.2310  2.9286
 6478TIP3   OH240848   6.550   6.223   0.036 -0.3085  0.8025  0.0330
 6478TIP3    H140849   6.487   6.280   0.080  0.1429  1.6549 -0.3855
 6478TIP3    H240850   6.635   6.264   0.054 -0.0329  0.5940 -0.7652
 6479TIP3   OH240851   5.562   0.481  14.033  0.1619 -0.6964  0.1225
 6479TIP3    H140852   5.529   0.460  14.120  0.5772  1.4896  0.8540
 6479TIP3    H240853   5.644   0.528  14.049  0.6402 -0.9288 -1.4824
 6480TIP3   OH240854   1.351   4.751  12.164  0.3360  0.1165  0.3462
 6480TIP3    H140855   1.385   4.800  12.090  0.4562 -0.3466  0.0888
 6480TIP3    H240856   1.429   4.721  12.211  0.2578  0.5222  0.7347
 6481TIP3   OH240857   2.591   4.955   1.399  1.0392  0.1744 -0.7426
 6481TIP3    H140858   2.561   4.900   1.327  2.7914 -0.5108 -1.0095
 6481TIP3    H240859   2.541   5.036   1.390 -2.1145 -1.5488  0.0642
 6482TIP3   OH240860   4.140   2.807   3.692 -0.0318  0.2309 -0.0015
 6482TIP3    H140861   4.151   2.712   3.690  2.7871  0.4330  0.5067
 6482TIP3    H240862   4.175   2.833   3.778 -1.3480  1.6917  0.1349
 6483TIP3   OH240863   6.580   2.250   0.241  0.4927 -0.5118 -0.1227
 6483TIP3    H140864   6.602   2.312   0.311  0.0502 -1.2709  0.7021
 6483TIP3    H240865   6.655   2.253   0.182  2.4340 -2.2465  2.0716
 6484TIP3   OH240866   3.570   4.521   0.104 -0.2741 -0.1361  0.1830
 6484TIP3    H140867   3.625   4.574   0.162 -0.1333 -1.8715  1.7128
 6484TIP3    H240868   3.527   4.585   0.047  0.6302  1.5283  1.2937
 6485TIP3   OH240869   1.207   6.412  15.712  0.2084  0.3970  0.2512
 6485TIP3    H140870   1.218   6.504  15.737  0.6362  0.8848 -1.5563
 6485TIP3    H240871   1.149   6.415  15.636  1.2389 -0.7057 -0.6046
 6486TIP3   OH240872   0.718   2.230  14.076  0.6030  0.1612  0.0325
 6486TIP3    H140873   0.676   2.145  14.065 -0.7146  0.9799 -1.7703
 6486TIP3    H240874   0.684   2.283  14.004 -0.4403  2.9358  2.3768
 6487TIP3   OH240875   4.971   6.701   1.430  0.3313 -0.0761  0.0106
 6487TIP3    H140876   4.897   6.759   1.416 -1.7456 -2.2405  1.1866
 6487TIP3    H240877   5.016   6.697   1.346  0.1078  2.5503 -0.2922
 6488TIP3   OH240878   3.856   4.749  15.759 -0.5156  0.7183 -0.2356
 6488TIP3    H140879   3.948   4.745  15.788 -0.9519 -0.6655  1.0803
 6488TIP3    H240880   3.853   4.693  15.682 -0.4149  0.0670  0.2271
 6489TIP3   OH240881   4.029   4.462   5.548  0.0770  0.2117 -0.8685
 6489TIP3    H140882   4.097   4.407   5.510  1.6720  1.8426 -0.4801
 6489TIP3    H240883   4.063   4.486   5.634 -1.0303  1.0160 -0.6418
 6490TIP3   OH240884   4.737   3.817   1.693  0.0250  0.4460 -0.0949
 6490TIP3    H140885   4.762   3.909   1.699 -3.2844  1.5414 -1.1980
 6490TIP3    H240886   4.662   3.809   1.753  0.9765 -1.8729  0.8981
 6491TIP3   OH240887   3.901   5.123  12.816  0.1852  0.6376  0.1112
 6491TIP3    H140888   3.862   5.147  12.732  0.1800 -0.2036 -0.1398
 6491TIP3    H240889   3.840   5.059  12.853  0.1356  1.0838  0.8046
 6492TIP3   OH240890   4.946   4.628  13.813 -0.4665 -0.2815 -0.1578
 6492TIP3    H140891   5.037   4.597  13.816 -0.0059  0.6062 -2.7852
 6492TIP3    H240892   4.927   4.654  13.903  2.6291  1.4920  0.1271
 6493TIP3   OH240893   6.640   0.685   3.555  0.0969  0.0326 -0.3202
 6493TIP3    H140894   6.616   0.619   3.489 -1.1963 -0.7589  0.8958
 6493TIP3    H240895   6.564   0.743   3.560 -0.3743 -0.6720  1.3652
 6494TIP3   OH240896   3.928   2.137  11.493  0.2390  0.1139 -0.0231
 6494TIP3    H140897   3.980   2.057  11.495 -1.1962 -0.9572 -1.9415
 6494TIP3    H240898   3.944   2.174  11.406 -0.9182  0.6204 -0.0445
 6495TIP3   OH240899   5.531   5.387   4.607 -0.1361 -0.6175  0.1814
 6495TIP3    H140900   5.448   5.392   4.655  0.0557 -0.5213  0.5047
 6495TIP3    H240901   5.594   5.354   4.671 -0.2346 -2.1511 -0.4588
 6496TIP3   OH240902   1.530   3.449   2.392 -0.0422  0.2440 -0.2205
 6496TIP3    H140903   1.598   3.503   2.352 -1.1650  1.8103 -0.1194
 6496TIP3    H240904   1.556   3.443   2.484  0.2471  0.3640 -0.2928
 6497TIP3   OH240905   5.654   1.539   3.429  0.2619 -0.2339  0.7091
 6497TIP3    H140906   5.682   1.466   3.484  0.0903 -1.2787 -0.5342
 6497TIP3    H240907   5.588   1.585   3.481  0.2954 -1.0179  1.4659
 6498TIP3   OH240908   6.756   2.748  15.343 -0.3795 -0.1533  0.1196
 6498TIP3    H140909   6.734   2.658  15.319 -1.7989  0.3229 -0.4852
 6498TIP3    H240910   6.688   2.801  15.302 -1.3294  0.9640  2.8598
 6499TIP3   OH240911   5.321   1.605   2.784  0.5593  0.7608 -0.2618
 6499TIP3    H140912   5.383   1.533   2.778  1.6156  1.6688 -0.6043
 6499TIP3    H240913   5.330   1.652   2.701 -0.4586  1.0271 -0.2392
 6500TIP3   OH240914   4.533   2.670   4.980 -0.6270  0.2801 -0.6147
 6500TIP3    H140915   4.568   2.590   4.942  1.0693  1.2237 -1.1740
 6500TIP3    H240916   4.440   2.669   4.958 -0.3294 -0.7926 -1.9358
 6501TIP3   OH240917   5.468   1.339   2.693 -0.3762 -0.3221 -0.6932
 6501TIP3    H140918   5.517   1.259   2.677  0.9783  0.9286 -3.3485
 6501TIP3    H240919   5.499   1.401   2.627 -2.1047  2.1000  0.5777
 6502TIP3   OH240920   0.448   0.051   1.262  0.1297 -0.5667 -0.3167
 6502TIP3    H140921   0.520  -0.004   1.294 -0.6727 -1.3137  0.2461
 6502TIP3    H240922   0.369   0.001   1.282 -0.5271 -0.0126 -1.4343
 6503TIP3   OH240923   1.961   4.466  13.476  0.1221 -0.5568 -0.3391
 6503TIP3    H140924   2.017   4.511  13.413  0.7852 -1.2928 -0.3025
 6503TIP3    H240925   1.889   4.431  13.424 -0.1793  0.1792 -0.4274
 6504TIP3   OH240926   1.792   4.086   4.749  0.7302  0.2438  0.2939
 6504TIP3    H140927   1.858   4.149   4.721  1.7898  0.5566  3.1882
 6504TIP3    H240928   1.748   4.128   4.823 -0.3036 -1.4095  0.6706
 6505TIP3   OH240929   1.303   3.849   0.050 -0.0308  0.1790  0.2659
 6505TIP3    H140930   1.354   3.778   0.088 -2.6344 -2.1625 -0.3310
 6505TIP3    H240931   1.221   3.848   0.099 -0.7477  1.7467 -0.8154
 6506TIP3   OH240932   4.226   1.441   2.653 -0.5149 -0.1413  0.1480
 6506TIP3    H140933   4.136   1.415   2.632 -0.8882  0.2627  1.1794
 6506TIP3    H240934   4.250   1.502   2.584 -0.9387 -0.4455 -0.2763
 6507TIP3   OH240935   3.254   6.596  12.728 -0.3468  0.3689 -0.1632
 6507TIP3    H140936   3.295   6.590  12.642 -0.0110 -0.8642  0.0706
 6507TIP3    H240937   3.172   6.644  12.712 -1.0078 -1.0931 -1.4471
 6508TIP3   OH240938   2.677   3.741  13.210  0.3926  0.0813  0.1817
 6508TIP3    H140939   2.586   3.762  13.230  0.2126  1.6059 -1.8796
 6508TIP3    H240940   2.729   3.804  13.260  0.2349  0.2015  0.1909
 6509TIP3   OH240941   2.289   5.105   5.543 -0.2532  0.1873 -0.0188
 6509TIP3    H140942   2.236   5.032   5.575 -1.1067 -0.4916 -2.7771
 6509TIP3    H240943   2.236   5.183   5.560  0.1286  0.1156  1.7867
 6510TIP3   OH240944   4.506   3.594  11.582 -0.3458  0.6091 -0.1658
 6510TIP3    H140945   4.481   3.635  11.664 -0.6338 -1.0157  0.6026
 6510TIP3    H240946   4.569   3.654  11.542  2.1780  0.0653  2.6899
 6511TIP3   OH240947   6.649   3.158  11.146 -0.5735  0.4629  0.3896
 6511TIP3    H140948   6.680   3.247  11.128  0.2995 -0.1779 -1.5747
 6511TIP3    H240949   6.556   3.160  11.124 -0.3992  0.7295 -0.3624
 6512TIP3   OH240950   5.378   6.154   2.700 -0.8011  0.3788  0.5864
 6512TIP3    H140951   5.438   6.123   2.769 -0.4677 -2.5018 -0.8513
 6512TIP3    H240952   5.426   6.224   2.656  1.2232 -1.2830  0.0139
 6513TIP3   OH240953   6.736   4.058  15.540 -0.1038  0.5827 -0.4837
 6513TIP3    H140954   6.782   4.142  15.532 -0.3476  0.5964 -1.9083
 6513TIP3    H240955   6.657   4.068  15.487 -0.0807 -0.5907 -0.7633
 6514TIP3   OH240956   6.630   4.191  14.118  0.1607  0.2816  0.0502
 6514TIP3    H140957   6.551   4.153  14.079  0.7483 -0.2479 -0.6365
 6514TIP3    H240958   6.649   4.134  14.193 -1.0437  1.3761  1.2430
 6515TIP3   OH240959   5.326   4.027   5.615  0.5903  0.6962 -0.0221
 6515TIP3    H140960   5.250   4.065   5.657  0.3002 -0.8395  0.9165
 6515TIP3    H240961   5.390   4.015   5.686  0.6674 -0.5084 -0.2626
 6516TIP3   OH240962   2.647   3.993   1.300 -0.4308 -0.1879 -0.2667
 6516TIP3    H140963   2.600   4.030   1.374  0.9382  2.7877 -0.7585
 6516TIP3    H240964   2.594   4.017   1.223  0.9748  1.7964 -0.6801
 6517TIP3   OH240965   1.018   0.376   0.656 -0.3783 -0.1226 -0.5216
 6517TIP3    H140966   1.069   0.317   0.601 -0.5552 -0.7211 -0.0670
 6517TIP3    H240967   1.050   0.359   0.745 -0.0986  0.8209 -0.4333
 6518TIP3   OH240968   6.264   2.822   1.441  0.6266  0.2163  0.1941
 6518TIP3    H140969   6.307   2.765   1.377 -0.2272 -1.3769  0.9663
 6518TIP3    H240970   6.183   2.850   1.398  1.5263  1.7547 -0.5797
 6519TIP3   OH240971   2.239   3.393  10.604  0.4280  0.3548 -0.0167
 6519TIP3    H140972   2.179   3.467  10.598  0.7119  0.5956  0.1156
 6519TIP3    H240973   2.307   3.411  10.539  2.8324  2.3491  2.7559
 6520TIP3   OH240974   5.093   2.436  14.412  0.0267  0.5421  0.6547
 6520TIP3    H140975   5.053   2.357  14.448 -0.0491 -0.1077 -0.7658
 6520TIP3    H240976   5.019   2.494  14.393 -0.0815  0.1844 -0.0385
 6521TIP3   OH240977   0.275   0.036  15.669 -0.6221  0.0502 -0.1957
 6521TIP3    H140978   0.338  -0.029  15.698 -0.9844  0.6601  2.2460
 6521TIP3    H240979   0.216  -0.011  15.610  1.3259 -0.8266 -1.5313
 6522TIP3   OH240980   1.995   4.679  11.886 -0.5652  0.0066  0.2713
 6522TIP3    H140981   1.989   4.648  11.976 -0.9368  0.3989  0.3856
 6522TIP3    H240982   2.053   4.755  11.890 -0.7247  0.1325  0.2100
 6523TIP3   OH240983   1.977   3.977  12.496  0.2856 -0.2467 -0.1146
 6523TIP3    H140984   2.037   3.908  12.526 -0.6751 -1.4874 -0.9487
 6523TIP3    H240985   1.904   3.973  12.556 -0.8278 -1.5552 -1.4615
 6524TIP3   OH240986   0.902   5.341  14.970  0.2942 -0.3518 -0.4226
 6524TIP3    H140987   0.976   5.302  14.923  0.4494 -0.7439  0.1339
 6524TIP3    H240988   0.924   5.434  14.975  0.0159 -0.2022 -1.5872
 6525TIP3   OH240989   3.824   5.817   2.069  0.0117  0.1815 -0.0156
 6525TIP3    H140990   3.884   5.891   2.072 -1.9311  1.8706  0.0268
 6525TIP3    H240991   3.765   5.832   2.143 -1.2632 -0.6286 -0.8374
 6526TIP3   OH240992   0.379   5.609   2.516  0.3268 -0.6141 -0.4299
 6526TIP3    H140993   0.376   5.675   2.586 -1.8857 -0.7877 -0.2964
 6526TIP3    H240994   0.438   5.542   2.549 -0.4398 -0.5509  1.1810
 6527TIP3   OH240995   5.698   1.751  16.531  0.3229 -0.1437 -0.2187
 6527TIP3    H140996   5.691   1.685  16.462  1.7089 -0.9934  0.4152
 6527TIP3    H240997   5.611   1.754  16.571  0.5508 -2.6305  0.6359
 6528TIP3   OH240998   6.020   5.171  11.751 -0.0757 -0.3344  0.3117
 6528TIP3    H140999   6.032   5.230  11.825  0.1121 -1.0132  0.8253
 6528TIP3    H241000   6.095   5.190  11.694 -0.5118  0.5767  0.0152
 6529TIP3   OH241001   2.042   4.027   0.914 -0.1724  0.0873 -0.4267
 6529TIP3    H141002   2.113   4.089   0.897 -0.5936  1.0123  1.0033
 6529TIP3    H241003   1.974   4.050   0.851  0.4987 -0.3531 -1.3376
 6530TIP3   OH241004   6.400   2.517   0.312 -0.2558 -0.1790  0.3446
 6530TIP3    H141005   6.397   2.534   0.406 -1.5358 -0.8221  0.4367
 6530TIP3    H241006   6.310   2.530   0.283  0.3458  1.2206 -1.0292
 6531TIP3   OH241007   0.646   6.106   5.631  0.2639  0.3311  0.1343
 6531TIP3    H141008   0.622   6.018   5.603  1.0948  0.1252  0.0328
 6531TIP3    H241009   0.571   6.160   5.608  0.7990  0.1520 -2.3597
 6532TIP3   OH241010   4.174   4.416   2.732 -0.1251 -0.6718  0.2773
 6532TIP3    H141011   4.169   4.507   2.704 -0.9090 -1.4902 -2.6142
 6532TIP3    H241012   4.084   4.390   2.749 -0.2110 -1.4532 -1.1463
 6533TIP3   OH241013   4.622   4.047  15.032  0.0908 -0.5084 -0.3162
 6533TIP3    H141014   4.546   4.029  14.978  0.3689  0.7939 -1.2002
 6533TIP3    H241015   4.677   4.104  14.978  2.0447 -1.9913  0.0154
 6534TIP3   OH241016   3.513   4.901  16.053  0.4351 -0.4601 -0.5715
 6534TIP3    H141017   3.507   4.929  16.144  2.2126  0.7092 -0.7568
 6534TIP3    H241018   3.489   4.979  16.002 -0.1575 -0.9857 -1.1251
 6535TIP3   OH241019   6.517   6.110   2.927  0.0361 -0.1751  0.4343
 6535TIP3    H141020   6.500   6.106   2.833  0.1808  0.4408  0.3782
 6535TIP3    H241021   6.440   6.070   2.967 -0.2373 -0.0174  0.0698
 6536TIP3   OH241022   2.797   3.118  16.972 -0.1723  0.2561 -0.4434
 6536TIP3    H141023   2.860   3.087  17.036 -1.8922 -2.3032  0.1887
 6536TIP3    H241024   2.849   3.137  16.894  1.4240 -1.3126  0.1802
 6537TIP3   OH241025   2.880   6.733   4.657 -0.5537 -0.2650 -0.3356
 6537TIP3    H141026   2.877   6.699   4.568 -2.0548 -1.1749  0.0209
 6537TIP3    H241027   2.791   6.722   4.690  0.0238 -0.1786  1.3666
 6538TIP3   OH241028   5.388   2.430  16.443 -0.3692 -0.2858  0.0866
 6538TIP3    H141029   5.306   2.472  16.467 -0.5604 -0.1368 -0.8029
 6538TIP3    H241030   5.408   2.463  16.355  1.1308  0.4306  0.6518
 6539TIP3   OH241031   1.191   5.612   6.643 -0.2340 -0.5406 -0.1259
 6539TIP3    H141032   1.172   5.549   6.573 -0.6048 -0.2763 -0.2646
 6539TIP3    H241033   1.167   5.697   6.607 -1.9887 -0.5652  0.8822
 6540TIP3   OH241034   5.629   2.023  15.997 -0.9508  1.1848 -0.2643
 6540TIP3    H141035   5.631   1.937  16.039 -1.2167  1.0156 -0.5934
 6540TIP3    H241036   5.721   2.049  15.991 -0.8431  0.7660 -0.4867
 6541TIP3   OH241037   0.419   3.909   1.081  0.2511  0.3410 -0.0047
 6541TIP3    H141038   0.362   3.839   1.047  0.9219 -0.7925  1.0779
 6541TIP3    H241039   0.470   3.866   1.150  0.6921  1.9229  0.7016
 6542TIP3   OH241040   0.380   6.190  12.403 -0.8626  0.0489 -0.2412
 6542TIP3    H141041   0.397   6.162  12.493 -0.3764  0.8554 -0.0745
 6542TIP3    H241042   0.420   6.277  12.397 -1.9274  0.5165 -0.8779
 6543TIP3   OH241043   5.258   6.235   6.320  0.0903 -0.1718 -0.0604
 6543TIP3    H141044   5.167   6.228   6.294 -0.3680  0.3073  1.3081
 6543TIP3    H241045   5.285   6.322   6.291 -0.4764  0.4392  1.1664
 6544TIP3   OH241046   2.829   1.601  13.687 -0.7849 -0.5383 -0.7760
 6544TIP3    H141047   2.851   1.578  13.777 -1.0917  0.0326 -0.5494
 6544TIP3    H241048   2.864   1.529  13.634  1.3072  0.1442 -0.4038
 6545TIP3   OH241049   5.237   0.584  17.294  0.7153 -0.1813  0.3698
 6545TIP3    H141050   5.226   0.491  17.312  2.5644 -0.4148  0.4466
 6545TIP3    H241051   5.318   0.609  17.338  0.1008  1.5593  0.6290
 6546TIP3   OH241052   5.578   4.194  15.791  0.0977  0.3647 -0.0179
 6546TIP3    H141053   5.486   4.174  15.770  0.3982  0.4829 -1.5946
 6546TIP3    H241054   5.609   4.116  15.837 -0.4205 -0.2828 -0.7191
 6547TIP3   OH241055   3.751   3.184   5.608  0.2172  0.2476  0.1141
 6547TIP3    H141056   3.766   3.091   5.588 -1.3373 -0.4594  1.8338
 6547TIP3    H241057   3.753   3.187   5.704 -1.6232  1.6164  0.1488
 6548TIP3   OH241058   4.776   0.449  11.866  0.5287 -0.2241  0.4468
 6548TIP3    H141059   4.797   0.392  11.940 -1.5227 -0.3090  1.0333
 6548TIP3    H241060   4.826   0.529  11.883  0.3476 -0.3590  1.7606
 6549TIP3   OH241061   6.375   2.141  15.649 -0.2736 -0.0116 -0.0115
 6549TIP3    H141062   6.342   2.197  15.720  3.6285  0.0323  2.0587
 6549TIP3    H241063   6.351   2.052  15.676 -0.3889  0.1519  0.4301
 6550TIP3   OH241064   4.291   6.694   2.126  0.4149  0.1336  0.2700
 6550TIP3    H141065   4.229   6.750   2.081 -1.1195  0.2334  2.3711
 6550TIP3    H241066   4.293   6.613   2.074 -1.6092  0.0746  0.2147
 6551TIP3   OH241067   5.999   3.267  14.344 -0.1017  0.4424  0.5842
 6551TIP3    H141068   5.956   3.348  14.315 -3.2488 -0.9609  0.8456
 6551TIP3    H241069   6.032   3.288  14.432  1.3732  2.0916 -0.2997
 6552TIP3   OH241070   0.505   0.790  17.342 -0.0734  0.3926 -0.1131
 6552TIP3    H141071   0.459   0.849  17.402  0.1554 -0.6375  1.1120
 6552TIP3    H241072   0.515   0.709  17.392  1.4759  0.0049 -1.0105
 6553TIP3   OH241073   1.151   1.761   0.848 -0.2445 -0.0481 -0.0018
 6553TIP3    H141074   1.066   1.773   0.805 -0.6587 -1.8819  0.2397
 6553TIP3    H241075   1.192   1.689   0.801  1.6002  1.3460 -0.6648
 6554TIP3   OH241076   1.336   1.479   3.417 -0.4172 -0.2850 -0.1033
 6554TIP3    H141077   1.320   1.524   3.334 -1.6313 -0.6447 -0.0882
 6554TIP3    H241078   1.415   1.519   3.452 -0.9826  1.2369 -0.5007
 6555TIP3   OH241079   6.348   0.762   5.390 -0.1463  0.1485 -0.0506
 6555TIP3    H141080   6.261   0.763   5.351  0.4286 -0.1468 -1.3928
 6555TIP3    H241081   6.407   0.789   5.319  0.9271 -0.2752  0.6494
 6556TIP3   OH241082   6.053   3.977  14.545  0.2729  0.4906  0.3281
 6556TIP3    H141083   6.030   4.054  14.598  0.3632  0.8024 -0.0826
 6556TIP3    H241084   5.974   3.956  14.496  0.5239  0.9037 -0.2695
 6557TIP3   OH241085   0.334   5.799   2.701 -0.3442 -0.0714  0.6702
 6557TIP3    H141086   0.390   5.875   2.720 -2.0652  0.9753  1.8291
 6557TIP3    H241087   0.256   5.836   2.660 -1.2060 -1.1942  1.2353
 6558TIP3   OH241088   5.506   0.292  17.245  0.4999 -0.6004 -0.2000
 6558TIP3    H141089   5.562   0.339  17.308  0.9928 -1.6875  0.1927
 6558TIP3    H241090   5.545   0.205  17.239 -0.7845 -1.1781 -0.4155
 6559TIP3   OH241091   6.735   4.554  14.394 -0.0997 -0.4232  0.0889
 6559TIP3    H141092   6.713   4.508  14.475 -0.4309 -0.9984 -0.3181
 6559TIP3    H241093   6.660   4.536  14.336 -1.8469  3.2027  0.9221
 6560TIP3   OH241094   5.400   3.569  15.947 -0.2983  0.1202 -0.1197
 6560TIP3    H141095   5.414   3.494  15.890 -1.1238  0.2595 -0.5117
 6560TIP3    H241096   5.305   3.582  15.949 -0.1950  0.9223  0.2427
 6561TIP3   OH241097   0.177   0.940   4.783  0.1216  0.1441 -0.0674
 6561TIP3    H141098   0.267   0.917   4.761  0.3112  0.9861 -0.2080
 6561TIP3    H241099   0.170   1.033   4.762 -0.9261 -0.0199 -0.5177
 6562TIP3   OH241100   5.319   6.452   2.295 -0.5562  0.2054  0.5599
 6562TIP3    H141101   5.410   6.466   2.270 -0.2892 -0.0590  1.3713
 6562TIP3    H241102   5.270   6.464   2.213  0.0992  1.3364  0.3119
 6563TIP3   OH241103   4.852   2.640  11.483  0.0117 -0.1360  0.4056
 6563TIP3    H141104   4.892   2.587  11.552  0.1698  1.4330  1.5790
 6563TIP3    H241105   4.839   2.726  11.523 -0.7761  0.5624 -1.2400
 6564TIP3   OH241106   3.575   2.218   2.727  0.3782 -0.5042 -0.2322
 6564TIP3    H141107   3.558   2.286   2.662  2.3312 -0.8595 -1.1695
 6564TIP3    H241108   3.564   2.136   2.680 -0.7088 -0.8654  0.5821
 6565TIP3   OH241109   5.451   3.173  11.187  0.5175 -0.4494  0.3061
 6565TIP3    H141110   5.532   3.166  11.239  1.2837 -0.0599 -0.7950
 6565TIP3    H241111   5.398   3.098  11.214  1.3033 -0.7786  0.9617
 6566TIP3   OH241112   5.463   2.491  16.166 -0.1363 -0.5663 -0.3206
 6566TIP3    H141113   5.449   2.547  16.089 -2.6641  0.4276  0.7497
 6566TIP3    H241114   5.454   2.402  16.133 -3.2216 -0.1338 -0.9697
 6567TIP3   OH241115   3.995   2.181  14.888  0.0705 -0.0031  0.1910
 6567TIP3    H141116   3.905   2.195  14.857 -0.1568 -0.9796  0.3953
 6567TIP3    H241117   4.046   2.166  14.809  0.2348  1.4112 -0.0021
 6568TIP3   OH241118   0.160   1.736  15.994  0.0357  0.2392 -0.2733
 6568TIP3    H141119   0.158   1.642  15.978 -0.6353  0.2224 -0.1124
 6568TIP3    H241120   0.205   1.746  16.078 -0.6480 -0.0015  0.1268
 6569TIP3   OH241121   5.933   1.796   2.496 -0.1172 -0.4722 -0.4130
 6569TIP3    H141122   6.004   1.760   2.442 -1.4099 -0.1531 -2.4420
 6569TIP3    H241123   5.976   1.862   2.551  0.9736  1.1171 -2.9377
 6570TIP3   OH241124   0.100   4.892  14.919  0.2800 -0.0504  0.7472
 6570TIP3    H141125   0.059   4.816  14.960 -0.4422  0.3736  0.8441
 6570TIP3    H241126   0.163   4.856  14.858  0.9802 -0.7058  1.8201
 6571TIP3   OH241127   1.057   0.137  11.978 -0.1897  0.3554 -0.0023
 6571TIP3    H141128   1.030   0.044  11.978  0.6436  0.1103  0.2729
 6571TIP3    H241129   1.109   0.147  12.057 -1.1930  1.3450  0.5537
 6572TIP3   OH241130   6.212   1.574   3.303  0.2298  0.4155 -0.2039
 6572TIP3    H141131   6.126   1.536   3.321  0.7777 -1.3116 -1.1073
 6572TIP3    H241132   6.274   1.516   3.346  0.9873  1.7241  0.5557
 6573TIP3   OH241133   4.596   3.442   1.268 -0.7759  0.4536  0.4746
 6573TIP3    H141134   4.565   3.369   1.215  0.7472  0.6815 -0.8230
 6573TIP3    H241135   4.572   3.520   1.219  0.2618  0.6892  0.3130
 6574TIP3   OH241136   1.101   4.935  15.882 -0.1357 -0.4408 -0.6654
 6574TIP3    H141137   1.171   4.949  15.946 -0.5382  2.3175 -0.7063
 6574TIP3    H241138   1.021   4.964  15.926 -0.3202  2.3379 -2.5464
 6575TIP3   OH241139   3.049   4.449  11.678  0.2059  0.3304  0.5900
 6575TIP3    H141140   2.956   4.457  11.655  0.1878  0.4118  0.6917
 6575TIP3    H241141   3.053   4.472  11.771  0.3172  0.2542  0.6035
 6576TIP3   OH241142   1.569   5.878  13.699  0.1275 -0.5959  0.1148
 6576TIP3    H141143   1.507   5.939  13.661  0.7238  0.3089  0.5569
 6576TIP3    H241144   1.576   5.807  13.634  1.0603  0.8572 -1.4450
 6577TIP3   OH241145   6.170   1.902   2.871 -0.0654  0.7167  0.4354
 6577TIP3    H141146   6.149   1.850   2.949  0.0800  0.8358  0.5543
 6577TIP3    H241147   6.216   1.979   2.905  1.1939  0.1267  0.1306
 6578TIP3   OH241148   5.696   4.186  15.072  0.0199 -0.4341 -0.0306
 6578TIP3    H141149   5.652   4.270  15.085 -0.4556 -0.6393 -0.2684
 6578TIP3    H241150   5.624   4.124  15.057  0.1230 -1.4422  2.9436
 6579TIP3   OH241151   2.894   2.569  15.247  0.0683 -0.1567  0.1095
 6579TIP3    H141152   2.831   2.521  15.300 -0.4905  1.1990  0.7137
 6579TIP3    H241153   2.978   2.528  15.266 -0.7100 -2.9041 -1.7432
 6580TIP3   OH241154   3.261   0.523  11.628 -0.4724  0.1524  0.3051
 6580TIP3    H141155   3.353   0.502  11.644 -0.7828 -0.9432  0.6776
 6580TIP3    H241156   3.214   0.441  11.639 -1.5067  0.6904  0.0976
 6581TIP3   OH241157   6.481   6.673   2.227 -0.2956 -0.0806  0.2909
 6581TIP3    H141158   6.420   6.609   2.189 -0.0351  0.0192 -0.3115
 6581TIP3    H241159   6.429   6.721   2.291 -0.5807 -0.6793  0.5133
 6582TIP3   OH241160   5.839   2.477  17.004  0.5829  0.1259  0.3484
 6582TIP3    H141161   5.814   2.465  16.912 -0.0507  0.9940  0.3897
 6582TIP3    H241162   5.774   2.425  17.053  0.0123  0.8483  0.3674
 6583TIP3   OH241163   1.350   2.752   2.791  0.0842  0.2953 -0.3012
 6583TIP3    H141164   1.388   2.815   2.730  1.3847  0.2971  0.4843
 6583TIP3    H241165   1.256   2.769   2.788  0.5075  3.3533  1.0651
 6584TIP3   OH241166   6.311   2.287  13.285  0.2807  0.2361 -0.1507
 6584TIP3    H141167   6.333   2.311  13.195  0.5795 -0.3718 -0.2434
 6584TIP3    H241168   6.384   2.232  13.313  0.3877  0.7534  0.6045
 6585TIP3   OH241169   6.651   6.693  15.720  0.2350 -0.1736 -0.1726
 6585TIP3    H141170   6.686   6.742  15.794 -1.3541 -0.7439  1.0094
 6585TIP3    H241171   6.638   6.604  15.753  1.4743 -0.9963 -1.7805
 6586TIP3   OH241172   0.523   6.724   2.856 -0.1832 -0.2608 -0.3118
 6586TIP3    H141173   0.470   6.684   2.787  0.1053  1.2237 -1.4581
 6586TIP3    H241174   0.460   6.745   2.925 -0.4050 -2.1982  0.1365
 6587TIP3   OH241175   2.883   1.517   4.400  0.0594 -0.3149 -0.2659
 6587TIP3    H141176   2.823   1.449   4.370  2.3133 -2.2249 -0.6657
 6587TIP3    H241177   2.871   1.519   4.495  0.3293 -1.6573 -0.1896
 6588TIP3   OH241178   4.928   4.620  15.457  0.3771 -0.4163 -0.2870
 6588TIP3    H141179   5.019   4.627  15.487 -0.1606  2.0278  0.9890
 6588TIP3    H241180   4.876   4.620  15.537 -0.8105 -0.6995 -1.0371
 6589TIP3   OH241181   4.237   1.137   3.443  0.1009  0.7942 -0.3054
 6589TIP3    H141182   4.215   1.229   3.425 -1.5760  0.9182  1.9368
 6589TIP3    H241183   4.315   1.142   3.497  0.3523  0.8556 -0.6685
 6590TIP3   OH241184   0.596   3.837  13.854 -0.3606 -0.4894  0.5319
 6590TIP3    H141185   0.533   3.774  13.818 -0.5271 -0.1588  0.2397
 6590TIP3    H241186   0.544   3.893  13.911 -0.5206  0.3524 -0.4020
 6591TIP3   OH241187   4.585   6.159  16.273  0.0109 -0.0302  0.4406
 6591TIP3    H141188   4.573   6.186  16.182 -0.4223  0.5707  0.6698
 6591TIP3    H241189   4.503   6.183  16.316  0.8352  1.2928  1.3693
 6592TIP3   OH241190   6.691   4.016  14.314 -0.5918 -0.2474  0.4783
 6592TIP3    H141191   6.704   3.925  14.288  1.4236  0.1439 -0.0353
 6592TIP3    H241192   6.612   4.014  14.370 -0.9268 -2.1844  0.0063
 6593TIP3   OH241193   3.028   4.008  11.353  0.1904 -0.0261 -0.1772
 6593TIP3    H141194   2.937   3.992  11.378  0.1994  0.8619  0.4834
 6593TIP3    H241195   3.058   4.077  11.414  0.3484  1.9924 -2.4066
 6594TIP3   OH241196   6.521   5.877   3.304 -0.0948 -0.1665  0.2779
 6594TIP3    H141197   6.583   5.948   3.286 -1.6620  0.7840 -1.8101
 6594TIP3    H241198   6.557   5.802   3.258 -0.5506  0.4369 -1.1179
 6595TIP3   OH241199   4.596   1.175  11.748 -0.4077 -0.1866  0.2758
 6595TIP3    H141200   4.617   1.214  11.833  1.0363 -0.0320 -0.1119
 6595TIP3    H241201   4.544   1.241  11.704 -2.1421 -0.7145  1.4285
 6596TIP3   OH241202   1.382   4.972   3.664 -0.1265 -0.1089  0.3655
 6596TIP3    H141203   1.365   5.056   3.707  1.6800  0.3138  0.3312
 6596TIP3    H241204   1.326   4.974   3.586  0.8238  1.6652 -0.3256
 6597TIP3   OH241205   0.082   1.786   2.285  0.2838  0.7692  0.5866
 6597TIP3    H141206   0.132   1.796   2.366 -0.2245  0.9613  0.8835
 6597TIP3    H241207  -0.007   1.812   2.308 -0.1892 -0.4996  0.3321
 6598TIP3   OH241208   0.952   1.327  16.784  0.6688  0.4949  0.2424
 6598TIP3    H141209   0.910   1.398  16.833 -1.3405  1.2381 -2.3365
 6598TIP3    H241210   1.032   1.365  16.750  0.9768  0.6395  1.0992
 6599TIP3   OH241211   3.667   4.266   3.004 -0.2616 -0.6077  0.3138
 6599TIP3    H141212   3.625   4.182   3.021  0.7036 -1.0705  0.4573
 6599TIP3    H241213   3.757   4.244   2.979 -0.1458  0.3513 -0.1860
 6600TIP3   OH241214   1.566   6.187   6.370 -0.4608 -0.2307 -0.7040
 6600TIP3    H141215   1.586   6.147   6.285  1.0045 -0.5293 -0.2531
 6600TIP3    H241216   1.575   6.115   6.433 -0.6221  0.1903 -0.1904
 6601TIP3   OH241217   3.222   4.275  14.742 -0.3588  0.2202 -0.0725
 6601TIP3    H141218   3.251   4.184  14.751 -1.9859 -0.3235  0.1378
 6601TIP3    H241219   3.259   4.304  14.658 -0.9462 -1.1191 -0.8287
 6602TIP3   OH241220   3.943   6.519  13.926  0.1407  0.1063  0.7603
 6602TIP3    H141221   3.922   6.538  14.017 -0.0312 -0.7527  0.9080
 6602TIP3    H241222   4.016   6.577  13.905 -1.0813  1.7321  0.8342
 6603TIP3   OH241223   6.249   2.363  15.770 -0.0404 -0.1854  0.5088
 6603TIP3    H141224   6.264   2.457  15.780 -3.1109  0.4622  0.0363
 6603TIP3    H241225   6.232   2.351  15.676 -1.3272 -0.8823  0.8077
 6604TIP3   OH241226   2.910   5.765   4.864 -0.1140  0.1226 -0.2830
 6604TIP3    H141227   2.839   5.829   4.869 -1.1491 -0.7764 -2.5126
 6604TIP3    H241228   2.985   5.815   4.832 -0.5541  0.4992 -0.7413
 6605TIP3   OH241229   2.229   1.415  13.325  0.1824 -0.0203  0.2150
 6605TIP3    H141230   2.182   1.332  13.333 -0.8199  0.2911 -1.7558
 6605TIP3    H241231   2.191   1.456  13.247  2.6121  1.0066 -0.5017
 6606TIP3   OH241232   5.963   5.952   5.175  0.0169  0.4381 -1.1097
 6606TIP3    H141233   5.874   5.987   5.180 -0.4948 -0.9075  0.2839
 6606TIP3    H241234   6.002   5.974   5.259  0.2569 -0.7870 -0.8755
 6607TIP3   OH241235   4.125   1.412   0.205 -0.5555  0.4165 -0.1623
 6607TIP3    H141236   4.057   1.475   0.181 -0.2866  0.3050 -1.2704
 6607TIP3    H241237   4.145   1.431   0.296  0.9206  3.2703 -0.9795
 6608TIP3   OH241238   4.486   5.214  10.924  0.4852 -0.2883 -0.0720
 6608TIP3    H141239   4.550   5.165  10.873  0.1109 -0.2087 -0.6227
 6608TIP3    H241240   4.464   5.289  10.870 -0.0580 -0.3003  0.1225
 6609TIP3   OH241241   0.328   0.892  11.329  0.7495  0.3083  0.9822
 6609TIP3    H141242   0.247   0.908  11.282  0.1109 -0.4649  1.7950
 6609TIP3    H241243   0.374   0.976  11.327  0.1657  0.6214  0.0935
 6610TIP3   OH241244   6.597   2.320  15.599 -0.6404  0.8412 -0.8555
 6610TIP3    H141245   6.621   2.366  15.679  1.8719 -0.6840 -0.6388
 6610TIP3    H241246   6.526   2.261  15.626 -0.5177  1.0754  0.0090
 6611TIP3   OH241247   3.177   0.613  15.401  0.2189 -0.2563 -0.3227
 6611TIP3    H141248   3.144   0.657  15.479  0.8454 -0.4954  0.0858
 6611TIP3    H241249   3.106   0.621  15.337 -1.1338 -1.7699  0.8988
 6612TIP3   OH241250   4.584   1.767   5.125 -0.0553 -1.0273 -0.2068
 6612TIP3    H141251   4.615   1.838   5.181  0.3886 -2.5349  1.5313
 6612TIP3    H241252   4.570   1.809   5.040  1.4815  0.8516  0.3934
 6613TIP3   OH241253   3.138   2.800  10.631 -0.3150 -0.2805 -0.0846
 6613TIP3    H141254   3.216   2.788  10.684  0.2126  3.3915  0.2392
 6613TIP3    H241255   3.068   2.757  10.680  1.0153 -1.1830  1.0632
 6614TIP3   OH241256   4.177   5.801   4.773  0.0053 -0.3122  0.6071
 6614TIP3    H141257   4.248   5.862   4.793  0.8530 -0.6744 -1.1312
 6614TIP3    H241258   4.193   5.773   4.683 -0.0561 -3.4755  1.4350
 6615TIP3   OH241259   0.236   0.622  16.526 -0.2058  0.0008 -1.0161
 6615TIP3    H141260   0.229   0.653  16.436 -1.1284 -0.6115 -1.1666
 6615TIP3    H241261   0.244   0.527  16.518  0.5022  0.0099 -0.4774
 6616TIP3   OH241262   3.240   0.879  14.848 -0.1154 -0.3538  0.2668
 6616TIP3    H141263   3.177   0.885  14.776 -1.3550 -0.2183  1.3218
 6616TIP3    H241264   3.251   0.969  14.879  1.1868 -0.2750 -0.3734
 6617TIP3   OH241265   5.168   5.837  13.653 -0.3041  0.3813  0.1808
 6617TIP3    H141266   5.201   5.872  13.735 -1.0757  1.4386  0.0537
 6617TIP3    H241267   5.079   5.872  13.645 -1.4679 -2.2257  0.4475
 6618TIP3   OH241268   2.939   0.941  12.114 -0.2291 -0.1565 -0.3434
 6618TIP3    H141269   2.927   0.846  12.109  0.8838 -0.5936  2.8666
 6618TIP3    H241270   2.850   0.975  12.119 -0.6187 -1.2402  0.5431
 6619TIP3   OH241271   1.646   3.133  14.744 -0.0337 -0.0005  0.2438
 6619TIP3    H141272   1.740   3.144  14.730 -0.2814  2.3571 -0.0259
 6619TIP3    H241273   1.624   3.052  14.698  1.6512  0.0412 -0.7071
 6620TIP3   OH241274   1.389   1.754   1.730  0.0773 -0.5207  1.0343
 6620TIP3    H141275   1.426   1.671   1.699  0.2208 -1.1194  2.7071
 6620TIP3    H241276   1.314   1.770   1.672  0.7465 -1.1985 -0.0492
 6621TIP3   OH241277   1.905   3.619   3.439  0.1138  0.3282  0.4528
 6621TIP3    H141278   1.938   3.612   3.349  0.6221 -0.8727  0.7096
 6621TIP3    H241279   1.815   3.649   3.429  0.4687  1.1454 -0.4025
 6622TIP3   OH241280   6.003   3.997  16.829 -0.3734 -0.2650 -0.2520
 6622TIP3    H141281   6.019   3.918  16.880 -0.9036  0.0883  0.4685
 6622TIP3    H241282   5.971   4.061  16.892 -0.3322  0.4075 -0.8968
 6623TIP3   OH241283   1.990   5.653   2.520 -0.1936 -0.2493  0.1363
 6623TIP3    H141284   2.010   5.686   2.432  0.0158 -1.9992 -0.5008
 6623TIP3    H241285   2.053   5.698   2.577  0.7713 -0.3280 -0.8451
 6624TIP3   OH241286   0.318   1.767   2.079  0.4305  0.0665  1.2300
 6624TIP3    H141287   0.363   1.829   2.021  0.2879 -1.8917 -1.1345
 6624TIP3    H241288   0.229   1.801   2.086  0.4322  0.3021  0.2228
 6625TIP3   OH241289   3.226   1.073   2.012 -0.8941 -0.2127 -0.3924
 6625TIP3    H141290   3.306   1.021   2.019 -0.5396  0.4317  0.6402
 6625TIP3    H241291   3.200   1.090   2.102 -0.1736  2.5728 -0.6052
 6626TIP3   OH241292   6.534   0.867  12.792 -0.1788  0.0073 -0.1730
 6626TIP3    H141293   6.621   0.905  12.798  0.9218 -2.3870 -0.0779
 6626TIP3    H241294   6.477   0.931  12.835  1.5320  1.4905  0.0125
 6627TIP3   OH241295   4.901   0.458   5.063  0.1300  0.2741 -0.4912
 6627TIP3    H141296   4.817   0.503   5.074  1.0488  1.5619  2.4332
 6627TIP3    H241297   4.891   0.376   5.112  0.7938  0.8444  0.6441
 6628TIP3   OH241298   2.360   3.990  13.778  0.3229  0.2521 -0.1445
 6628TIP3    H141299   2.304   3.957  13.708 -0.6230 -0.0241  0.7137
 6628TIP3    H241300   2.389   4.076  13.747  2.3944 -1.0628 -2.1792
 6629TIP3   OH241301   3.872   3.749   3.447 -0.3116  0.3167 -0.5137
 6629TIP3    H141302   3.816   3.819   3.481 -2.4399 -1.6511  0.3859
 6629TIP3    H241303   3.939   3.737   3.514 -1.3902 -0.0495  0.5602
 6630TIP3   OH241304   1.672   3.415   1.265 -0.0796 -0.4355 -0.0959
 6630TIP3    H141305   1.723   3.336   1.285 -0.8920 -1.5958 -2.2790
 6630TIP3    H241306   1.729   3.467   1.209 -0.2012 -0.3244 -0.1172
 6631TIP3   OH241307   4.384   1.073  17.013 -0.0169 -0.3305  0.1457
 6631TIP3    H141308   4.460   1.131  17.019  0.6602 -1.2127  0.4061
 6631TIP3    H241309   4.345   1.092  16.928  1.0883 -0.5571 -0.4341
 6632TIP3   OH241310   3.580   2.565  15.038  0.0428  0.5040  0.4202
 6632TIP3    H141311   3.606   2.624  15.109 -2.7621  1.1383  1.0806
 6632TIP3    H241312   3.586   2.618  14.959 -0.2157  0.9503  0.6926
 6633TIP3   OH241313   4.107   4.055   3.511 -0.1427  0.6383 -0.2411
 6633TIP3    H141314   4.176   3.990   3.495 -0.7765  0.2548 -1.5587
 6633TIP3    H241315   4.072   4.031   3.596 -0.3185 -0.7457 -0.6717
 6634TIP3   OH241316   5.669   6.479  12.484 -0.4103  0.0149  0.3330
 6634TIP3    H141317   5.593   6.502  12.430 -0.3882  1.9573  1.0454
 6634TIP3    H241318   5.744   6.485  12.425 -0.6115 -0.0295  0.0726
 6635TIP3   OH241319   5.941   2.663   5.290 -0.6423 -0.2099 -0.2459
 6635TIP3    H141320   5.862   2.614   5.313  0.5497 -1.7772  0.6418
 6635TIP3    H241321   5.938   2.740   5.347 -1.1572 -0.6180  0.2928
 6636TIP3   OH241322   2.240   3.142  11.724 -0.3723  0.0613 -0.4027
 6636TIP3    H141323   2.224   3.231  11.691 -1.1738 -0.2356 -0.8527
 6636TIP3    H241324   2.225   3.085  11.648  0.0503 -0.4695 -0.0987
 6637TIP3   OH241325   3.444   3.713   2.299 -0.1331 -0.7334 -0.1787
 6637TIP3    H141326   3.514   3.672   2.248 -0.9311 -1.2708 -0.8740
 6637TIP3    H241327   3.373   3.725   2.236 -0.6048 -0.0299  0.4769
 6638TIP3   OH241328   1.436   4.632  14.968  0.5426  0.6021 -0.2045
 6638TIP3    H141329   1.381   4.662  14.896  0.4743  0.2694 -0.2897
 6638TIP3    H241330   1.496   4.570  14.928 -0.5240 -0.8056  0.2936
 6639TIP3   OH241331   1.777   5.895  12.809 -0.0502  0.1299  0.3886
 6639TIP3    H141332   1.844   5.949  12.851 -0.7873  0.7798  0.7594
 6639TIP3    H241333   1.714   5.958  12.773 -1.5551 -0.4334  1.8451
 6640TIP3   OH241334   5.688   3.976  16.864 -0.2960 -0.3668  0.5702
 6640TIP3    H141335   5.743   3.899  16.852 -0.2263 -0.0152 -1.8849
 6640TIP3    H241336   5.733   4.046  16.816 -1.9262  0.3824  0.0486
 6641TIP3   OH241337   4.437   4.001  14.815  0.3526 -0.5434 -0.2213
 6641TIP3    H141338   4.478   3.916  14.832 -0.4546 -0.9135 -0.1109
 6641TIP3    H241339   4.349   3.994  14.852  1.0528  1.1568  2.0090
 6642TIP3   OH241340   3.434   1.154  14.023  0.1143 -0.4935 -0.1510
 6642TIP3    H141341   3.413   1.065  14.049  1.5089 -0.6131  0.6321
 6642TIP3    H241342   3.466   1.196  14.103 -0.4009  0.6732 -0.5350
 6643TIP3   OH241343   4.872   6.442  12.686  0.2808  0.4077 -0.3576
 6643TIP3    H141344   4.899   6.404  12.602 -2.7009 -3.0449 -0.0394
 6643TIP3    H241345   4.934   6.407  12.750 -0.1536 -0.8690 -0.6028
 6644TIP3   OH241346   3.658   4.733  12.131 -0.8273  0.4690  0.4423
 6644TIP3    H141347   3.694   4.821  12.140  0.8940 -0.1912  0.4077
 6644TIP3    H241348   3.672   4.693  12.217  0.3581 -0.4290 -0.1351
 6645TIP3   OH241349   3.478   1.524   1.809 -0.2182 -0.1694 -0.4867
 6645TIP3    H141350   3.491   1.444   1.860  0.1083 -0.2170 -0.6399
 6645TIP3    H241351   3.567   1.551   1.784 -0.2169  0.9246  0.6033
 6646TIP3   OH241352   2.691   0.017   2.689  0.1171 -0.3790 -0.0465
 6646TIP3    H141353   2.700   0.034   2.595  0.9323  1.9619  0.3871
 6646TIP3    H241354   2.781   0.016   2.722 -0.1267 -1.8028  0.6536
 6647TIP3   OH241355   2.837   4.889   5.039  0.3697  0.0800  0.1574
 6647TIP3    H141356   2.796   4.891   4.953  1.4787 -0.8676 -0.4243
 6647TIP3    H241357   2.892   4.968   5.042 -1.4885  1.4024  0.9781
 6648TIP3   OH241358   0.717   6.097  12.711 -0.1455  0.1039 -0.2804
 6648TIP3    H141359   0.728   6.003  12.725  2.7915  0.4225  0.1266
 6648TIP3    H241360   0.765   6.115  12.630  1.2611  1.5354  0.8043
 6649TIP3   OH241361   4.895   3.750   4.572 -0.2597 -0.0502  0.1577
 6649TIP3    H141362   4.952   3.770   4.645  0.1090 -0.5746  0.0149
 6649TIP3    H241363   4.943   3.781   4.495  0.2222 -1.2609 -0.0456
 6650TIP3   OH241364   4.536   6.596  13.195 -0.0832  0.0970  0.1657
 6650TIP3    H141365   4.445   6.619  13.174  0.1294  1.3635  0.5885
 6650TIP3    H241366   4.570   6.672  13.242  1.3237 -0.2027 -0.3178
 6651TIP3   OH241367   4.177   2.935   1.113  0.1696 -0.4755 -0.1640
 6651TIP3    H141368   4.142   2.981   1.189  0.2138 -0.1125 -0.3586
 6651TIP3    H241369   4.255   2.891   1.146 -0.4855 -1.3413  0.2865
 6652TIP3   OH241370   3.541   0.624  15.840 -0.4090 -0.4366  0.2755
 6652TIP3    H141371   3.590   0.656  15.915 -1.0067  0.3717  0.3350
 6652TIP3    H241372   3.469   0.573  15.878  0.4099 -1.6991  0.1871
 6653TIP3   OH241373   5.110   5.167  16.824 -0.3934 -0.2974  0.4264
 6653TIP3    H141374   5.174   5.124  16.768 -1.2407  0.1473 -0.9408
 6653TIP3    H241375   5.067   5.096  16.871  0.3041 -0.6850  0.4896
 6654TIP3   OH241376   4.429   1.308  14.969 -0.0249 -0.6536  0.5245
 6654TIP3    H141377   4.370   1.310  14.894  1.2169  2.8903 -0.5175
 6654TIP3    H241378   4.378   1.344  15.041 -0.3870 -1.5915  0.7571
 6655TIP3   OH241379   1.311   6.371   0.849  0.0610 -0.2430  0.0392
 6655TIP3    H141380   1.321   6.438   0.781 -1.3610 -0.3843 -0.3408
 6655TIP3    H241381   1.348   6.292   0.811  2.2089  0.3966  0.6769
 6656TIP3   OH241382   0.758   2.760  14.933 -0.0888 -0.0100  0.1075
 6656TIP3    H141383   0.712   2.677  14.950 -0.8279  0.0391 -1.4562
 6656TIP3    H241384   0.737   2.815  15.009 -0.2152 -0.9769  0.8017
 6657TIP3   OH241385   3.493   5.333   2.064  0.4127 -0.4957 -0.2816
 6657TIP3    H141386   3.447   5.383   2.132 -1.8902  0.8428 -2.6408
 6657TIP3    H241387   3.579   5.374   2.058  0.0129  0.5251  0.6224
 6658TIP3   OH241388   5.796   2.941   4.466  0.8618  0.5754  0.3048
 6658TIP3    H141389   5.852   2.898   4.401 -2.5399 -0.4493 -2.2093
 6658TIP3    H241390   5.806   2.888   4.545  2.5034 -0.2530 -0.4133
 6659TIP3   OH241391   1.974   0.374  11.119 -0.1360  0.2355 -0.2685
 6659TIP3    H141392   2.017   0.362  11.204  0.1066  0.1007 -0.4088
 6659TIP3    H241393   2.031   0.328  11.057 -1.1922 -1.1148 -0.2763
 6660TIP3   OH241394   4.891   5.119   3.787 -0.5789 -0.0177  0.4997
 6660TIP3    H141395   4.811   5.164   3.761 -1.3578 -0.7575  1.5464
 6660TIP3    H241396   4.878   5.097   3.879 -0.3348 -2.5324  0.0146
 6661TIP3   OH241397   3.318   6.594  15.440  0.0673 -0.3955  0.4755
 6661TIP3    H141398   3.224   6.592  15.420 -0.1273  0.6504  1.2230
 6661TIP3    H241399   3.325   6.553  15.526  0.5365 -2.1143 -0.3461
 6662TIP3   OH241400   1.839   2.104  14.151 -0.0869  0.0141  0.5204
 6662TIP3    H141401   1.821   2.061  14.235 -1.8177 -0.0103  0.1682
 6662TIP3    H241402   1.891   2.040  14.102 -1.2433 -1.0339  0.6230
 6663TIP3   OH241403   0.578   2.501   4.800 -0.5450  0.2063 -0.4127
 6663TIP3    H141404   0.620   2.415   4.806 -0.9742 -0.0378 -0.8212
 6663TIP3    H241405   0.569   2.530   4.890 -1.9406 -0.9439 -0.1348
 6664TIP3   OH241406   0.656   5.317   3.684  0.1050  0.2568 -0.0354
 6664TIP3    H141407   0.735   5.265   3.667 -1.1427 -1.5641 -0.5315
 6664TIP3    H241408   0.610   5.320   3.600 -1.7285 -1.1580  0.8489
 6665TIP3   OH241409   3.828   5.224   5.427 -0.1106 -0.3244 -0.7699
 6665TIP3    H141410   3.769   5.299   5.438 -0.5359 -0.7409 -0.1128
 6665TIP3    H241411   3.818   5.199   5.336 -1.0006 -0.4104 -0.6590
 6666TIP3   OH241412   2.309   4.669  12.410 -0.2545 -0.4020 -0.7656
 6666TIP3    H141413   2.310   4.575  12.391  2.6179 -0.6495  0.1139
 6666TIP3    H241414   2.367   4.708  12.345 -0.2674  0.5553 -0.2304
 6667TIP3   OH241415   6.405   1.204  16.254 -0.9481 -0.1737 -0.4456
 6667TIP3    H141416   6.485   1.184  16.303 -1.5119 -0.8326  0.2129
 6667TIP3    H241417   6.356   1.264  16.311 -2.1935 -1.9317  0.3934
 6668TIP3   OH241418   4.872   6.648  13.137 -0.4602  0.4704 -0.0403
 6668TIP3    H141419   4.937   6.719  13.132 -1.4727  1.4043 -0.1975
 6668TIP3    H241420   4.816   6.660  13.061 -0.7026 -0.4643 -0.0254
 6669TIP3   OH241421   2.609   0.278  15.915 -0.1912  0.4115 -0.2472
 6669TIP3    H141422   2.622   0.260  15.822  0.8688 -1.3703  0.2088
 6669TIP3    H241423   2.538   0.219  15.941  0.5534 -0.2105  0.3956
 6670TIP3   OH241424   4.947   1.307  14.497  0.0340  0.0571 -0.0781
 6670TIP3    H141425   4.870   1.334  14.547 -1.6237 -0.8371 -1.9973
 6670TIP3    H241426   4.993   1.388  14.477 -1.4825  0.8611 -0.5016
 6671TIP3   OH241427   5.635   5.794  16.125 -0.1031 -0.5205 -0.7035
 6671TIP3    H141428   5.545   5.768  16.141 -0.2938 -0.0414 -0.9966
 6671TIP3    H241429   5.649   5.869  16.182 -0.3348  0.2879 -1.6791
 6672TIP3   OH241430   4.759   6.745   5.973  0.6237  0.2316 -0.1580
 6672TIP3    H141431   4.721   6.719   5.889  0.1226  2.3626 -0.6571
 6672TIP3    H241432   4.732   6.676   6.034 -1.8858  0.3064 -1.0412
 6673TIP3   OH241433   4.293   0.857   0.348 -0.6833 -0.1938  0.0220
 6673TIP3    H141434   4.300   0.936   0.401  2.0397 -0.9637  0.9374
 6673TIP3    H241435   4.298   0.888   0.257  1.8714  0.6263  0.3839
 6674TIP3   OH241436   2.216   2.067   6.221 -0.1729  0.0439 -0.1120
 6674TIP3    H141437   2.188   1.984   6.258 -1.0508 -0.5043 -1.9095
 6674TIP3    H241438   2.135   2.110   6.194  0.3677  0.8417 -0.5143
 6675TIP3   OH241439   0.179   6.062   5.238 -0.5473 -0.1224  0.0601
 6675TIP3    H141440   0.169   6.138   5.180  1.3528  0.2574  0.1523
 6675TIP3    H241441   0.100   6.062   5.291 -1.3288  0.8342 -1.0466
 6676TIP3   OH241442   3.819   3.737   1.997 -0.0379  0.1920 -0.2012
 6676TIP3    H141443   3.893   3.681   2.021  1.2526  1.7250 -0.4022
 6676TIP3    H241444   3.853   3.790   1.925 -0.9592  1.7023  0.4363
 6677TIP3   OH241445   6.362   3.664  12.310 -0.1691 -0.8043  0.2413
 6677TIP3    H141446   6.368   3.696  12.400  1.9166  2.4208 -0.8809
 6677TIP3    H241447   6.448   3.628  12.291  0.7166  1.9423 -1.4888
 6678TIP3   OH241448   4.127   5.123  10.564  0.1028  0.2805 -0.2505
 6678TIP3    H141449   4.056   5.154  10.620  1.2069  1.7268  0.3841
 6678TIP3    H241450   4.197   5.186  10.576  2.0794 -1.8704  0.2587
 6679TIP3   OH241451   6.549   0.105  13.972  0.6124 -0.3744  0.2682
 6679TIP3    H141452   6.461   0.076  13.949  0.2129  1.5895 -0.8303
 6679TIP3    H241453   6.578   0.040  14.037 -1.4261 -1.3473  0.3101
 6680TIP3   OH241454   0.965   5.599   3.655  0.0754  0.4124  0.3327
 6680TIP3    H141455   1.027   5.594   3.728 -0.2141  1.4248  0.6604
 6680TIP3    H241456   0.983   5.520   3.604  2.4385  1.2321 -0.2403
 6681TIP3   OH241457   2.029   6.719   1.892 -0.0203 -0.0706 -0.1355
 6681TIP3    H141458   2.091   6.721   1.820  0.4370 -0.8803  0.2235
 6681TIP3    H241459   1.991   6.631   1.890  0.5076 -0.3444  1.0170
 6682TIP3   OH241460   2.193   1.231   6.512  0.1010 -0.0986  0.0111
 6682TIP3    H141461   2.124   1.225   6.578  0.7531  0.4259  0.7581
 6682TIP3    H241462   2.225   1.141   6.502  0.3201 -0.1107  0.7735
 6683TIP3   OH241463   4.419   5.053   3.845  0.3321 -0.7236  0.3221
 6683TIP3    H141464   4.403   5.035   3.938  0.5501  1.2301  0.7943
 6683TIP3    H241465   4.448   4.969   3.809  1.6074 -1.2231  2.3293
 6684TIP3   OH241466   3.239   5.131  12.922  0.6758  0.2546  0.6823
 6684TIP3    H141467   3.316   5.160  12.971  0.5051 -0.8477  1.6556
 6684TIP3    H241468   3.172   5.115  12.989 -0.6787  1.9334 -0.2079
 6685TIP3   OH241469   2.584   6.741  12.725 -0.4928 -1.0821  0.5501
 6685TIP3    H141470   2.650   6.809  12.711 -1.7626 -0.0442 -0.7833
 6685TIP3    H241471   2.504   6.778  12.687 -1.7685 -2.4218  1.8215
 6686TIP3   OH241472   4.222   5.118  16.516  0.1365  0.5009  0.0999
 6686TIP3    H141473   4.184   5.131  16.603  0.6163  0.0099  0.3972
 6686TIP3    H241474   4.269   5.199  16.498 -0.3877  0.7989  0.0802
 6687TIP3   OH241475   1.805   0.872   1.962 -0.1877 -0.0199 -0.4925
 6687TIP3    H141476   1.831   0.822   2.039 -1.6583  0.9706  0.7031
 6687TIP3    H241477   1.878   0.930   1.945  0.4701 -0.7866 -0.3322
 6688TIP3   OH241478   2.297   3.067   0.911 -0.2844  0.1153  0.0051
 6688TIP3    H141479   2.217   3.107   0.944 -0.8212 -0.6526 -0.3116
 6688TIP3    H241480   2.300   2.981   0.954  0.0405 -0.1004 -0.4362
 6689TIP3   OH241481   5.329   5.681  17.002 -1.0574 -0.3152 -0.2178
 6689TIP3    H141482   5.325   5.634  17.086  1.8219 -0.5325 -0.1166
 6689TIP3    H241483   5.332   5.773  17.026  1.9295 -0.4235  0.1488
 6690TIP3   OH241484   0.456   6.549  14.274 -0.3059  0.1528  0.2034
 6690TIP3    H141485   0.527   6.610  14.296 -1.3600  0.6011  2.7333
 6690TIP3    H241486   0.471   6.527  14.182  1.0276  2.9898 -0.3716
 6691TIP3   OH241487   0.208   4.727  16.454 -0.7797  0.1238 -0.8349
 6691TIP3    H141488   0.131   4.672  16.467 -1.0940  0.5708 -0.8120
 6691TIP3    H241489   0.218   4.732  16.359 -0.4435 -0.3961 -0.8315
 6692TIP3   OH241490   5.319   5.539   5.064  0.0137  0.1224 -0.1745
 6692TIP3    H141491   5.365   5.468   5.109  1.9809  0.5383 -1.4069
 6692TIP3    H241492   5.293   5.501   4.980  0.1885  0.5463 -0.4275
 6693TIP3   OH241493   4.893   6.670  12.120  0.9424 -0.2808  0.2287
 6693TIP3    H141494   4.909   6.732  12.191 -3.7227  2.1257 -0.4193
 6693TIP3    H241495   4.852   6.595  12.163 -1.3721  0.9391  0.2978
 6694TIP3   OH241496   4.313   1.789   2.974 -0.2448 -0.3656 -0.6555
 6694TIP3    H141497   4.384   1.728   2.992  0.0750  0.2637  0.2754
 6694TIP3    H241498   4.252   1.778   3.047 -1.0931 -0.8584 -1.4169
 6695TIP3   OH241499   1.622   3.939  15.492 -0.2903  0.1264  0.5548
 6695TIP3    H141500   1.687   3.968  15.427 -1.5982  3.2493  0.4448
 6695TIP3    H241501   1.554   3.895  15.440 -1.4039  2.7341 -0.3899
 6696TIP3   OH241502   5.014   4.776   3.926  0.0540 -0.2389  0.2732
 6696TIP3    H141503   5.042   4.701   3.979  0.3699  1.1379  2.1083
 6696TIP3    H241504   4.925   4.795   3.956  0.4423  0.9075  0.7324
 6697TIP3   OH241505   2.215   5.275   1.794 -0.4305  0.1281 -0.2661
 6697TIP3    H141506   2.286   5.294   1.733 -0.7467  1.0306 -0.3720
 6697TIP3    H241507   2.183   5.189   1.768 -1.9170  1.3205 -2.7658
 6698TIP3   OH241508   2.635   2.164  15.233  0.3684  0.3107  0.1918
 6698TIP3    H141509   2.667   2.102  15.298  0.1910 -0.1331 -0.1408
 6698TIP3    H241510   2.670   2.249  15.262 -0.1393  0.2026  1.1453
 6699TIP3   OH241511   3.096   1.596  14.391  0.4400  0.0827  0.7166
 6699TIP3    H141512   3.190   1.598  14.409  0.7621  0.3614 -0.7947
 6699TIP3    H241513   3.071   1.504  14.402  1.0719 -0.1401  0.3575
 6700TIP3   OH241514   5.633   0.650   1.206  1.3354  0.3868 -0.0148
 6700TIP3    H141515   5.543   0.634   1.177  1.4215 -0.5666  0.2119
 6700TIP3    H241516   5.677   0.684   1.128  0.9519  0.1978 -0.3193
 6701TIP3   OH241517   0.618   5.732  16.780  0.4372  0.0787 -0.1407
 6701TIP3    H141518   0.663   5.812  16.753 -0.1409 -0.0411 -1.5118
 6701TIP3    H241519   0.546   5.722  16.718  1.4092 -2.3339 -1.0034
 6702TIP3   OH241520   1.016   1.367  11.161 -0.1685 -0.1264  0.5175
 6702TIP3    H141521   0.941   1.411  11.121 -0.6789 -0.9379  0.5593
 6702TIP3    H241522   0.981   1.327  11.241  0.5259  0.2746  1.0402
 6703TIP3   OH241523   5.776   1.642   3.744 -0.1454  0.2537 -0.2027
 6703TIP3    H141524   5.817   1.674   3.663  4.0176 -1.8838  0.7702
 6703TIP3    H241525   5.806   1.702   3.812 -0.0275 -0.3903  0.3251
 6704TIP3   OH241526   5.113   2.766  14.754  0.1603  0.0441  0.2654
 6704TIP3    H141527   5.155   2.844  14.718  0.9941  1.0029  3.0398
 6704TIP3    H241528   5.045   2.800  14.812  1.6199 -1.0922  2.8375
 6705TIP3   OH241529   0.736   2.526  14.121  0.1276  0.0583 -0.1464
 6705TIP3    H141530   0.787   2.473  14.182 -0.1330  0.6050  0.5565
 6705TIP3    H241531   0.787   2.606  14.111  1.2578 -0.8480 -2.3268
 6706TIP3   OH241532   3.097   3.669   0.938  0.0899  0.0525 -0.3421
 6706TIP3    H141533   3.120   3.581   0.966 -0.6066 -0.1780 -0.4649
 6706TIP3    H241534   3.173   3.723   0.960  0.9549 -0.7717 -1.2333
 6707TIP3   OH241535   6.611   5.665   2.876 -0.7053  0.6399  0.0288
 6707TIP3    H141536   6.545   5.682   2.943  1.5989  0.5709  2.4464
 6707TIP3    H241537   6.637   5.574   2.891 -0.8994  0.2496 -1.7375
 6708TIP3   OH241538   3.085   0.382   4.877  0.2355  0.0851  0.2924
 6708TIP3    H141539   3.179   0.371   4.863  0.1731  0.3483 -0.3407
 6708TIP3    H241540   3.045   0.310   4.828  0.0298  0.8759 -0.7282
 6709TIP3   OH241541   1.539   5.066   0.724 -0.3444  0.0778 -0.5635
 6709TIP3    H141542   1.516   5.158   0.707  1.8631  0.9913  0.9248
 6709TIP3    H241543   1.545   5.027   0.638 -1.4530  1.2810 -1.2368
 6710TIP3   OH241544   1.473   1.952  14.353  0.0631 -0.1281 -0.6797
 6710TIP3    H141545   1.509   1.909  14.276  0.9642  1.5328 -1.2318
 6710TIP3    H241546   1.500   1.897  14.426 -0.3099 -1.4136 -1.4752
 6711TIP3   OH241547   1.740   4.819   3.644 -0.4671  0.0589 -0.4069
 6711TIP3    H141548   1.674   4.787   3.705  1.3994  0.1337  1.7824
 6711TIP3    H241549   1.706   4.903   3.613 -0.6137  1.0058  2.1060
 6712TIP3   OH241550   3.824   3.248  16.313  0.2191  0.2576 -0.6023
 6712TIP3    H141551   3.847   3.281  16.226  0.0323 -1.4730 -1.3464
 6712TIP3    H241552   3.808   3.155  16.300  0.0424 -0.0140  1.2766
 6713TIP3   OH241553   4.156   0.199   1.452  0.4350  0.2197  0.0091
 6713TIP3    H141554   4.241   0.181   1.413  1.1131  1.5313  0.7848
 6713TIP3    H241555   4.142   0.127   1.514  1.4056  0.4467  0.5095
 6714TIP3   OH241556   3.047   5.465  11.776  0.2269 -0.2602  0.0434
 6714TIP3    H141557   2.993   5.477  11.698  1.1160 -1.2509 -0.7381
 6714TIP3    H241558   3.137   5.463  11.744  0.5820 -1.1878  1.0329
 6715TIP3   OH241559   1.335   6.642   1.465 -0.1969  0.1033  0.3328
 6715TIP3    H141560   1.375   6.710   1.519  0.2177 -1.2801  1.8381
 6715TIP3    H241561   1.306   6.576   1.527 -1.9129 -0.4605 -0.9790
 6716TIP3   OH241562   4.732   2.223   0.032 -0.4980  0.0063  0.4465
 6716TIP3    H141563   4.674   2.176   0.093 -2.2278 -0.3456 -1.3792
 6716TIP3    H241564   4.706   2.315   0.041  0.4114  0.1869  1.4134
 6717TIP3   OH241565   4.757   4.217   3.172  0.2765 -0.3935 -0.2262
 6717TIP3    H141566   4.759   4.308   3.200  0.9459 -0.3044 -0.5272
 6717TIP3    H241567   4.836   4.179   3.211  0.8277 -0.4527 -1.3527
 6718TIP3   OH241568   4.406   4.193  15.496  0.9200  0.5567 -0.2948
 6718TIP3    H141569   4.347   4.178  15.570  2.4003  1.9783  1.2565
 6718TIP3    H241570   4.481   4.135  15.514  0.8038  0.0902 -1.2823
 6719TIP3   OH241571   0.540   0.851  12.965 -0.1126  0.3888  0.0643
 6719TIP3    H141572   0.520   0.760  12.987  1.4677  0.3990  1.7726
 6719TIP3    H241573   0.455   0.889  12.939 -0.8810 -1.4139 -0.1832
 6720TIP3   OH241574   0.545   1.990   4.937 -0.0516  0.3922 -0.3314
 6720TIP3    H141575   0.523   1.945   5.019 -1.9345  0.6639 -0.6383
 6720TIP3    H241576   0.639   1.975   4.926 -0.2318 -1.8343  0.5626
 6721TIP3   OH241577   3.200   3.420  14.410  0.6409 -0.1099 -0.2762
 6721TIP3    H141578   3.284   3.399  14.452  0.4070 -0.5404 -0.0122
 6721TIP3    H241579   3.176   3.505  14.446  0.9535  0.0059 -0.3360
 6722TIP3   OH241580   0.965   2.179  14.139 -0.5236 -0.4056  0.0116
 6722TIP3    H141581   0.875   2.210  14.137 -0.0293  1.2019  1.0608
 6722TIP3    H241582   0.981   2.156  14.230  0.4660  0.3768  0.0453
 6723TIP3   OH241583   4.140   2.003  15.492 -0.0735 -0.6454 -0.0664
 6723TIP3    H141584   4.071   1.937  15.483 -0.3995 -0.5438  1.3901
 6723TIP3    H241585   4.216   1.954  15.523 -0.0582 -0.4805  0.1655
 6724TIP3   OH241586   1.611   1.565   3.497  0.3373  0.3135 -0.0043
 6724TIP3    H141587   1.622   1.528   3.409 -0.1437 -0.1089  0.1069
 6724TIP3    H241588   1.699   1.591   3.523  1.0476 -2.4299  0.6347
 6725TIP3   OH241589   3.821   2.394   3.628 -0.5896 -0.0192  0.5380
 6725TIP3    H141590   3.902   2.415   3.673  0.9402 -2.9090 -0.6215
 6725TIP3    H241591   3.841   2.407   3.535 -1.6493 -0.1841  0.2680
 6726TIP3   OH241592   4.148   2.832  13.507 -0.1108 -0.0691 -0.0025
 6726TIP3    H141593   4.204   2.885  13.564 -0.3539  0.2739 -0.0804
 6726TIP3    H241594   4.181   2.742  13.517 -0.4086 -0.0757  0.9891
 6727TIP3   OH241595   1.607   4.690  14.158 -0.1071 -0.0675  0.8437
 6727TIP3    H141596   1.515   4.715  14.149  0.1354  0.9469  1.0576
 6727TIP3    H241597   1.641   4.693  14.068  0.0030  0.7503  0.9029
 6728TIP3   OH241598   4.208   4.242  12.771  0.8175 -0.0407  0.2058
 6728TIP3    H141599   4.275   4.307  12.750  1.0804 -0.4185 -0.1344
 6728TIP3    H241600   4.179   4.266  12.860 -0.5794  1.7938 -0.6755
 6729TIP3   OH241601   1.716   6.362   5.274 -0.1183  0.0188  0.3533
 6729TIP3    H141602   1.781   6.389   5.339  1.5412 -1.8342 -0.4273
 6729TIP3    H241603   1.677   6.283   5.311 -1.1615  0.5014  0.3060
 6730TIP3   OH241604   2.128   2.878  12.329  0.0148  0.2313 -0.1092
 6730TIP3    H141605   2.102   2.788  12.308 -2.0946  0.7796 -0.0325
 6730TIP3    H241606   2.148   2.876  12.422 -1.1746  0.0598  0.1595
 6731TIP3   OH241607   1.055   3.752   6.313  0.4053 -0.4014 -0.3795
 6731TIP3    H141608   1.133   3.786   6.356  0.2464 -0.9423  0.3731
 6731TIP3    H241609   1.087   3.685   6.253  0.6957  0.8593 -1.6838
 6732TIP3   OH241610   1.059   0.219  14.397  0.0460  0.0025  0.0121
 6732TIP3    H141611   0.997   0.173  14.453  1.0091 -1.3220  0.0458
 6732TIP3    H241612   1.123   0.152  14.372  1.6771  1.3807  0.2789
 6733TIP3   OH241613   5.468   3.661  16.989 -0.1998 -1.0830 -0.5639
 6733TIP3    H141614   5.379   3.686  17.015 -0.6392 -2.9386 -0.1486
 6733TIP3    H241615   5.476   3.569  17.015  0.1537 -2.4931 -4.8521
 6734TIP3   OH241616   0.630   4.290   5.616  0.0181  0.7061 -0.1250
 6734TIP3    H141617   0.638   4.226   5.687  2.7546  0.6742 -0.3651
 6734TIP3    H241618   0.550   4.265   5.570 -0.2492 -1.0659  1.2097
 6735TIP3   OH241619   3.536   2.797  13.052  0.1617 -0.1143 -0.1841
 6735TIP3    H141620   3.461   2.854  13.033  1.4235  1.9522  0.6788
 6735TIP3    H241621   3.562   2.763  12.966 -0.6161  0.6635 -0.7517
 6736TIP3   OH241622   3.348   6.014   4.251  0.0563  0.5561  0.6279
 6736TIP3    H141623   3.377   5.965   4.328  1.0838 -1.3444 -0.8761
 6736TIP3    H241624   3.382   6.103   4.265  0.3126  0.2302  2.2844
 6737TIP3   OH241625   1.111   4.864   6.331 -0.4458  0.4157  0.4294
 6737TIP3    H141626   1.186   4.804   6.336 -0.6387 -0.1837 -2.2543
 6737TIP3    H241627   1.109   4.907   6.417  0.9077 -1.9635  1.7836
 6738TIP3   OH241628   2.036   1.327  13.084  0.0921  0.4561  0.1492
 6738TIP3    H141629   1.957   1.272  13.082  0.3537  0.0557  0.7457
 6738TIP3    H241630   2.107   1.267  13.062  0.0466  1.1885 -2.2931
 6739TIP3   OH241631   0.707   1.438  13.606 -0.3877  0.8825  0.5719
 6739TIP3    H141632   0.710   1.391  13.523 -2.2451  0.9731  0.4130
 6739TIP3    H241633   0.750   1.380  13.668  0.9877  0.7900 -0.4107
 6740TIP3   OH241634   4.357   4.565   2.060  0.1420 -0.3047 -0.3776
 6740TIP3    H141635   4.395   4.532   2.142  0.3206 -1.6288 -0.9624
 6740TIP3    H241636   4.392   4.653   2.052 -1.9790  0.9184  2.2938
 6741TIP3   OH241637   1.231   1.029  17.196  0.6226 -0.2404  0.6684
 6741TIP3    H141638   1.212   1.099  17.133  1.4726  0.8351  1.5430
 6741TIP3    H241639   1.321   1.003  17.176  0.1566 -1.4467  0.0508
 6742TIP3   OH241640   2.722   3.642  12.481 -0.6475  0.5744 -0.3916
 6742TIP3    H141641   2.711   3.716  12.421  0.7175  0.8622 -0.3234
 6742TIP3    H241642   2.808   3.656  12.521 -0.4248 -0.9570 -0.2558
 6743TIP3   OH241643   4.051   0.267  13.828 -0.3592  0.1938 -0.4301
 6743TIP3    H141644   3.985   0.226  13.883 -0.6162  1.1672  0.0063
 6743TIP3    H241645   4.034   0.232  13.740 -0.9250 -0.1879 -0.1770
 6744TIP3   OH241646   3.485   5.953  13.159  0.3997  0.6754 -0.0410
 6744TIP3    H141647   3.457   5.862  13.164 -1.1317  1.1258  0.0206
 6744TIP3    H241648   3.496   5.970  13.066  0.7708  0.4122 -0.0475
 6745TIP3   OH241649   0.125   5.472  16.054  0.5132  0.0449  0.3454
 6745TIP3    H141650   0.163   5.416  15.986  0.0585 -0.8926  0.8470
 6745TIP3    H241651   0.201   5.503  16.104  0.7888  0.0781 -0.0837
 6746TIP3   OH241652   5.399   1.343  17.289 -0.2480  0.1715 -0.2125
 6746TIP3    H141653   5.446   1.261  17.273  0.4919  0.3549  0.9301
 6746TIP3    H241654   5.371   1.337  17.380 -1.2298  0.6899 -0.4641
 6747TIP3   OH241655   4.633   4.854   5.418 -0.1734  0.6464  0.4813
 6747TIP3    H141656   4.690   4.893   5.484  0.0209  1.6003 -0.2310
 6747TIP3    H241657   4.647   4.760   5.427 -0.1357  0.7493  1.7764
 6748TIP3   OH241658   5.595   6.367   0.412  0.6522 -0.3522 -0.2478
 6748TIP3    H141659   5.569   6.278   0.436 -0.1293  0.1206  0.7380
 6748TIP3    H241660   5.581   6.419   0.491 -1.7602  1.2195 -1.5643
 6749TIP3   OH241661   6.727   2.555  16.152 -0.1303  0.2918 -0.0794
 6749TIP3    H141662   6.656   2.554  16.216 -0.0759 -1.2888  0.0122
 6749TIP3    H241663   6.696   2.498  16.082  0.0472  1.5573 -1.2161
 6750TIP3   OH241664   2.409   0.344   3.272 -0.9710 -0.0828 -0.2020
 6750TIP3    H141665   2.481   0.388   3.227 -0.0027  1.6688  2.8024
 6750TIP3    H241666   2.330   0.376   3.228 -0.0561  0.1459 -1.7462
 6751TIP3   OH241667   1.900   2.593   5.133  0.8783  0.0352  0.4719
 6751TIP3    H141668   1.893   2.642   5.051  0.4720  0.7408  0.9156
 6751TIP3    H241669   1.975   2.632   5.178  2.4038 -1.7123 -0.4379
 6752TIP3   OH241670   3.707   0.430  12.078 -0.4285  0.1009 -0.4998
 6752TIP3    H141671   3.710   0.335  12.073  1.7384  0.1987 -2.1311
 6752TIP3    H241672   3.767   0.461  12.011 -0.1913  2.6210  0.7166
 6753TIP3   OH241673   2.106   6.531   4.311 -0.3959 -0.2885 -0.3429
 6753TIP3    H141674   2.077   6.514   4.401 -0.5925  1.5714 -0.0176
 6753TIP3    H241675   2.109   6.626   4.304 -1.3164 -0.3594 -2.6218
 6754TIP3   OH241676   1.046   5.388   3.486  0.4142  0.0699 -0.1719
 6754TIP3    H141677   1.142   5.393   3.484  0.5981 -2.1877  0.1481
 6754TIP3    H241678   1.021   5.376   3.395  0.2322  2.4051 -0.4964
 6755TIP3   OH241679   2.607   5.210  11.564 -0.0141 -0.1924  0.4145
 6755TIP3    H141680   2.539   5.202  11.631 -0.6167 -1.7411 -0.3476
 6755TIP3    H241681   2.669   5.272  11.602 -0.4010 -0.9030  2.3678
 6756TIP3   OH241682   1.202   0.883  13.994  0.0364 -0.4777 -0.4694
 6756TIP3    H141683   1.181   0.829  14.070  0.9198 -0.8608 -0.4874
 6756TIP3    H241684   1.253   0.826  13.937  1.2837  0.4634 -0.3406
 6757TIP3   OH241685   0.141   3.136   6.821  0.2808  0.1201  0.6934
 6757TIP3    H141686   0.232   3.109   6.808  0.0156 -1.5500  1.9793
 6757TIP3    H241687   0.091   3.083   6.757  0.2656  1.8381 -0.7998
 6758TIP3   OH241688   6.226   4.122   4.987 -0.1475 -0.5417 -0.1368
 6758TIP3    H141689   6.233   4.185   4.916  2.1501  0.8001  1.1813
 6758TIP3    H241690   6.134   4.125   5.012 -0.1955  2.0095 -0.3916
 6759TIP3   OH241691   1.848   5.805  14.886  0.8419 -0.1741 -0.0201
 6759TIP3    H141692   1.896   5.851  14.955  1.1936  1.9520 -1.5367
 6759TIP3    H241693   1.916   5.760  14.836  0.9443  0.5357 -0.5366
 6760TIP3   OH241694   3.234   6.194   5.847 -0.3885 -0.3542 -0.3758
 6760TIP3    H141695   3.192   6.144   5.777  0.1003 -1.2712 -0.0278
 6760TIP3    H241696   3.197   6.158   5.928  1.0478 -1.2032 -0.0590
 6761TIP3   OH241697   3.866   6.558  16.331 -1.4074 -0.3689 -0.3831
 6761TIP3    H141698   3.901   6.646  16.317 -0.0616 -0.4670  1.7886
 6761TIP3    H241699   3.815   6.564  16.412  1.1556 -2.0773  1.5425
 6762TIP3   OH241700   0.530   2.032   4.520  0.0450  0.0028  0.1564
 6762TIP3    H141701   0.621   2.054   4.500 -0.2423  2.0179  0.8247
 6762TIP3    H241702   0.513   2.078   4.603 -1.2360 -1.3294  0.6723
 6763TIP3   OH241703   1.134   2.272  14.722 -0.2493  0.5026  0.0614
 6763TIP3    H141704   1.065   2.247  14.660 -0.2872 -0.8453  0.6106
 6763TIP3    H241705   1.204   2.209  14.707  0.8625  1.8263 -0.4396
 6764TIP3   OH241706   3.047   0.379  13.369 -0.4212  0.4348 -0.5861
 6764TIP3    H141707   3.014   0.291  13.382 -1.1443  0.8952  0.8891
 6764TIP3    H241708   3.053   0.416  13.457  1.8071  1.1824 -0.9836
 6765TIP3   OH241709   4.274   4.935  15.161 -0.1030  0.2497 -0.2378
 6765TIP3    H141710   4.363   4.964  15.181  0.9488 -2.6387 -0.2749
 6765TIP3    H241711   4.264   4.953  15.067  0.2483  1.0160 -0.1352
 6766TIP3   OH241712   0.570   0.852  14.605  0.1418 -0.2361  0.0686
 6766TIP3    H141713   0.494   0.830  14.551 -0.0314  1.0819 -0.2710
 6766TIP3    H241714   0.581   0.777  14.664 -1.0779 -0.6841 -0.2462
 6767TIP3   OH241715   2.219   3.917  14.988 -0.2047  0.3619  0.1821
 6767TIP3    H141716   2.281   3.897  15.057 -0.3127  0.1374  0.2150
 6767TIP3    H241717   2.142   3.952  15.033 -0.3596  0.0098  0.1944
 6768TIP3   OH241718   3.652   1.532   6.036 -0.2671  0.2485  0.5420
 6768TIP3    H141719   3.615   1.444   6.041  1.8434 -0.6388  1.3972
 6768TIP3    H241720   3.703   1.532   5.955 -0.2482  0.6982  0.5494
 6769TIP3   OH241721   2.983   1.982  14.488 -0.3947 -0.2910  0.6408
 6769TIP3    H141722   3.012   1.945  14.404  1.0428  1.5897  0.2509
 6769TIP3    H241723   3.054   1.962  14.549 -1.4471 -1.6769  1.4838
 6770TIP3   OH241724   3.623   2.474   0.966 -0.4364  0.4329  0.1007
 6770TIP3    H141725   3.630   2.467   1.061  1.4368  1.0574  0.0506
 6770TIP3    H241726   3.693   2.534   0.941 -0.5351 -0.1482 -1.7324
 6771TIP3   OH241727   2.225   1.884  16.664 -0.0456  0.4918  0.2819
 6771TIP3    H141728   2.275   1.890  16.583  0.3472  0.6069  0.5311
 6771TIP3    H241729   2.241   1.795  16.696  0.3949  0.6915  0.6169
 6772TIP3   OH241730   3.985   2.834  17.154 -0.7468  0.1527  0.2819
 6772TIP3    H141731   4.014   2.878  17.074 -0.7434 -0.3435  0.0041
 6772TIP3    H241732   3.997   2.741  17.135 -0.4260  0.0427  0.9833
 6773TIP3   OH241733   5.493   1.284   5.304  0.1276 -0.1516  0.1164
 6773TIP3    H141734   5.554   1.332   5.248  0.5539 -0.1642  0.5684
 6773TIP3    H241735   5.514   1.192   5.290 -0.6109 -0.2222 -0.6576
 6774TIP3   OH241736   6.383   3.390   3.998 -0.2992 -0.0132  0.0379
 6774TIP3    H141737   6.392   3.409   4.091 -0.2005  1.6097 -0.2677
 6774TIP3    H241738   6.473   3.396   3.964 -0.4407  0.2127 -0.3000
 6775TIP3   OH241739   0.465   5.120  13.239  0.4522  0.4293 -0.4531
 6775TIP3    H141740   0.485   5.187  13.304  0.4394  0.4350 -0.4551
 6775TIP3    H241741   0.401   5.063  13.282  1.1082 -0.0825 -0.1305
 6776TIP3   OH241742   5.316   3.678   5.655  0.1456 -0.6431 -0.6410
 6776TIP3    H141743   5.360   3.759   5.630  0.4814 -1.1063 -1.6020
 6776TIP3    H241744   5.240   3.707   5.705  0.9401  0.2136  0.1252
 6777TIP3   OH241745   0.954   3.217   2.568 -0.2420  0.0471  0.1001
 6777TIP3    H141746   0.860   3.234   2.564 -0.2318  0.1856  0.4255
 6777TIP3    H241747   0.984   3.230   2.478 -0.8863 -2.1564 -0.4976
 6778TIP3   OH241748   3.975   3.665  11.535  0.5665  0.0539 -1.0629
 6778TIP3    H141749   3.920   3.611  11.592  0.4100  0.5990 -0.6878
 6778TIP3    H241750   3.914   3.708  11.475  0.6597  0.0470 -1.1631
 6779TIP3   OH241751   0.032   4.984   3.272 -0.1301  0.1072 -0.0759
 6779TIP3    H141752  -0.060   4.971   3.250 -0.4389  0.3230  1.0530
 6779TIP3    H241753   0.066   5.038   3.201 -0.7642 -0.2958 -0.7084
 6780TIP3   OH241754   3.296   4.313  10.346  0.0298  0.2637 -1.0920
 6780TIP3    H141755   3.349   4.275  10.275 -1.7825  1.0471 -2.9737
 6780TIP3    H241756   3.314   4.407  10.341  1.8149  0.1460  1.2505
 6781TIP3   OH241757   4.104   2.514   5.119 -0.4780  0.1528  0.9559
 6781TIP3    H141758   4.009   2.500   5.119 -0.5669  0.6098  2.4303
 6781TIP3    H241759   4.119   2.573   5.193  1.0392 -0.4636  1.1615
 6782TIP3   OH241760   4.243   2.587  11.362  0.3992  0.7186  0.0699
 6782TIP3    H141761   4.319   2.577  11.305  0.6873  0.4398  0.4981
 6782TIP3    H241762   4.169   2.558  11.309  0.6544  0.5583 -0.1987
 6783TIP3   OH241763   2.933   4.879  15.177  0.1599 -0.0739  0.9066
 6783TIP3    H141764   2.940   4.785  15.164 -0.2948 -0.1074  0.9139
 6783TIP3    H241765   2.995   4.899  15.248  1.3570 -0.1515 -0.0798
 6784TIP3   OH241766   3.563   2.317  15.188 -0.2710  0.3185 -0.3497
 6784TIP3    H141767   3.530   2.385  15.129  0.6323 -0.8565 -2.2950
 6784TIP3    H241768   3.652   2.344  15.208 -0.3457  0.3586 -0.0671
 6785TIP3   OH241769   2.548   2.912   1.352 -0.2018 -0.9705  0.1446
 6785TIP3    H141770   2.455   2.900   1.373 -0.5599 -0.9658 -1.3665
 6785TIP3    H241771   2.572   2.831   1.307 -0.0359 -0.1458 -1.3133
 6786TIP3   OH241772   6.082   4.765   0.924 -0.3257  0.3223  0.1008
 6786TIP3    H141773   6.144   4.779   0.853  0.4057  0.2892  0.7227
 6786TIP3    H241774   6.063   4.671   0.922 -2.2643  0.6720 -1.6250
 6787TIP3   OH241775   2.668   1.148  11.638  0.5675 -0.5298  0.4356
 6787TIP3    H141776   2.610   1.203  11.690  1.0180 -1.1638  1.6398
 6787TIP3    H241777   2.738   1.123  11.699  1.7167 -0.3797 -0.7734
 6788TIP3   OH241778   5.835   3.973   3.473 -0.4936 -0.1045  0.1295
 6788TIP3    H141779   5.896   4.028   3.522  0.4355 -0.1035 -0.9857
 6788TIP3    H241780   5.846   3.886   3.511 -2.3358  0.4854  2.2448
 6789TIP3   OH241781   4.378   5.972   4.981 -0.1913  0.2344 -0.8346
 6789TIP3    H141782   4.332   5.963   5.064 -1.0584 -1.7845 -1.4774
 6789TIP3    H241783   4.415   5.885   4.964  2.3094  1.3130 -1.2602
 6790TIP3   OH241784   6.182   0.870  11.553 -0.3450 -0.3814  0.0086
 6790TIP3    H141785   6.112   0.934  11.561  0.8128  0.8828  0.2987
 6790TIP3    H241786   6.180   0.843  11.461 -0.3278  0.6783 -0.3159
 6791TIP3   OH241787   0.406   0.484  12.661 -0.0678 -0.1775 -0.0959
 6791TIP3    H141788   0.327   0.432  12.647 -0.2192  0.4539 -1.7129
 6791TIP3    H241789   0.403   0.506  12.754 -1.8263 -0.1212 -0.1257
 6792TIP3   OH241790   0.998   1.128   3.288  0.0686  0.5753  0.4272
 6792TIP3    H141791   1.015   1.151   3.197  0.9521 -1.4930  0.0334
 6792TIP3    H241792   0.967   1.038   3.285 -0.0674  0.5298  2.1764
 6793TIP3   OH241793   3.783   2.036   5.745 -0.3889 -0.3496  0.5040
 6793TIP3    H141794   3.848   2.105   5.729 -0.5308 -0.1342  0.8418
 6793TIP3    H241795   3.803   2.005   5.834  0.9616 -2.1351 -0.3517
 6794TIP3   OH241796   3.236   5.024   2.559  0.5761  0.5441 -0.2501
 6794TIP3    H141797   3.278   4.955   2.610 -0.6997 -0.4277 -0.4554
 6794TIP3    H241798   3.301   5.049   2.493  1.0350 -0.5140 -0.2146
 6795TIP3   OH241799   5.588   3.628   2.765  0.1049  0.1630 -0.2893
 6795TIP3    H141800   5.598   3.545   2.719  2.4023 -0.9417  1.9728
 6795TIP3    H241801   5.505   3.620   2.812 -0.6635  0.0040 -1.6254
 6796TIP3   OH241802   1.371   1.239  12.898 -0.0020  0.6745  0.6618
 6796TIP3    H141803   1.369   1.143  12.901 -0.6265  0.6460 -0.2931
 6796TIP3    H241804   1.292   1.263  12.851  1.1599  1.5565 -0.9536
 6797TIP3   OH241805   6.472   0.824  10.679 -0.3167  0.0032  0.5968
 6797TIP3    H141806   6.409   0.896  10.671 -1.8333 -1.4693 -2.2523
 6797TIP3    H241807   6.430   0.762  10.738 -0.5436  0.0012  0.4355
 6798TIP3   OH241808   0.358   3.709  16.488  0.4277  0.3305 -0.3545
 6798TIP3    H141809   0.427   3.773  16.475  0.1417  0.8561  0.6610
 6798TIP3    H241810   0.310   3.708  16.405  0.6217  1.2044 -0.4805
 6799TIP3   OH241811   4.394   5.841  14.490  0.0868 -0.6523  0.1521
 6799TIP3    H141812   4.344   5.767  14.523 -0.6761 -0.9179 -1.4913
 6799TIP3    H241813   4.485   5.818  14.507 -0.1919 -1.4891  0.5778
 6800TIP3   OH241814   5.035   3.843  17.143  0.2619  0.6145 -0.4746
 6800TIP3    H141815   4.962   3.835  17.205  1.8517 -1.6965  1.2409
 6800TIP3    H241816   4.998   3.815  17.059 -0.4009 -2.6029  0.7690
 6801TIP3   OH241817   3.588   5.557   5.858 -0.5862  0.7489 -0.3682
 6801TIP3    H141818   3.551   5.512   5.781 -0.0252 -0.0599 -0.1824
 6801TIP3    H241819   3.629   5.487   5.908  1.4552  1.6353 -0.7030
 6802TIP3   OH241820   5.894   4.738   1.139  0.6252  0.7168  0.2725
 6802TIP3    H141821   5.963   4.757   1.076  1.0155  0.2501  0.5426
 6802TIP3    H241822   5.812   4.748   1.090  0.9123  0.5709 -0.2439
 6803TIP3   OH241823   4.015   4.535   3.685 -0.0680  0.4020  0.2593
 6803TIP3    H141824   4.000   4.478   3.610  1.3892  0.2083  0.0839
 6803TIP3    H241825   4.004   4.477   3.761  1.9854 -0.3461  0.0720
 6804TIP3   OH241826   5.864   5.608  11.435  0.4818  0.3456  0.2515
 6804TIP3    H141827   5.854   5.619  11.340 -0.4087  0.3233  0.3306
 6804TIP3    H241828   5.958   5.618  11.451  0.8224 -0.9121 -0.7898
 6805TIP3   OH241829   2.878   2.083  15.432  0.1289  0.4115 -0.2098
 6805TIP3    H141830   2.810   2.065  15.496  0.3152 -3.4206 -0.8397
 6805TIP3    H241831   2.912   2.169  15.456 -4.8858  2.6765  0.0546
 6806TIP3   OH241832   0.754   1.949  16.750  0.3082  0.0454 -0.5977
 6806TIP3    H141833   0.758   2.042  16.773  0.1461 -0.4564  1.6633
 6806TIP3    H241834   0.845   1.925  16.733  0.2067  0.8881 -2.5552
 6807TIP3   OH241835   5.983   2.538  12.636 -0.1699  0.2559  0.1274
 6807TIP3    H141836   5.930   2.465  12.668  0.1354 -0.0696 -0.0941
 6807TIP3    H241837   5.937   2.616  12.666 -0.5147 -0.0268  0.3491
 6808TIP3   OH241838   4.734   1.177  15.140 -0.5056 -0.5114  0.0437
 6808TIP3    H141839   4.708   1.165  15.231 -1.6398  1.0226 -0.0518
 6808TIP3    H241840   4.741   1.087  15.106  0.8747 -1.1519  1.8480
 6809TIP3   OH241841   1.350   3.086  12.813 -0.3733  0.4452  0.2353
 6809TIP3    H141842   1.347   3.077  12.909 -0.9890  0.8540  0.2593
 6809TIP3    H241843   1.287   3.156  12.794 -1.3271 -0.5919 -0.5858
 6810TIP3   OH241844   2.568   4.292  13.212  0.1889  0.1212  0.1304
 6810TIP3    H141845   2.519   4.245  13.280 -1.7997 -1.8375 -2.3888
 6810TIP3    H241846   2.649   4.242  13.202  1.0135  1.0854  1.7444
 6811TIP3   OH241847   5.607   4.408   3.296  0.1574 -0.0628  0.4391
 6811TIP3    H141848   5.631   4.320   3.326  1.6947  0.7119  1.5732
 6811TIP3    H241849   5.629   4.465   3.369 -2.9056  1.0786  0.6380
 6812TIP3   OH241850   4.927   3.752  16.058  0.3769  0.2427 -0.0212
 6812TIP3    H141851   4.923   3.847  16.057  1.0201  0.3463  1.9868
 6812TIP3    H241852   4.854   3.724  16.003 -0.2352  1.8857 -0.1044
 6813TIP3   OH241853   4.098   0.563   1.873 -0.4548  0.6701 -0.2077
 6813TIP3    H141854   4.111   0.641   1.819 -1.7636  2.5154  1.9465
 6813TIP3    H241855   4.093   0.597   1.963 -0.3417 -2.0037  0.9015
 6814TIP3   OH241856   3.782   2.928  14.824 -0.1367  0.2183 -0.5785
 6814TIP3    H141857   3.846   2.867  14.788 -0.5823 -0.8103  0.3505
 6814TIP3    H241858   3.825   2.965  14.901 -0.3296  0.1923 -0.4596
 6815TIP3   OH241859   0.986   0.099   0.329 -0.6653 -0.7333  0.1056
 6815TIP3    H141860   1.030   0.111   0.414  1.2483 -0.5541 -0.8585
 6815TIP3    H241861   0.977   0.187   0.294 -0.6892 -0.8671 -0.2293
 6816TIP3   OH241862   2.557   5.137  12.671  0.7527 -0.3165  0.1309
 6816TIP3    H141863   2.479   5.119  12.619  0.7410 -0.6105  0.2485
 6816TIP3    H241864   2.555   5.072  12.742  0.6273  0.2506  0.6558
 6817TIP3   OH241865   0.478   0.061   1.566  0.4053 -0.1261 -0.7287
 6817TIP3    H141866   0.467  -0.023   1.610  2.5759 -0.6733 -1.1521
 6817TIP3    H241867   0.539   0.110   1.621 -1.3108  1.5068 -0.1315
 6818TIP3   OH241868   4.863   0.758   1.708  0.0534 -0.1659 -0.3026
 6818TIP3    H141869   4.906   0.697   1.768  1.4727  1.1591  0.0950
 6818TIP3    H241870   4.830   0.703   1.637 -0.4863 -1.6127  1.0153
 6819TIP3   OH241871   3.284   4.347   0.577 -0.0044 -0.2277 -0.8999
 6819TIP3    H141872   3.204   4.370   0.624  0.5543 -1.5173  0.8343
 6819TIP3    H241873   3.298   4.255   0.599  1.2017 -0.4141 -2.3175
 6820TIP3   OH241874   3.751   1.484  14.139  0.3137 -0.3582  0.6237
 6820TIP3    H141875   3.832   1.435  14.151 -0.1873 -1.3409  0.1215
 6820TIP3    H241876   3.682   1.419  14.147 -0.4315  0.4418  0.9072
 6821TIP3   OH241877   6.218   1.359   4.525 -0.1527 -0.8873  0.2723
 6821TIP3    H141878   6.261   1.284   4.567 -0.7008 -2.4092 -1.7376
 6821TIP3    H241879   6.172   1.403   4.597 -0.3512 -2.8500  1.4377
 6822TIP3   OH241880   6.269   4.331  15.780  0.1237  0.5547 -0.3680
 6822TIP3    H141881   6.325   4.308  15.855  0.6182  0.3898 -0.7824
 6822TIP3    H241882   6.206   4.394  15.815 -1.3023 -1.4038  0.8381
 6823TIP3   OH241883   5.743   2.911   5.227  0.3115  0.2759  0.1187
 6823TIP3    H141884   5.830   2.945   5.246 -0.2751  0.6222  2.5859
 6823TIP3    H241885   5.687   2.951   5.294 -0.9039 -3.3355  1.4889
 6824TIP3   OH241886   1.097   1.306  15.187  0.6515  0.5498  0.1048
 6824TIP3    H141887   1.049   1.385  15.214 -2.9182 -1.1416 -0.6347
 6824TIP3    H241888   1.090   1.306  15.091  0.2194 -0.8083  0.1127
 6825TIP3   OH241889   5.926   1.529   0.959  0.1985 -0.0095 -0.2574
 6825TIP3    H141890   5.904   1.483   0.878  0.9271 -1.1833  0.1715
 6825TIP3    H241891   5.851   1.515   1.017  0.4267 -0.7036 -0.1219
 6826TIP3   OH241892   6.296   1.864  17.085 -0.2401 -0.4194  0.0420
 6826TIP3    H141893   6.279   1.859  17.179  1.3303 -0.3051  0.3676
 6826TIP3    H241894   6.346   1.946  17.075 -2.4070  0.8205 -1.2579
 6827TIP3   OH241895   6.108   3.732  14.373 -0.1036 -0.3713  0.1917
 6827TIP3    H141896   6.201   3.712  14.387 -0.0931  0.0456  0.7636
 6827TIP3    H241897   6.094   3.814  14.420 -0.4439  0.3173 -1.0682
 6828TIP3   OH241898   4.932   1.580  16.353 -0.1760 -0.0783 -0.3869
 6828TIP3    H141899   4.873   1.505  16.347 -1.3798  0.7610  0.4134
 6828TIP3    H241900   5.000   1.552  16.415 -0.5248 -0.5571 -0.2191
 6829TIP3   OH241901   3.015   3.764  14.267  0.7962  0.2950  0.3554
 6829TIP3    H141902   2.945   3.829  14.272  1.6310  1.5465 -2.1419
 6829TIP3    H241903   2.982   3.699  14.205  0.7477 -0.6713  1.3635
 6830TIP3   OH241904   3.811   3.581  13.547  0.6239 -0.2507 -0.0779
 6830TIP3    H141905   3.796   3.514  13.614  1.6551  0.2937  0.7249
 6830TIP3    H241906   3.747   3.649  13.567 -0.7966 -1.1780 -1.2199
 6831TIP3   OH241907   5.305   3.329  10.449  0.0272  0.3320  0.5174
 6831TIP3    H141908   5.375   3.370  10.499  0.7254  0.1391 -0.2797
 6831TIP3    H241909   5.256   3.403  10.413  1.8890  0.5956 -1.7658
 6832TIP3   OH241910   6.567   1.873   3.941 -0.6006 -0.1937 -0.0835
 6832TIP3    H141911   6.546   1.855   3.849 -1.4275  0.6084 -0.0673
 6832TIP3    H241912   6.564   1.787   3.983  0.5107 -0.6672 -0.9319
 6833TIP3   OH241913   2.311   1.534  16.301 -0.3220 -0.1133  0.8129
 6833TIP3    H141914   2.372   1.513  16.372 -1.3695  0.0271  1.7697
 6833TIP3    H241915   2.342   1.482  16.227 -0.3230 -1.7052  1.8946
 6834TIP3   OH241916   1.588   5.562   3.376 -0.3584 -0.3552 -0.1696
 6834TIP3    H141917   1.498   5.589   3.395  0.5325  2.6640  0.3744
 6834TIP3    H241918   1.629   5.554   3.462 -0.0112 -1.4833 -0.4215
 6835TIP3   OH241919   6.173   4.363  13.230  0.0401 -0.3598  0.0797
 6835TIP3    H141920   6.224   4.283  13.215 -0.6652 -0.9969  0.9568
 6835TIP3    H241921   6.114   4.340  13.302 -1.4240  0.3747 -0.8474
 6836TIP3   OH241922   1.038   1.246   5.665 -0.8123  0.4035 -0.1928
 6836TIP3    H141923   1.074   1.164   5.632  0.4746  1.3177 -1.2208
 6836TIP3    H241924   0.944   1.238   5.655 -0.5809 -0.0553 -2.5447
 6837TIP3   OH241925   5.813   2.985  11.853  0.6302  0.6391 -0.0786
 6837TIP3    H141926   5.769   2.968  11.770 -0.8293  0.2570  0.7428
 6837TIP3    H241927   5.828   3.080  11.854 -1.3873  0.9883  0.1746
 6838TIP3   OH241928   2.122   3.529  16.053  0.3615 -0.2040 -0.7187
 6838TIP3    H141929   2.156   3.534  15.964  0.7512 -2.2605 -0.7228
 6838TIP3    H241930   2.150   3.612  16.093  0.8128  0.4318 -2.2740
 6839TIP3   OH241931   4.622   5.575  14.461 -0.0364 -0.6107 -0.2682
 6839TIP3    H141932   4.647   5.496  14.508 -0.3403 -2.1931 -2.5698
 6839TIP3    H241933   4.641   5.647  14.522  1.7291 -2.3141  1.3418
 6840TIP3   OH241934   1.906   3.322   0.271 -0.3034 -0.0601  0.1235
 6840TIP3    H141935   1.879   3.338   0.362  1.4799  1.9687  0.3688
 6840TIP3    H241936   1.833   3.354   0.218 -1.3077 -1.1478  0.7861
 6841TIP3   OH241937   2.115   4.638   4.815  0.2561 -0.3989  0.0204
 6841TIP3    H141938   2.137   4.549   4.842  1.2798  0.3908  2.0035
 6841TIP3    H241939   2.023   4.649   4.837  1.0520  0.2463  3.7116
 6842TIP3   OH241940   3.972   3.232  16.989  0.3312 -0.5477 -0.2115
 6842TIP3    H141941   3.962   3.242  17.084 -0.3195 -1.5700 -0.1629
 6842TIP3    H241942   3.985   3.139  16.976  1.7239 -0.2596 -1.0307
 6843TIP3   OH241943   0.667   3.276   1.742  0.3998  0.9789 -0.3226
 6843TIP3    H141944   0.669   3.356   1.691  2.2347  1.7448  0.8579
 6843TIP3    H241945   0.597   3.290   1.806  0.1535  1.2677 -0.6528
 6844TIP3   OH241946   0.671   0.932  14.194 -0.3685  0.5002  0.3461
 6844TIP3    H141947   0.622   0.959  14.116 -0.4384  0.6017  0.4247
 6844TIP3    H241948   0.604   0.895  14.253 -0.2880  0.2491  0.2812
 6845TIP3   OH241949   1.324   1.725   4.886  0.3430  0.4225  0.2700
 6845TIP3    H141950   1.366   1.778   4.818  0.9752 -2.2347 -1.5480
 6845TIP3    H241951   1.233   1.720   4.859  0.8045 -1.5795 -1.1738
 6846TIP3   OH241952   1.577   3.635   5.087 -0.2841  0.2066  0.1042
 6846TIP3    H141953   1.542   3.612   5.173 -0.4744 -0.1250 -0.0584
 6846TIP3    H241954   1.659   3.587   5.081  0.0606  0.7596  0.3699
 6847TIP3   OH241955   5.354   5.447  13.716 -0.3201  0.0185 -0.0631
 6847TIP3    H141956   5.416   5.496  13.662 -0.5983 -1.3930 -1.7633
 6847TIP3    H241957   5.269   5.460  13.674 -0.4259 -1.7219 -0.4895
 6848TIP3   OH241958   2.633   6.548   1.572 -0.0542  0.1898  0.1093
 6848TIP3    H141959   2.678   6.464   1.561  0.4937  0.5840 -0.7521
 6848TIP3    H241960   2.605   6.548   1.664  0.9637 -0.4212  0.4374
 6849TIP3   OH241961   3.617   4.981   2.533  0.1762  0.0384  0.6224
 6849TIP3    H141962   3.562   4.906   2.555  0.4366 -0.1960  0.4803
 6849TIP3    H241963   3.606   5.042   2.607  0.4498 -0.4128  1.0416
 6850TIP3   OH241964   5.659   1.602   1.521 -0.0975 -0.0903  0.1888
 6850TIP3    H141965   5.598   1.634   1.588  2.4512  2.3137  1.5865
 6850TIP3    H241966   5.668   1.509   1.539 -2.3349 -0.2575  0.7260
 6851TIP3   OH241967   1.778   2.668   6.552  0.3770  0.5366 -0.3590
 6851TIP3    H141968   1.802   2.745   6.603  2.7403  1.9101 -3.2029
 6851TIP3    H241969   1.851   2.607   6.564 -1.4263 -1.3732  1.7975
 6852TIP3   OH241970   0.115   2.875   0.913  0.5579  0.1740  0.7129
 6852TIP3    H141971   0.179   2.945   0.904  1.4723 -0.5523  1.4354
 6852TIP3    H241972   0.159   2.797   0.879 -0.7176  0.0550 -0.8395
 6853TIP3   OH241973   4.541   1.615  16.531  0.4614 -0.5651  0.1354
 6853TIP3    H141974   4.576   1.677  16.468  0.9398 -0.6761  0.2809
 6853TIP3    H241975   4.446   1.622  16.523  0.5172 -0.4574 -0.4717
 6854TIP3   OH241976   5.418   0.249  14.885  0.2601  0.0375 -0.0322
 6854TIP3    H141977   5.349   0.315  14.893  1.6807  1.3896  1.5483
 6854TIP3    H241978   5.485   0.290  14.831 -0.4587 -1.6212 -2.3733
 6855TIP3   OH241979   3.118   4.244   3.429  0.1354  0.1903 -0.0827
 6855TIP3    H141980   3.090   4.246   3.338 -3.2824  2.3118  0.8377
 6855TIP3    H241981   3.111   4.152   3.455 -0.5998 -0.1651 -1.4694
 6856TIP3   OH241982   0.846   3.031   3.482 -0.3811 -0.1329 -0.6172
 6856TIP3    H141983   0.917   3.052   3.543 -2.7774  1.9113  1.6927
 6856TIP3    H241984   0.796   2.962   3.526 -1.4941  0.5582 -0.7438
 6857TIP3   OH241985   5.626   6.006   4.682  0.6809 -0.4415 -0.3909
 6857TIP3    H141986   5.584   6.026   4.766 -0.2594 -0.0877 -0.9227
 6857TIP3    H241987   5.639   5.911   4.684 -0.0101 -0.5410 -0.1318
 6858TIP3   OH241988   3.276   6.516  12.148 -0.1790 -0.2801 -0.2614
 6858TIP3    H141989   3.352   6.479  12.102 -0.8739 -1.6710 -0.3421
 6858TIP3    H241990   3.256   6.452  12.216 -0.9125  0.3765  0.1604
 6859TIP3   OH241991   4.299   5.211  15.495 -0.3965  0.3282  0.2284
 6859TIP3    H141992   4.338   5.293  15.464 -1.9024  0.4780 -1.4578
 6859TIP3    H241993   4.205   5.224  15.485 -0.6790 -1.5059  0.1698
 6860TIP3   OH241994   6.462   4.809  17.279 -0.8013 -0.1984 -0.4733
 6860TIP3    H141995   6.407   4.858  17.339  0.4935  3.4859 -2.0464
 6860TIP3    H241996   6.451   4.853  17.195  1.2534 -2.0407 -1.8054
 6861TIP3   OH241997   4.632   2.212  14.958  0.5204  0.4600  0.1447
 6861TIP3    H141998   4.599   2.122  14.952  0.3466  0.5185  0.2202
 6861TIP3    H241999   4.726   2.203  14.946  0.7932  0.0287  2.1733
 6862TIP3   OH242000   3.152   2.697   3.649  0.3575 -0.3651  0.2750
 6862TIP3    H142001   3.135   2.631   3.716 -0.8211 -1.4501 -1.0544
 6862TIP3    H242002   3.195   2.649   3.578 -0.7442  0.2144 -0.8228
 6863TIP3   OH242003   2.711   4.666  11.253  0.0516 -0.5249 -0.4461
 6863TIP3    H142004   2.683   4.717  11.177  0.4775  1.3770  0.6139
 6863TIP3    H242005   2.806   4.662  11.246  0.0588 -0.7420 -0.2445
 6864TIP3   OH242006   5.328   1.908   5.994  0.0420 -0.1068  0.3264
 6864TIP3    H142007   5.305   1.843   5.928 -4.9018 -0.2710  1.8002
 6864TIP3    H242008   5.360   1.856   6.069  1.1241 -0.2982 -0.2463
 6865TIP3   OH242009   2.054   6.557  16.250 -0.0732  0.7568  0.4594
 6865TIP3    H142010   1.974   6.521  16.211 -0.5824  0.2950  1.8446
 6865TIP3    H242011   2.056   6.518  16.338  1.1437  1.5589  0.8038
 6866TIP3   OH242012   3.348   2.689   0.054 -0.1032 -0.3473  0.1400
 6866TIP3    H142013   3.393   2.726   0.129  2.0427 -0.2103 -1.1340
 6866TIP3    H242014   3.415   2.682  -0.014 -1.9217 -0.5068 -1.7649
 6867TIP3   OH242015   1.142   6.173  14.602  0.2820 -0.0944 -1.1699
 6867TIP3    H142016   1.203   6.230  14.556  0.8266 -0.3238 -0.7467
 6867TIP3    H242017   1.138   6.094  14.549  0.7384 -0.2717 -0.9473
 6868TIP3   OH242018   3.345   1.188   1.788  0.6868 -0.1125  0.8039
 6868TIP3    H142019   3.398   1.239   1.850  0.6336  0.2321  0.5709
 6868TIP3    H242020   3.278   1.147   1.842 -0.2220  1.2981  0.8105
 6869TIP3   OH242021   3.813   2.222  12.320 -0.1517  0.3038  0.2855
 6869TIP3    H142022   3.811   2.130  12.347  1.6476  0.5674  1.5393
 6869TIP3    H242023   3.825   2.271  12.402 -0.1259  1.5817 -0.4572
 6870TIP3   OH242024   3.499   5.572   0.703  0.0556 -0.3304 -0.0004
 6870TIP3    H142025   3.567   5.561   0.636  0.0845  0.0466 -0.0355
 6870TIP3    H242026   3.507   5.663   0.730  1.0794 -0.8482  1.6254
 6871TIP3   OH242027   3.964   5.868   5.955  0.0424 -0.1921  0.3658
 6871TIP3    H142028   4.053   5.857   5.921  0.5902  2.2864  0.7981
 6871TIP3    H242029   3.971   5.939   6.019 -1.9027 -1.2697  1.9311
 6872TIP3   OH242030   5.301   2.389   3.232  0.0059  0.5733  0.0906
 6872TIP3    H142031   5.322   2.370   3.323 -1.6793 -0.8559  0.2355
 6872TIP3    H242032   5.382   2.422   3.194  1.0838 -0.0559  1.7720
 6873TIP3   OH242033   2.660   1.262  14.387  0.0791 -0.4275  1.2215
 6873TIP3    H142034   2.606   1.303  14.456  0.1995 -1.2039  1.7927
 6873TIP3    H242035   2.689   1.335  14.333 -0.4742  0.1436  1.6753
 6874TIP3   OH242036   2.677   3.147  12.340 -0.5601  0.1508 -0.4462
 6874TIP3    H142037   2.624   3.175  12.265 -0.5597 -0.0761 -0.5331
 6874TIP3    H242038   2.661   3.213  12.407 -0.5062  0.3910 -0.6716
 6875TIP3   OH242039   1.871   4.500   2.560  0.1547  0.1910 -0.0695
 6875TIP3    H142040   1.816   4.434   2.602 -0.8716  1.0200 -0.0670
 6875TIP3    H242041   1.861   4.484   2.466 -0.1822  0.4162 -0.0714
 6876TIP3   OH242042   3.846   2.151   5.326  0.4651  0.1537  0.0042
 6876TIP3    H142043   3.772   2.101   5.293  0.4505 -0.0518  0.3508
 6876TIP3    H242044   3.899   2.088   5.374 -0.3023  0.7455  1.6949
 6877TIP3   OH242045   3.792   6.256   3.657 -0.2558  0.1182 -0.0147
 6877TIP3    H142046   3.796   6.254   3.753 -0.3322 -0.2674 -0.0184
 6877TIP3    H242047   3.872   6.213   3.628 -0.7920 -0.8371 -0.1141
 6878TIP3   OH242048   5.336   5.233  16.261 -0.2575 -0.0287 -0.2345
 6878TIP3    H142049   5.362   5.166  16.324 -2.3520 -0.7055 -0.0410
 6878TIP3    H242050   5.399   5.304  16.276  1.8283 -1.7480 -0.2251
 6879TIP3   OH242051   3.944   6.561   5.238 -0.2160 -0.1916 -0.0853
 6879TIP3    H142052   3.998   6.573   5.159 -0.3694 -3.8199 -0.9020
 6879TIP3    H242053   3.874   6.502   5.211  1.3964 -4.1582  3.2491
 6880TIP3   OH242054   5.685   5.311   1.015 -0.5751  0.2768 -0.2423
 6880TIP3    H142055   5.726   5.331   0.930 -0.3577  1.7972  0.1964
 6880TIP3    H242056   5.757   5.315   1.078 -0.6214 -1.4300 -0.0150
 6881TIP3   OH242057   5.353   3.395   5.926 -0.4329  0.0785  0.0112
 6881TIP3    H142058   5.383   3.425   5.841 -0.4639  0.2043  0.0441
 6881TIP3    H242059   5.399   3.451   5.989  0.2683 -0.5871  0.1147
 6882TIP3   OH242060   0.421   5.498   5.883  0.0933  0.3596 -0.3489
 6882TIP3    H142061   0.382   5.585   5.876  0.6213  0.9072  2.3112
 6882TIP3    H242062   0.443   5.473   5.793 -1.3272  2.3601 -1.3122
 6883TIP3   OH242063   0.132   2.775   1.387  0.6152  0.0759 -0.1853
 6883TIP3    H142064   0.225   2.751   1.392  0.6638  0.4922  1.6714
 6883TIP3    H242065   0.128   2.863   1.425 -0.4725  0.2836 -0.7531
 6884TIP3   OH242066   4.895   4.087   4.860  0.7751  0.2898 -0.1830
 6884TIP3    H142067   4.808   4.124   4.868  0.6398  0.2968 -1.3967
 6884TIP3    H242068   4.885   3.995   4.887  0.3181  0.2114 -0.6035
 6885TIP3   OH242069   5.624   4.808  14.743 -0.4067  0.4020  0.0883
 6885TIP3    H142070   5.693   4.820  14.678 -1.1194 -0.0289 -0.7909
 6885TIP3    H242071   5.668   4.813  14.827  1.5436 -4.1203 -0.3679
 6886TIP3   OH242072   3.541   1.241  12.163 -0.5064  0.0086  0.5516
 6886TIP3    H142073   3.460   1.276  12.127 -0.5389  0.3802  0.9754
 6886TIP3    H242074   3.545   1.151  12.131 -1.5005 -0.2839  1.1947
 6887TIP3   OH242075   4.780   1.347  13.382  0.0479 -0.5652 -0.6624
 6887TIP3    H142076   4.763   1.441  13.386 -1.4331 -0.8338  0.3107
 6887TIP3    H242077   4.808   1.331  13.292 -1.4735  0.5494 -1.3801
 6888TIP3   OH242078   2.625   2.228   0.360 -0.3361  0.1140 -0.5376
 6888TIP3    H142079   2.550   2.262   0.410 -1.8098 -2.3298 -0.9518
 6888TIP3    H242080   2.695   2.222   0.424 -0.3968  2.5313 -0.1505
 6889TIP3   OH242081   4.408   6.441  16.339 -0.1529 -0.6079  0.2785
 6889TIP3    H142082   4.424   6.368  16.399 -1.6210 -1.2585 -0.0777
 6889TIP3    H242083   4.317   6.467  16.356 -0.0897  0.2302 -0.5624
 6890TIP3   OH242084   5.067   3.218  16.893 -0.0458 -0.5185 -0.6575
 6890TIP3    H142085   5.024   3.300  16.918  1.5800  0.7007 -1.6310
 6890TIP3    H242086   5.144   3.246  16.843  0.0203 -2.6771 -1.8857
 6891TIP3   OH242087   5.322   0.608  15.607 -0.3255  0.0589 -0.1637
 6891TIP3    H142088   5.251   0.557  15.568  1.3251 -1.1843 -1.7630
 6891TIP3    H242089   5.362   0.548  15.671 -0.1350  0.3849  0.0241
 6892TIP3   OH242090   1.823   0.420  10.670  0.2030 -0.4003  0.3021
 6892TIP3    H142091   1.764   0.347  10.686  0.4689 -0.5409  0.6524
 6892TIP3    H242092   1.766   0.491  10.642 -0.0604 -0.7297 -0.0109
 6893TIP3   OH242093   2.804   5.501   0.449  0.1957 -0.0433  0.4802
 6893TIP3    H142094   2.896   5.475   0.448 -0.2750 -1.8673  1.1056
 6893TIP3    H242095   2.805   5.594   0.425  2.0126 -0.5463 -1.7848
 6894TIP3   OH242096   0.883   5.278  16.811 -0.2088  0.2154 -0.0146
 6894TIP3    H142097   0.846   5.366  16.809  1.0673  0.7975  0.6262
 6894TIP3    H242098   0.851   5.236  16.731  0.6634  1.9021 -1.3094
 6895TIP3   OH242099   1.369   3.137  13.908  0.3601 -0.2871 -0.3341
 6895TIP3    H142100   1.350   3.204  13.843 -0.2485 -1.4660 -1.4121
 6895TIP3    H242101   1.464   3.138  13.917  0.5258 -0.5632 -1.7751
 6896TIP3   OH242102   1.116   2.179  13.097 -0.0088 -0.3411 -0.0437
 6896TIP3    H142103   1.083   2.095  13.067 -0.0541 -0.1296 -0.6025
 6896TIP3    H242104   1.049   2.242  13.071  0.7322  0.0703 -1.0332
 6897TIP3   OH242105   2.046   4.980  15.937 -0.0251  0.5567  0.1725
 6897TIP3    H142106   1.956   4.949  15.949 -0.0443 -0.5342 -2.2066
 6897TIP3    H242107   2.052   5.057  15.993 -2.5600  0.8653  0.1480
 6898TIP3   OH242108   3.487   3.560   0.870  0.5891  0.1593 -0.1096
 6898TIP3    H142109   3.533   3.480   0.846  1.2930  0.8376 -1.1253
 6898TIP3    H242110   3.405   3.530   0.907  1.5578 -1.0807  1.1598
 6899TIP3   OH242111   1.665   6.150  17.008  0.3171 -0.0398 -0.9825
 6899TIP3    H142112   1.623   6.234  17.027  0.5182 -0.1170 -0.1779
 6899TIP3    H242113   1.755   6.160  17.039  0.4492 -0.4232 -1.2381
 6900TIP3   OH242114   2.282   6.033  11.130  0.4984 -0.5223 -0.1871
 6900TIP3    H142115   2.350   5.968  11.113  0.9979  0.3066 -1.5469
 6900TIP3    H242116   2.242   6.005  11.212  1.7465 -1.6407  0.0756
 6901TIP3   OH242117   4.954   4.116  10.645  0.4324 -0.4087 -0.0740
 6901TIP3    H142118   4.879   4.055  10.642  0.2494 -0.1407 -1.9145
 6901TIP3    H242119   4.929   4.187  10.586  1.1992  0.8331  1.0536
 6902TIP3   OH242120   1.029   5.405   1.756  0.3138  0.1531  0.0573
 6902TIP3    H142121   1.108   5.354   1.737 -1.4646 -1.7956 -2.9265
 6902TIP3    H242122   1.050   5.494   1.728  2.3317  0.4255  2.1167
 6903TIP3   OH242123   2.495   0.294  13.327  0.1672 -0.3881 -0.0529
 6903TIP3    H142124   2.509   0.205  13.294 -0.3521 -0.6157  0.3241
 6903TIP3    H242125   2.474   0.283  13.419  0.9218  0.1962  0.2055
 6904TIP3   OH242126   4.601   6.168   0.891  0.8937  0.4813  0.0953
 6904TIP3    H142127   4.652   6.249   0.878  1.1446  0.6901  2.1118
 6904TIP3    H242128   4.517   6.186   0.849  1.7702  0.8657 -1.5791
 6905TIP3   OH242129   4.049   3.149   6.117  0.0603  0.3693  0.0688
 6905TIP3    H142130   4.071   3.232   6.158 -1.4850  0.0346  1.7123
 6905TIP3    H242131   3.974   3.117   6.167 -0.1970 -1.3966 -1.3501
 6906TIP3   OH242132   4.967   3.037  14.911  0.2864 -0.5127 -0.2807
 6906TIP3    H142133   4.969   2.950  14.949  2.3372  0.4887  2.1901
 6906TIP3    H242134   4.889   3.037  14.855 -0.6982 -3.3508  0.9006
 6907TIP3   OH242135   0.256   1.284  13.415  0.4789  0.2653 -0.3292
 6907TIP3    H142136   0.182   1.260  13.359  0.4975  1.3666 -0.8348
 6907TIP3    H242137   0.229   1.256  13.503 -0.4508  0.4586 -0.5437
 6908TIP3   OH242138   5.029   1.264  11.440 -0.0426 -0.0280 -0.2778
 6908TIP3    H142139   4.937   1.240  11.455 -0.3819  0.0714 -1.9174
 6908TIP3    H242140   5.037   1.352  11.475 -0.9114  0.4164 -1.1594
 6909TIP3   OH242141   1.720   1.634  13.487 -0.3361 -0.3966  0.1982
 6909TIP3    H142142   1.790   1.645  13.423  0.9859  0.1132  1.6771
 6909TIP3    H242143   1.759   1.584  13.558 -1.9357 -1.4366  0.3873
 6910TIP3   OH242144   4.810   5.924   5.156 -0.5884 -0.3264  0.4960
 6910TIP3    H142145   4.804   5.982   5.232 -1.4111 -0.3200  0.4412
 6910TIP3    H242146   4.728   5.875   5.158 -0.5269 -0.4610 -0.2815
 6911TIP3   OH242147   6.123   3.912  16.439 -0.5712  0.3567  0.0107
 6911TIP3    H142148   6.173   3.854  16.382  0.5109  2.6102 -1.4922
 6911TIP3    H242149   6.149   3.887  16.527 -1.1166 -2.2131 -0.4709
 6912TIP3   OH242150   0.772   3.510  14.741 -0.1238  0.8012 -0.4231
 6912TIP3    H142151   0.712   3.458  14.794  0.7058 -0.6029 -0.8156
 6912TIP3    H242152   0.805   3.449  14.675  0.9927  1.7845 -0.8119
 6913TIP3   OH242153   2.554   6.504  14.862  0.7368 -0.3109  0.2798
 6913TIP3    H142154   2.530   6.525  14.952  3.2528  0.7359  0.8022
 6913TIP3    H242155   2.523   6.415  14.849  1.9415 -1.2067  2.8694
 6914TIP3   OH242156   3.128   3.508   3.613  0.5095  0.2470  0.2985
 6914TIP3    H142157   3.175   3.463   3.683  0.8399 -0.7303 -0.5249
 6914TIP3    H242158   3.036   3.500   3.638  0.5593 -0.9453  0.1525
 6915TIP3   OH242159   1.445   3.745   5.346  0.1241 -0.6575  0.2912
 6915TIP3    H142160   1.439   3.834   5.379  1.4474 -0.0289 -1.0334
 6915TIP3    H242161   1.356   3.721   5.323 -0.1898  0.4830  0.2763
 6916TIP3   OH242162   4.474   1.900   5.703 -0.2699 -0.4478  0.0140
 6916TIP3    H142163   4.512   1.937   5.782  0.2082 -1.3555  0.2218
 6916TIP3    H242164   4.537   1.921   5.634  0.3625 -1.4807  0.2611
 6917TIP3   OH242165   1.874   3.013  17.370 -0.0838  0.5421 -0.1244
 6917TIP3    H142166   1.962   3.040  17.346  0.6077 -1.0748  0.4532
 6917TIP3    H242167   1.875   3.009  17.466 -0.8966  0.8286 -0.0950
 6918TIP3   OH242168   0.356   0.866  17.134 -0.0003 -0.3892 -0.0031
 6918TIP3    H142169   0.357   0.777  17.097  0.2802 -0.1858 -0.4873
 6918TIP3    H242170   0.434   0.869  17.190 -1.3556 -1.2910  2.0535
 6919TIP3   OH242171   3.731   5.702  12.210 -0.0609 -0.6161  0.3493
 6919TIP3    H142172   3.641   5.733  12.206  1.1412  3.3146 -0.8450
 6919TIP3    H242173   3.752   5.699  12.303 -0.8367  0.4813  0.5676
 6920TIP3   OH242174   6.198   5.902   5.054  0.2500  0.2635  0.0064
 6920TIP3    H142175   6.245   5.886   5.136 -0.0986  1.3269  0.4379
 6920TIP3    H242176   6.113   5.936   5.082  0.5526  1.7491 -0.7964
 6921TIP3   OH242177   4.966   3.526   5.295 -0.1317 -0.5141 -0.0461
 6921TIP3    H142178   5.013   3.542   5.377 -0.5562  1.1442 -0.0856
 6921TIP3    H242179   4.926   3.440   5.307  0.1070 -0.4593  1.3376
 6922TIP3   OH242180   6.312   6.568   0.793 -0.2089  0.0410 -0.3577
 6922TIP3    H142181   6.366   6.544   0.718  3.3419  0.6762  1.7820
 6922TIP3    H242182   6.284   6.485   0.830  0.0492 -0.3364 -0.9966
 6923TIP3   OH242183   0.213   0.945   1.101 -0.0772 -0.3438  0.1597
 6923TIP3    H142184   0.172   0.978   1.181  1.7053 -1.7614  1.7681
 6923TIP3    H242185   0.218   0.850   1.114  0.5233 -0.5804 -1.5176
 6924TIP3   OH242186   5.168   5.023   3.983  0.4254 -0.1043  0.5402
 6924TIP3    H142187   5.189   4.931   3.996  1.4134  0.2247  1.4134
 6924TIP3    H242188   5.147   5.030   3.890 -1.1472 -1.4670  0.7424
 6925TIP3   OH242189   3.135   3.667   2.944  0.1601  0.7015 -0.0651
 6925TIP3    H142190   3.145   3.694   2.853  0.5144  0.3154 -0.1482
 6925TIP3    H242191   3.186   3.585   2.950 -0.0405  0.6091  0.4219
 6926TIP3   OH242192   6.125   4.006   4.396  0.4530  0.2429  0.2550
 6926TIP3    H142193   6.162   4.063   4.329  0.3801  0.9885  0.8281
 6926TIP3    H242194   6.123   3.919   4.356  0.7991  0.5952 -0.5488
 6927TIP3   OH242195   6.432   0.620  16.146 -0.7146 -0.5946  0.0242
 6927TIP3    H142196   6.511   0.643  16.194 -0.9365  0.8679 -0.2669
 6927TIP3    H242197   6.411   0.531  16.175 -1.0348  0.3477  2.8954
 6928TIP3   OH242198   5.319   4.681  12.379  0.2550 -0.0184 -0.0041
 6928TIP3    H142199   5.380   4.734  12.328 -0.0269  1.2987  0.9823
 6928TIP3    H242200   5.374   4.635  12.443  0.2276  1.4469  1.1237
 6929TIP3   OH242201   1.413   4.938   5.828  0.0313  0.0596  0.3777
 6929TIP3    H142202   1.381   4.898   5.909 -0.4097 -1.1727 -0.3688
 6929TIP3    H242203   1.464   5.013   5.857 -0.6342  0.0125  1.7658
 6930TIP3   OH242204   2.305   2.872   1.481 -0.0940  0.3566 -0.0362
 6930TIP3    H142205   2.277   2.803   1.541 -0.2245 -0.0458 -0.5510
 6930TIP3    H242206   2.272   2.953   1.520 -2.8328 -0.1476 -1.0423
 6931TIP3   OH242207   3.214   4.018  16.137 -0.3147  0.1114  0.0426
 6931TIP3    H142208   3.131   4.023  16.183 -0.2190 -2.0939  0.5656
 6931TIP3    H242209   3.279   4.048  16.201 -0.6810  2.2082 -0.4935
 6932TIP3   OH242210   3.132   3.660  14.534  0.1815  0.0084  0.2647
 6932TIP3    H142211   3.146   3.736  14.590  0.9024  1.0157 -1.2191
 6932TIP3    H242212   3.075   3.691  14.464  1.7788 -0.3251 -1.2562
 6933TIP3   OH242213   5.401   4.999   4.513  0.2580  0.1035  0.2906
 6933TIP3    H142214   5.400   4.926   4.576  1.2301  0.3481  0.6008
 6933TIP3    H242215   5.364   4.961   4.433  0.7593 -0.7418  0.4463
 6934TIP3   OH242216   4.330   0.553  13.318  0.2492  0.5937  0.6173
 6934TIP3    H142217   4.257   0.579  13.375 -0.9357  1.3919 -1.1564
 6934TIP3    H242218   4.291   0.492  13.256  1.2885  0.3937  0.1398
 6935TIP3   OH242219   5.186   1.748   0.779  0.1520  0.4386  0.6543
 6935TIP3    H142220   5.182   1.829   0.831  0.6979  0.5533  0.5220
 6935TIP3    H242221   5.224   1.774   0.696  0.8813 -0.0583  0.8221
 6936TIP3   OH242222   3.709   0.099  13.298  0.2415 -1.0879 -0.0353
 6936TIP3    H142223   3.710   0.035  13.227  0.5206  0.9033 -1.9213
 6936TIP3    H242224   3.794   0.142  13.292 -0.2212 -0.0448  0.7098
 6937TIP3   OH242225   2.086   0.827   2.866 -0.4014  0.4633  0.4431
 6937TIP3    H142226   2.091   0.738   2.829 -1.2976 -0.5465  2.5528
 6937TIP3    H242227   2.020   0.871   2.813 -3.0621 -1.5352  1.8525
 6938TIP3   OH242228   3.593   1.415  17.035  0.0994  0.0655  0.1820
 6938TIP3    H142229   3.568   1.362  16.959 -0.0551 -0.8243  0.8422
 6938TIP3    H242230   3.604   1.503  17.000 -1.0850 -0.1029 -0.6595
 6939TIP3   OH242231   6.657   1.473  12.346 -0.4638  0.3022  0.0844
 6939TIP3    H142232   6.645   1.489  12.439  2.2075 -1.4066  0.8268
 6939TIP3    H242233   6.750   1.489  12.330 -0.4468 -1.3130 -1.8706
 6940TIP3   OH242234   0.183   2.692   4.069 -0.4976  1.0060  0.4150
 6940TIP3    H142235   0.142   2.614   4.032  1.3849  0.1570 -0.0328
 6940TIP3    H242236   0.241   2.724   4.000  0.2490  1.6241  1.2928
 6941TIP3   OH242237   4.954   5.996  13.680 -0.0716 -0.2145 -0.3245
 6941TIP3    H142238   4.952   6.021  13.773 -0.8342  2.3443 -0.9541
 6941TIP3    H242239   4.863   6.007  13.651  0.5712  1.3010 -1.8992
 6942TIP3   OH242240   2.630   4.175   2.221  0.0787 -0.5369  0.2106
 6942TIP3    H142241   2.631   4.191   2.315  0.4233  0.9976 -0.0231
 6942TIP3    H242242   2.703   4.225   2.187  0.1818 -1.3658 -0.8497
 6943TIP3   OH242243   0.163   4.238  16.481  0.0091 -0.1792 -0.3115
 6943TIP3    H142244   0.192   4.173  16.417 -1.4794  0.9338 -2.2691
 6943TIP3    H242245   0.088   4.197  16.524  0.0648 -0.3720 -0.3970
 6944TIP3   OH242246   0.253   3.325  13.578 -0.9336  0.5017  0.0146
 6944TIP3    H142247   0.175   3.282  13.613 -0.7804  0.1818 -0.0304
 6944TIP3    H242248   0.223   3.412  13.552 -1.6122 -0.1031 -1.3413
 6945TIP3   OH242249   4.701   3.803   6.270 -0.3149 -0.3120  0.0014
 6945TIP3    H142250   4.791   3.771   6.271  0.3556  1.4152  2.2540
 6945TIP3    H242251   4.704   3.882   6.216  0.1052  1.1026  2.0125
 6946TIP3   OH242252   6.022   3.268   0.058  0.0783 -0.3566  0.0736
 6946TIP3    H142253   5.942   3.307   0.023  1.3269  0.0427 -2.6208
 6946TIP3    H242254   6.051   3.208  -0.011  1.5984 -1.2232  1.4017
 6947TIP3   OH242255   0.486   3.080   0.688 -0.0224 -0.2623  0.2225
 6947TIP3    H142256   0.512   3.005   0.636 -0.4316  0.5493 -1.2104
 6947TIP3    H242257   0.481   3.152   0.625 -1.7573  0.4847  1.1490
 6948TIP3   OH242258   2.625   2.133   1.849 -0.0875 -0.0045  0.4886
 6948TIP3    H142259   2.712   2.130   1.890 -0.0617 -0.1990  0.4206
 6948TIP3    H242260   2.586   2.048   1.869 -0.1623 -0.0150  0.3000
 6949TIP3   OH242261   1.210   0.998   1.209  0.3584 -0.3276  0.5477
 6949TIP3    H142262   1.292   0.961   1.178  0.3831  0.0232  0.1855
 6949TIP3    H242263   1.179   0.937   1.275  1.1036 -0.2571  0.9659
 6950TIP3   OH242264   1.742   2.167  15.866  0.1606  0.4959  0.0466
 6950TIP3    H142265   1.716   2.078  15.889 -1.2658  0.9871  0.4414
 6950TIP3    H242266   1.775   2.161  15.776 -0.4396 -0.3344 -0.1251
 6951TIP3   OH242267   5.963   2.263  16.466 -0.0065  0.6624  0.0727
 6951TIP3    H142268   5.871   2.240  16.454  0.4764 -0.9506 -0.7592
 6951TIP3    H242269   6.006   2.181  16.490  1.1999  1.4144  0.5961
 6952TIP3   OH242270   5.653   6.120  11.508 -0.6891  0.3398 -0.3590
 6952TIP3    H142271   5.714   6.176  11.460 -2.2991  2.6420  0.1176
 6952TIP3    H242272   5.651   6.039  11.458 -0.8148  1.9182 -3.1098
 6953TIP3   OH242273   2.452   3.821  14.164 -0.0622 -0.3935 -0.1981
 6953TIP3    H142274   2.359   3.813  14.143  0.2330  1.5249 -2.6413
 6953TIP3    H242275   2.473   3.912  14.147  2.3655 -0.8558 -0.0397
 6954TIP3   OH242276   2.594   5.336   3.673  0.2266 -0.1224 -0.9272
 6954TIP3    H142277   2.576   5.337   3.767  0.2486 -0.2120 -0.9221
 6954TIP3    H242278   2.524   5.283   3.636 -0.5288  0.9728 -1.1165
 6955TIP3   OH242279   2.119   1.727  14.415  0.3245  0.1565 -0.1081
 6955TIP3    H142280   2.137   1.690  14.501 -3.0092 -2.2201 -0.2253
 6955TIP3    H242281   2.177   1.679  14.356  1.0913  0.2359  0.5738
 6956TIP3   OH242282   2.830   1.660   0.127 -0.3822 -0.6769  0.3712
 6956TIP3    H142283   2.778   1.630   0.052  0.1204 -1.4755  0.3440
 6956TIP3    H242284   2.795   1.748   0.145 -0.5088 -0.4674 -0.7946
 6957TIP3   OH242285   0.778   4.411  15.481  0.0759 -0.0008 -0.5864
 6957TIP3    H142286   0.710   4.353  15.447  0.4509 -0.4828 -0.5242
 6957TIP3    H242287   0.833   4.355  15.535  0.3576  0.4450 -0.4008
 6958TIP3   OH242288   4.046   4.496  10.971  0.4906  0.5023 -0.6100
 6958TIP3    H142289   4.010   4.562  10.912  0.5472  0.5611 -0.5798
 6958TIP3    H242290   4.102   4.442  10.915  0.3067  0.3725 -0.6684
 6959TIP3   OH242291   0.934   0.416  13.961 -0.8198  0.6897  0.4356
 6959TIP3    H142292   0.859   0.385  14.013 -0.5949  1.3333  1.1556
 6959TIP3    H242293   0.916   0.384  13.873 -1.0379 -0.7278  0.9691
 6960TIP3   OH242294   5.929   0.393  13.152 -0.2045  0.4301  0.4096
 6960TIP3    H142295   6.003   0.424  13.101 -1.3726  0.1521 -1.5611
 6960TIP3    H242296   5.886   0.472  13.184 -0.5594  0.6988 -0.7020
 6961TIP3   OH242297   0.105   4.676  12.481  0.2228 -0.0333 -0.4132
 6961TIP3    H142298   0.009   4.670  12.487  0.2589 -1.3882 -0.8725
 6961TIP3    H242299   0.127   4.624  12.403  1.4230 -0.6316  0.3024
 6962TIP3   OH242300   2.783   4.568  10.452 -0.1510 -0.0266  0.1725
 6962TIP3    H142301   2.764   4.560  10.545  0.0871 -0.0903  0.2176
 6962TIP3    H242302   2.869   4.526  10.442 -0.3641 -0.3935 -0.1480
 6963TIP3   OH242303   2.517   1.803   2.248  0.8493 -0.2982 -0.1576
 6963TIP3    H142304   2.474   1.775   2.167 -1.1083 -0.0405  0.7268
 6963TIP3    H242305   2.516   1.725   2.303 -1.0598  0.3924  0.8714
 6964TIP3   OH242306   6.003   5.495   4.322 -0.0313 -0.0065 -0.4120
 6964TIP3    H142307   5.946   5.558   4.277 -1.1003 -0.0419  0.8148
 6964TIP3    H242308   6.008   5.420   4.263 -2.0295 -0.3685 -0.1811
 6965TIP3   OH242309   2.760   4.948   5.370 -0.4441  0.0987  0.6726
 6965TIP3    H142310   2.689   4.927   5.430 -0.8564  1.8404  0.8646
 6965TIP3    H242311   2.728   4.920   5.284 -0.7106 -0.5331  0.9752
 6966TIP3   OH242312   3.934   2.938   5.769 -0.2517 -0.1262  0.0319
 6966TIP3    H142313   3.876   2.889   5.711 -0.6752  1.2490 -0.7657
 6966TIP3    H242314   4.022   2.912   5.742 -0.4242  0.9040 -1.6655
 6967TIP3   OH242315   2.888   4.103  10.954  0.5857  0.1232  0.5690
 6967TIP3    H142316   2.940   4.026  10.931  0.2560  0.1695 -0.3830
 6967TIP3    H242317   2.816   4.068  11.007  0.7142 -0.1603  0.5565
 6968TIP3   OH242318   0.996   2.057  14.423 -0.5520 -0.3455 -0.3116
 6968TIP3    H142319   1.089   2.049  14.446 -0.5854  0.7067  0.2125
 6968TIP3    H242320   0.963   2.127  14.478 -1.0083  1.1669 -2.3922
 6969TIP3   OH242321   2.426   6.022   0.305 -0.2183 -0.0045 -0.0275
 6969TIP3    H142322   2.344   5.994   0.347 -0.7395 -2.4643 -2.3948
 6969TIP3    H242323   2.402   6.103   0.258 -0.2717  1.3261  2.1734
 6970TIP3   OH242324   5.570   5.669   5.304  0.2699  0.7768  0.5355
 6970TIP3    H142325   5.620   5.631   5.231 -2.0095  1.4954 -1.5174
 6970TIP3    H242326   5.515   5.597   5.335 -1.4705  1.3591 -1.0145
 6971TIP3   OH242327   4.404   1.658   5.598 -0.6387 -0.5466 -0.4062
 6971TIP3    H142328   4.375   1.747   5.619  0.5299 -0.1380 -0.4551
 6971TIP3    H242329   4.331   1.602   5.625 -0.3920  0.1998  2.0721
 6972TIP3   OH242330   2.231   1.024   2.989 -0.4271  0.4131 -0.6392
 6972TIP3    H142331   2.314   0.995   3.029 -1.0667 -0.4084  0.1445
 6972TIP3    H242332   2.214   0.960   2.920  0.4101  1.5362 -1.9489
 6973TIP3   OH242333   4.942   6.761  11.415  0.3088 -0.6986  0.3627
 6973TIP3    H142334   4.881   6.811  11.469  1.0656  0.4878  0.1664
 6973TIP3    H242335   4.892   6.738  11.337 -0.2237 -0.7496  0.7158
 6974TIP3   OH242336   3.601   0.607   4.430  0.1037  0.2616 -0.9150
 6974TIP3    H142337   3.581   0.696   4.400 -0.4535  1.5939  2.8382
 6974TIP3    H242338   3.686   0.587   4.391  0.4570  2.6328 -1.5383
 6975TIP3   OH242339   0.233   1.968   3.282  0.4247 -0.0378  0.1409
 6975TIP3    H142340   0.293   1.894   3.289  0.7201  0.2251  0.4595
 6975TIP3    H242341   0.207   1.970   3.190  1.5780  0.3626 -0.1926
 6976TIP3   OH242342   2.482   5.972   0.592  0.0353  0.3618  0.6638
 6976TIP3    H142343   2.527   6.009   0.517 -2.5611  0.9500 -0.7370
 6976TIP3    H242344   2.408   5.923   0.554 -0.3888 -0.7715  2.7727
 6977TIP3   OH242345   5.942   4.280   3.844 -0.0977 -0.1455 -0.2971
 6977TIP3    H142346   6.005   4.209   3.859 -0.8063 -0.6631  0.3214
 6977TIP3    H242347   5.881   4.244   3.778 -1.8684 -1.0919  1.7166
 6978TIP3   OH242348   5.307   6.133  10.567 -0.7014 -0.1004  0.3747
 6978TIP3    H142349   5.237   6.091  10.517 -0.7143 -1.0632  1.1880
 6978TIP3    H242350   5.353   6.187  10.502  0.2500 -2.4936 -1.0884
 6979TIP3   OH242351   4.230   6.747  17.344 -0.1500 -0.5473 -0.0124
 6979TIP3    H142352   4.242   6.706  17.430 -0.1190 -0.1392  0.1833
 6979TIP3    H242353   4.186   6.830  17.364 -0.3215 -0.5426 -0.4118
 6980TIP3   OH242354   5.702   0.656   3.779 -0.5901  0.2240  0.2301
 6980TIP3    H142355   5.683   0.746   3.753 -0.7505 -0.1064 -0.8994
 6980TIP3    H242356   5.656   0.644   3.862 -0.1791  1.3158  0.6192
 6981TIP3   OH242357   2.456   1.833   1.018 -0.5169 -0.9525 -0.1898
 6981TIP3    H142358   2.437   1.921   1.051 -1.5172 -1.0336 -0.5310
 6981TIP3    H242359   2.551   1.833   1.005 -0.2668 -0.4803  1.4088
 6982TIP3   OH242360   2.158   1.877   0.105  0.1048  0.2814  0.3676
 6982TIP3    H142361   2.096   1.945   0.130  0.3470  0.5733  0.1914
 6982TIP3    H242362   2.113   1.825   0.039 -0.8997 -1.0744  2.0316
 6983TIP3   OH242363   1.231   4.503   1.420 -0.3551  0.6258  0.3205
 6983TIP3    H142364   1.320   4.469   1.430 -0.2215  0.4586 -1.1750
 6983TIP3    H242365   1.176   4.442   1.469  0.1899 -0.2110 -0.0778
 6984TIP3   OH242366   1.091   4.312   0.989 -0.4258 -0.2069 -0.0809
 6984TIP3    H142367   1.112   4.395   0.946  0.3704 -0.7399 -0.7533
 6984TIP3    H242368   1.173   4.262   0.987 -0.9345 -1.0745  0.1601
 6985TIP3   OH242369   4.987   1.053   4.250  0.1936 -0.4791 -0.1418
 6985TIP3    H142370   5.026   1.140   4.250  0.2247 -0.4650 -1.5330
 6985TIP3    H242371   4.998   1.021   4.340 -0.1407  1.0791  0.4771
 6986TIP3   OH242372   2.938   4.541   4.437 -0.4295 -0.9652 -0.4059
 6986TIP3    H142373   2.918   4.598   4.511 -0.8611 -0.2817 -1.0380
 6986TIP3    H242374   3.033   4.542   4.430 -0.4515 -0.0564 -0.6174
 6987TIP3   OH242375   4.239   3.881   5.683  0.7001 -0.0243  0.2867
 6987TIP3    H142376   4.261   3.841   5.767 -0.3589  0.8767  1.0285
 6987TIP3    H242377   4.293   3.960   5.680 -0.0577  0.5187  0.6421
 6988TIP3   OH242378   1.875   1.487  16.209  0.4045 -0.3555  0.5435
 6988TIP3    H142379   1.786   1.458  16.192  1.3311 -3.3962  0.3977
 6988TIP3    H242380   1.931   1.421  16.168  2.7822  1.5680  0.3888
 6989TIP3   OH242381   1.025   1.567   4.053  0.0355  0.0491  1.2319
 6989TIP3    H142382   1.000   1.480   4.020 -1.1394  0.3980  1.1617
 6989TIP3    H242383   1.058   1.550   4.141  2.2050 -0.7603  0.3368
 6990TIP3   OH242384   1.274   1.340  15.830  0.4142 -0.4542  0.2388
 6990TIP3    H142385   1.230   1.405  15.776  2.3802 -0.1575 -1.1269
 6990TIP3    H242386   1.322   1.392  15.896 -0.3038 -0.6992  0.9642
 6991TIP3   OH242387   0.444   4.128   0.778 -0.1874  0.3103 -0.1330
 6991TIP3    H142388   0.420   4.126   0.870  2.4171  0.8740  0.6307
 6991TIP3    H242389   0.408   4.210   0.745  1.0738  1.3892  1.0831
 6992TIP3   OH242390   4.229   5.870   4.193  0.3941  0.7424  0.0013
 6992TIP3    H142391   4.143   5.835   4.170 -1.2325  3.3546  1.6312
 6992TIP3    H242392   4.240   5.946   4.137  1.5615  0.5877 -0.0095
 6993TIP3   OH242393   1.271   5.492  14.055  0.7931 -0.1237  0.0254
 6993TIP3    H142394   1.260   5.461  14.145 -0.6314  1.1710  0.3429
 6993TIP3    H242395   1.361   5.524  14.052  0.5681  0.7005  1.2962
 6994TIP3   OH242396   0.583   0.332   4.791  0.8639  0.2019 -0.3327
 6994TIP3    H142397   0.487   0.324   4.789  0.8651  0.1988 -2.2605
 6994TIP3    H242398   0.600   0.396   4.859 -0.5355  0.4426 -0.1699
 6995TIP3   OH242399   4.846   1.719  11.879 -0.7656 -0.2849 -0.0660
 6995TIP3    H142400   4.932   1.714  11.836  0.2757 -0.2264  1.8954
 6995TIP3    H242401   4.827   1.813  11.883 -1.0260 -0.3084 -0.6768
 6996TIP3   OH242402   3.375   4.949   0.068 -0.1420 -0.3383  0.1983
 6996TIP3    H142403   3.370   4.855   0.052 -2.1154 -0.4015  0.8943
 6996TIP3    H242404   3.427   4.957   0.148 -2.1198 -1.0950  1.6442
 6997TIP3   OH242405   5.636   2.766  14.710 -0.5333  0.0653 -0.6563
 6997TIP3    H142406   5.731   2.780  14.715 -0.8586  2.0674  1.4610
 6997TIP3    H242407   5.609   2.816  14.633 -0.0917  1.1676 -0.1160
 6998TIP3   OH242408   5.171   3.856   2.271  0.1386 -0.8796 -0.1775
 6998TIP3    H142409   5.251   3.816   2.304 -0.2828 -0.9537  0.8126
 6998TIP3    H242410   5.185   3.950   2.281  0.2024 -0.8823 -0.2439
 6999TIP3   OH242411   4.027   4.468   0.693 -0.1003  0.3251 -0.0319
 6999TIP3    H142412   3.976   4.493   0.770 -0.1819  1.1004 -0.3316
 6999TIP3    H242413   4.084   4.542   0.677 -0.7022  0.5497 -1.2474
 7000TIP3   OH242414   6.146   0.884  10.908  0.0609  0.7648 -0.2575
 7000TIP3    H142415   6.198   0.815  10.866 -0.0225  0.0929  0.6968
 7000TIP3    H242416   6.064   0.885  10.860  0.4416  0.9049 -0.9209
 7001TIP3   OH242417   1.523   5.320  11.630  0.2293 -0.2242  0.1286
 7001TIP3    H142418   1.606   5.363  11.649 -0.6741  0.8024  2.1532
 7001TIP3    H242419   1.545   5.227  11.623  1.5017 -0.0267  1.0446
 7002TIP3   OH242420   3.989   5.457  15.649 -0.6494  0.2023  0.7036
 7002TIP3    H142421   4.062   5.471  15.589  0.9109  0.7718  2.6001
 7002TIP3    H242422   3.965   5.365  15.637 -0.3180  0.2835 -0.6872
 7003TIP3   OH242423   2.368   4.985   2.105  0.6248  0.1431  0.0278
 7003TIP3    H142424   2.359   4.930   2.027 -0.0541  0.2777  0.0036
 7003TIP3    H242425   2.286   4.972   2.153  0.6786  0.7217  0.2867
 7004TIP3   OH242426   1.981   4.226   3.197  0.1379 -0.2914  0.1565
 7004TIP3    H142427   1.959   4.250   3.287 -0.6757  0.8261 -0.3177
 7004TIP3    H242428   1.928   4.285   3.143  0.9570 -0.6319 -1.0542
 7005TIP3   OH242429   4.074   6.534  11.635 -0.2811 -0.0293 -0.1793
 7005TIP3    H142430   4.131   6.516  11.710  0.6643  1.3831 -0.5216
 7005TIP3    H242431   3.985   6.530  11.671  0.1467  0.3270  0.9499
 7006TIP3   OH242432   0.581   5.237  12.030 -0.7198  0.5623 -0.4550
 7006TIP3    H142433   0.606   5.185  11.953  0.2527 -1.6642  1.2534
 7006TIP3    H242434   0.523   5.304  11.995 -0.4205 -0.4203 -3.1159
 7007TIP3   OH242435   1.780   6.462  16.144 -0.7187  0.6385 -0.7135
 7007TIP3    H142436   1.791   6.367  16.138  1.1195  0.8762 -2.3389
 7007TIP3    H242437   1.709   6.482  16.083 -0.1927  0.4159 -1.4140
 7008TIP3   OH242438   4.289   2.131   3.727 -0.3075  0.3891  0.1008
 7008TIP3    H142439   4.240   2.065   3.776 -0.7236 -0.0543 -0.8831
 7008TIP3    H242440   4.245   2.213   3.747 -0.9797  0.0997 -0.1643
 7009TIP3   OH242441   5.654   4.050  16.320 -0.4512 -0.1110  0.4108
 7009TIP3    H142442   5.615   4.103  16.390 -1.2538 -0.6287  0.3825
 7009TIP3    H242443   5.586   4.045  16.253  0.3457  0.4498 -0.4539
 7010TIP3   OH242444   1.911   4.335   2.206 -0.2038 -0.4660 -0.4457
 7010TIP3    H142445   1.992   4.382   2.225  0.0686 -0.9241 -0.4488
 7010TIP3    H242446   1.875   4.380   2.130 -0.5143  0.4150  0.2099
 7011TIP3   OH242447   6.483   1.624   4.901  0.1620  0.9478  0.1095
 7011TIP3    H142448   6.423   1.609   4.974 -0.2724 -1.1979 -0.5946
 7011TIP3    H242449   6.536   1.544   4.898 -1.5787 -0.2760 -3.4657
 7012TIP3   OH242450   6.536   3.339   4.523  0.1673  0.2715  0.4359
 7012TIP3    H142451   6.615   3.300   4.562 -0.4592 -0.6949  0.7518
 7012TIP3    H242452   6.503   3.398   4.591 -0.5210 -0.8765  1.1318
 7013TIP3   OH242453   2.993   5.360  17.215 -0.0973  0.0901  0.4477
 7013TIP3    H142454   3.078   5.380  17.254 -1.1364  0.0791  2.8771
 7013TIP3    H242455   2.971   5.438  17.165  2.2528 -0.7263 -2.1258
 7014TIP3   OH242456   3.857   2.666  15.355  0.0530 -0.1044 -0.1034
 7014TIP3    H142457   3.876   2.740  15.412  2.7241 -0.6409 -0.1945
 7014TIP3    H242458   3.784   2.621  15.399 -1.5461  2.4245  0.0117
 7015TIP3   OH242459   4.294   6.313  16.899 -0.2872 -0.7348 -0.6830
 7015TIP3    H142460   4.241   6.286  16.974 -0.7025  1.2247 -0.2211
 7015TIP3    H242461   4.272   6.250  16.830 -1.7956 -1.0909  0.0743
 7016TIP3   OH242462   3.843   2.993  12.866 -0.0187 -0.2416 -0.4239
 7016TIP3    H142463   3.895   2.966  12.791 -0.7985 -1.1436 -0.6567
 7016TIP3    H242464   3.754   3.001  12.831 -0.1415  0.7486  0.0836
 7017TIP3   OH242465   5.565   0.639  17.133 -0.3841  0.1558  0.7508
 7017TIP3    H142466   5.660   0.650  17.135 -0.2719 -0.5350 -0.3349
 7017TIP3    H242467   5.534   0.708  17.074 -0.4653 -0.2146  0.3600
 7018TIP3   OH242468   2.852   1.885   5.790 -0.6691  0.7751 -0.7820
 7018TIP3    H142469   2.826   1.972   5.818 -0.7175  0.8806 -1.1513
 7018TIP3    H242470   2.901   1.850   5.865 -0.5710  1.1503 -0.6661
 7019TIP3   OH242471   4.509   2.067  16.436  0.3202  0.2058  0.7745
 7019TIP3    H142472   4.564   2.127  16.386 -0.5054  1.2901  1.1395
 7019TIP3    H242473   4.482   2.116  16.513 -4.2779  1.2606 -1.1321
 7020TIP3   OH242474   3.181   1.537   1.015  0.6441 -0.2124 -0.2387
 7020TIP3    H142475   3.090   1.542   1.042  1.0507  1.1411  1.0288
 7020TIP3    H242476   3.206   1.446   1.031  0.2541  0.0266  2.0385
 7021TIP3   OH242477   2.286   2.560  11.832 -0.4020 -0.1162 -0.8714
 7021TIP3    H142478   2.214   2.586  11.888 -0.6003 -2.4641  0.0531
 7021TIP3    H242479   2.349   2.632  11.839 -1.5256  0.7958  0.3153
 7022TIP3   OH242480   1.132   5.789  12.354  0.1389  0.8203 -0.1464
 7022TIP3    H142481   1.081   5.858  12.310 -1.3604  0.7496  1.3483
 7022TIP3    H242482   1.110   5.800  12.447  0.9728 -0.8001  0.2685
 7023TIP3   OH242483   6.182   1.557   2.943  0.5319 -0.0854  0.3119
 7023TIP3    H142484   6.213   1.489   3.002 -0.1794 -0.2219  0.5374
 7023TIP3    H242485   6.150   1.626   3.001  0.5467  0.1135  0.0847
 7024TIP3   OH242486   1.980   4.529   1.099 -0.0671  0.5032  0.5451
 7024TIP3    H142487   1.950   4.446   1.063  0.5938  0.3905  0.2363
 7024TIP3    H242488   1.900   4.580   1.113 -0.4739 -0.1914  0.7648
 7025TIP3   OH242489   4.539   5.286   1.761  0.1846 -0.5057 -0.2728
 7025TIP3    H142490   4.609   5.265   1.700  0.0502  0.1020 -0.6416
 7025TIP3    H242491   4.458   5.269   1.713  0.0788 -0.2381 -0.1963
 7026TIP3   OH242492   6.290   2.712  15.256 -0.3260 -0.1389  0.3996
 7026TIP3    H142493   6.318   2.651  15.324 -0.8364  0.6957  1.3760
 7026TIP3    H242494   6.239   2.778  15.302 -0.2356  0.7422 -0.7215
 7027TIP3   OH242495   3.266   6.213   2.835  0.3999  0.1433 -0.3460
 7027TIP3    H142496   3.358   6.220   2.808  0.2297  0.1301 -0.9351
 7027TIP3    H242497   3.218   6.269   2.774 -0.1052 -0.6203 -0.6676
 7028TIP3   OH242498   4.840   0.090  15.183  0.8083 -0.4490  0.7884
 7028TIP3    H142499   4.871   0.005  15.215 -0.6631 -0.5687  1.9978
 7028TIP3    H242500   4.906   0.153  15.213  2.1104 -1.1563 -0.4334
 7029TIP3   OH242501   5.021   0.477   4.388  0.1255  0.3114 -0.0301
 7029TIP3    H142502   5.013   0.569   4.414  0.3502  0.3101  0.0459
 7029TIP3    H242503   4.942   0.460   4.337 -1.1792 -0.1411  2.0031
 7030TIP3   OH242504   0.387   0.393   3.899 -0.6612 -0.1244 -0.0268
 7030TIP3    H142505   0.459   0.441   3.939 -0.6273 -2.4064  3.0235
 7030TIP3    H242506   0.308   0.438   3.930 -0.5981 -0.6986  0.9926
 7031TIP3   OH242507   1.744   2.251   2.759 -0.4531 -0.3479  0.9066
 7031TIP3    H142508   1.789   2.280   2.838 -1.0192 -0.6038  1.3307
 7031TIP3    H242509   1.651   2.263   2.778 -0.5597  0.5969 -0.1299
 7032TIP3   OH242510   6.521   6.695  14.660 -0.4849 -0.0330  0.3150
 7032TIP3    H142511   6.442   6.741  14.688 -0.3483 -0.0511  0.7423
 7032TIP3    H242512   6.580   6.702  14.735 -0.7180 -1.5209  0.6740
 7033TIP3   OH242513   0.172   2.054   4.291 -0.2050 -0.1792  0.0321
 7033TIP3    H142514   0.148   2.138   4.331 -0.9980  0.1030 -0.9933
 7033TIP3    H242515   0.119   2.049   4.211  0.6677 -1.1382 -0.5157
 7034TIP3   OH242516   6.755   5.343   1.675 -0.0657 -0.2181 -0.1493
 7034TIP3    H142517   6.837   5.349   1.627 -0.9019 -0.2436 -1.6330
 7034TIP3    H242518   6.762   5.409   1.744  1.2767 -0.3732 -0.1134
 7035TIP3   OH242519   1.006   1.313   6.565 -0.3470  0.0281  0.4778
 7035TIP3    H142520   1.094   1.348   6.576 -0.3173 -0.1849  0.9483
 7035TIP3    H242521   0.992   1.257   6.642 -0.0712 -1.6582 -0.6352
 7036TIP3   OH242522   3.170   4.842  16.915 -0.2773  0.1910  0.0872
 7036TIP3    H142523   3.080   4.848  16.883 -0.1648  1.5787 -0.0361
 7036TIP3    H242524   3.182   4.920  16.969  0.6382 -0.3333  0.6731
 7037TIP3   OH242525   6.665   3.437   5.139  0.1498  0.4497  0.0225
 7037TIP3    H142526   6.726   3.453   5.067 -1.1722  2.1890 -0.7734
 7037TIP3    H242527   6.620   3.356   5.114 -0.3035  1.0345 -1.1315
 7038TIP3   OH242528   4.469   3.762   5.342  0.0868  0.2194  0.2548
 7038TIP3    H142529   4.474   3.740   5.249 -0.9451  1.2968 -0.0782
 7038TIP3    H242530   4.423   3.688   5.381  1.6141 -0.8274  0.1483
 7039TIP3   OH242531   1.114   3.168   1.350  0.3507 -0.1387 -0.1581
 7039TIP3    H142532   1.133   3.221   1.428  1.5945  0.5813 -0.9132
 7039TIP3    H242533   1.122   3.229   1.277 -2.5824 -0.3670 -0.7813
 7040TIP3   OH242534   0.859   0.655   1.456 -0.6054 -0.2313 -0.3296
 7040TIP3    H142535   0.825   0.583   1.402 -2.9500  0.5963 -0.0704
 7040TIP3    H242536   0.846   0.625   1.546  1.1219 -0.6174 -0.1554
 7041TIP3   OH242537   0.147   5.518   3.595  0.0574  0.4151  0.3846
 7041TIP3    H142538   0.152   5.430   3.633 -0.9562  0.0307 -0.3348
 7041TIP3    H242539   0.231   5.559   3.618  0.0084 -0.2697  1.8417
 7042TIP3   OH242540   4.174   4.398  15.176  0.5446 -0.0213  0.7039
 7042TIP3    H142541   4.245   4.462  15.174 -0.2281  0.8607  0.9114
 7042TIP3    H242542   4.136   4.407  15.263  1.4942 -1.9907  1.4036
 7043TIP3   OH242543   3.537   1.380   0.629  0.0032  0.5304  0.1117
 7043TIP3    H142544   3.621   1.391   0.585 -0.4505  0.0067 -0.9126
 7043TIP3    H242545   3.506   1.469   0.644  0.6737  0.7253  0.3846
 7044TIP3   OH242546   1.133   5.100  13.226  0.0900  0.1481  0.0464
 7044TIP3    H142547   1.223   5.093  13.194  0.1973  1.2694  0.0693
 7044TIP3    H242548   1.130   5.183  13.274 -1.1493  0.5141 -0.6070
 7045TIP3   OH242549   2.903   0.965  17.214  0.5750 -0.6754 -0.3809
 7045TIP3    H142550   2.827   0.979  17.271  0.9698 -0.2420  0.0395
 7045TIP3    H242551   2.905   0.870  17.200  1.3812 -0.9935  1.5963
 7046TIP3   OH242552   3.983   2.069   2.258  0.1297  0.5637 -0.5505
 7046TIP3    H142553   3.942   2.025   2.332 -1.0951 -1.3160 -2.2303
 7046TIP3    H242554   3.920   2.058   2.186  1.3466  2.1356 -1.9379
 7047TIP3   OH242555   1.698   5.451  13.177  0.1037  0.3813 -0.7070
 7047TIP3    H142556   1.702   5.408  13.092  1.8157 -3.2277  0.9554
 7047TIP3    H242557   1.606   5.447  13.202 -0.0927 -0.4983 -1.5244
 7048TIP3   OH242558   5.657   3.016  11.569  0.0777  0.2551 -0.8228
 7048TIP3    H142559   5.648   2.975  11.483 -1.2020  2.2589 -1.7157
 7048TIP3    H242560   5.713   3.092  11.555  1.3653 -0.3700  0.5401
 7049TIP3   OH242561   6.615   1.802  15.314 -0.0032  0.1442 -0.2880
 7049TIP3    H142562   6.584   1.890  15.338  2.3673  1.4336 -1.6640
 7049TIP3    H242563   6.673   1.777  15.386  0.8011  0.5200 -0.8079
 7050TIP3   OH242564   5.389   1.166   3.507  0.1648  0.2458  0.0126
 7050TIP3    H142565   5.336   1.132   3.579  2.1248  0.5062  1.6824
 7050TIP3    H242566   5.402   1.259   3.530 -0.4504  0.7379 -1.5189
 7051TIP3   OH242567   4.874   3.853  16.907  0.5120  0.0714  0.0804
 7051TIP3    H142568   4.889   3.823  16.818  2.8084  1.8795 -0.2179
 7051TIP3    H242569   4.898   3.946  16.906 -1.9893  0.8497  1.9864
 7052TIP3   OH242570   1.781   5.824  16.518 -0.5310 -0.1268  0.0368
 7052TIP3    H142571   1.866   5.806  16.557  0.1275  0.9161 -0.8431
 7052TIP3    H242572   1.727   5.854  16.591 -0.0630 -0.5242  0.5549
 7053TIP3   OH242573   6.324   1.867   2.311 -0.2827  0.4272  0.3308
 7053TIP3    H142574   6.376   1.908   2.242 -0.1617 -0.6483 -0.2460
 7053TIP3    H242575   6.277   1.939   2.352  1.6986  1.4645  0.9175
 7054TIP3   OH242576   0.030   5.080  13.700 -0.7657 -0.0462 -0.1409
 7054TIP3    H142577  -0.059   5.088  13.735 -0.2629 -0.6493  1.3288
 7054TIP3    H242578   0.082   5.140  13.754 -0.0450 -0.7074 -0.0801
 7055TIP3   OH242579   3.687   6.362   0.113 -0.1971 -0.1253 -0.4183
 7055TIP3    H142580   3.626   6.373   0.185 -2.5758 -3.3463 -1.7096
 7055TIP3    H242581   3.764   6.320   0.152 -0.9499 -0.7266  0.4287
 7056TIP3   OH242582   5.391   0.138   0.338  0.3476 -0.2561  0.2880
 7056TIP3    H142583   5.374   0.171   0.250  0.8645 -1.4383 -0.2779
 7056TIP3    H242584   5.353   0.050   0.338 -0.5672  0.1129  1.5892
 7057TIP3   OH242585   4.806   5.573   4.507  0.2917  0.3347 -0.4798
 7057TIP3    H142586   4.779   5.618   4.427 -2.1120  0.8906  0.5335
 7057TIP3    H242587   4.749   5.496   4.511  0.7317  0.0407  0.4495
 7058TIP3   OH242588   0.509   4.685  14.641  0.2415  0.3920  0.2079
 7058TIP3    H142589   0.558   4.767  14.636 -1.1768  1.2562 -0.1151
 7058TIP3    H242590   0.522   4.643  14.556  1.9468 -0.3507  0.7804
 7059TIP3   OH242591   1.997   2.008   5.520  0.3213  0.1916 -0.1080
 7059TIP3    H142592   2.020   2.084   5.466  0.2078 -0.5137 -1.1763
 7059TIP3    H242593   1.982   2.044   5.607  0.5733  1.3523 -0.5308
 7060TIP3   OH242594   0.983   1.618   4.569  0.4459 -0.2500  0.6609
 7060TIP3    H142595   1.075   1.596   4.582  0.5670  0.5177  1.2081
 7060TIP3    H242596   0.963   1.680   4.640 -0.4030 -0.1663  0.3632
 7061TIP3   OH242597   4.947   2.810  12.209  0.1547  0.5802  0.2028
 7061TIP3    H142598   4.964   2.898  12.175  2.2507  0.7659  1.5411
 7061TIP3    H242599   4.915   2.761  12.133 -1.0594  2.4572 -0.5790
 7062TIP3   OH242600   5.347   1.207  12.676 -0.3703  0.0276 -0.1877
 7062TIP3    H142601   5.438   1.187  12.654 -0.2233  0.4035  0.0673
 7062TIP3    H242602   5.347   1.301  12.694 -0.5843 -0.1680  0.9141
 7063TIP3   OH242603   5.870   5.615   2.803 -0.5781  0.3346  0.5500
 7063TIP3    H142604   5.828   5.660   2.876 -1.1373  0.7166  0.0009
 7063TIP3    H242605   5.819   5.641   2.726 -1.2499 -1.6379  0.2711
 7064TIP3   OH242606   1.215   3.651   0.388 -0.5798  0.0925 -0.4242
 7064TIP3    H142607   1.193   3.571   0.435 -1.9852  0.6529 -0.0660
 7064TIP3    H242608   1.257   3.706   0.454 -0.7429  0.1103 -0.3322
 7065TIP3   OH242609   2.222   4.381   3.558  0.2211 -0.1710  0.6557
 7065TIP3    H142610   2.225   4.348   3.468 -1.4975 -0.5764  0.6999
 7065TIP3    H242611   2.204   4.303   3.611  1.1958  0.0698  1.3606
 7066TIP3   OH242612   2.318   2.389   1.842  0.2426 -0.7396 -0.0592
 7066TIP3    H142613   2.312   2.316   1.780  0.5390  0.6426 -1.7896
 7066TIP3    H242614   2.405   2.426   1.826 -0.3522  0.7058 -0.0491
 7067TIP3   OH242615   3.318   2.929  11.603  0.2054 -0.1159  0.2181
 7067TIP3    H142616   3.335   3.019  11.631  1.2246  0.0443 -0.8678
 7067TIP3    H242617   3.405   2.889  11.598 -0.2408 -1.1945  0.7488
 7068TIP3   OH242618   2.788   1.233   4.343 -0.4292  0.2094 -0.9211
 7068TIP3    H142619   2.820   1.160   4.290  2.8312 -0.0229  1.0254
 7068TIP3    H242620   2.718   1.195   4.396 -1.0840 -0.5500 -2.2713
 7069TIP3   OH242621   2.682   2.146  13.641  0.2351  0.0507 -0.0572
 7069TIP3    H142622   2.765   2.100  13.638 -0.1158 -0.6049  0.0439
 7069TIP3    H242623   2.705   2.239  13.641  0.9178 -0.0753 -1.8448
 7070TIP3   OH242624   2.591   0.230   1.738 -0.2011  0.2166 -0.2078
 7070TIP3    H142625   2.500   0.234   1.708  0.3424  1.0252 -1.8263
 7070TIP3    H242626   2.620   0.321   1.739  1.2529 -0.1992 -1.8555
 7071TIP3   OH242627   5.595   0.851  14.886 -0.2392  0.3741 -0.0818
 7071TIP3    H142628   5.533   0.849  14.813 -0.8878 -0.8308  0.4788
 7071TIP3    H242629   5.678   0.878  14.846 -1.0296  1.7175 -0.8915
 7072TIP3   OH242630   6.007   0.572  15.539 -0.5954  0.1058  0.4791
 7072TIP3    H142631   6.071   0.628  15.583  0.4425  0.2706 -1.1372
 7072TIP3    H242632   6.007   0.491  15.590  0.1496  0.4850  1.1009
 7073TIP3   OH242633   4.691   4.463   0.562  0.7350  0.4254  0.3630
 7073TIP3    H142634   4.609   4.413   0.562  0.8636  0.2103  1.1140
 7073TIP3    H242635   4.728   4.450   0.649  0.1811  2.7677  1.0270
 7074TIP3   OH242636   4.788   5.685  17.126 -0.4147  0.6551  0.5375
 7074TIP3    H142637   4.696   5.711  17.115 -0.9094 -0.6319  1.3342
 7074TIP3    H242638   4.829   5.707  17.043 -1.6031  0.6607 -0.0722
 7075TIP3   OH242639   1.020   3.525   3.843  0.1331  0.4001  0.1070
 7075TIP3    H142640   1.024   3.429   3.844 -2.5217  0.2120  0.4561
 7075TIP3    H242641   0.990   3.549   3.931 -0.8693  1.4110 -0.4886
 7076TIP3   OH242642   4.334   0.614   0.975 -0.3486 -0.0521 -0.6046
 7076TIP3    H142643   4.413   0.668   0.966 -1.7158  2.2216  0.3145
 7076TIP3    H242644   4.266   0.663   0.929 -2.0462 -0.0699  1.7402
 7077TIP3   OH242645   0.460   6.363   1.077  0.2933 -0.2951  0.4518
 7077TIP3    H142646   0.535   6.364   1.018  0.1978 -2.3191  0.2179
 7077TIP3    H242647   0.487   6.306   1.149 -1.0708 -1.2402  0.2561
 7078TIP3   OH242648   5.546   0.559   2.468 -0.0525  0.7739  1.1316
 7078TIP3    H142649   5.519   0.650   2.479 -1.8013  0.4110  0.2798
 7078TIP3    H242650   5.583   0.555   2.380  0.2689  0.7008  1.2678
 7079TIP3   OH242651   3.881   6.014  15.248 -0.2059 -0.3636 -0.4222
 7079TIP3    H142652   3.842   6.034  15.163 -0.7998  0.3592  0.0048
 7079TIP3    H242653   3.902   6.100  15.285 -0.5766 -0.6350  0.4371
 7080TIP3   OH242654   5.439   0.403   4.412  0.4899  0.2748  0.0067
 7080TIP3    H142655   5.512   0.345   4.435 -0.1811 -0.1956  1.0495
 7080TIP3    H242656   5.397   0.423   4.496  0.3671  1.8289 -0.3957
 7081TIP3   OH242657   3.400   4.356   3.209 -0.4784  0.6538 -0.6382
 7081TIP3    H142658   3.476   4.396   3.250 -1.3086  0.4136  1.2157
 7081TIP3    H242659   3.436   4.283   3.159  0.4827  0.1886  0.6691
 7082TIP3   OH242660   3.801   0.615   5.612  0.5328  0.2493 -0.1623
 7082TIP3    H142661   3.770   0.528   5.588 -0.6392  0.8164 -0.7926
 7082TIP3    H242662   3.886   0.600   5.653 -0.2774 -1.3150  1.0420
 7083TIP3   OH242663   0.328   1.928   2.598  0.4639  0.6890  0.4220
 7083TIP3    H142664   0.256   1.985   2.625 -1.1232 -0.9053 -0.2261
 7083TIP3    H242665   0.362   1.968   2.518  0.8037  1.8326  1.1093
 7084TIP3   OH242666   3.654   5.362  11.315 -0.1904  0.0525  0.4441
 7084TIP3    H142667   3.745   5.335  11.328 -0.5298 -2.5318 -1.6636
 7084TIP3    H242668   3.639   5.350  11.221 -3.5298 -2.7050  1.1351
 7085TIP3   OH242669   4.162   4.723   3.887  0.2643  0.1092 -0.2573
 7085TIP3    H142670   4.101   4.659   3.924  1.5154 -0.2260  1.3704
 7085TIP3    H242671   4.132   4.807   3.922 -1.4143  0.5194 -2.4425
 7086TIP3   OH242672   4.155   4.854   1.194  0.5504 -0.0290  0.1912
 7086TIP3    H142673   4.090   4.853   1.265 -1.5731  0.7203 -1.6167
 7086TIP3    H242674   4.140   4.772   1.147  1.1670 -0.0013 -0.0608
 7087TIP3   OH242675   0.592   4.948  12.440  0.5360 -0.1775 -0.0936
 7087TIP3    H142676   0.647   4.882  12.482 -0.7960 -2.0005 -1.0518
 7087TIP3    H242677   0.506   4.936  12.478  0.4564  1.7197  0.4088
 7088TIP3   OH242678   3.340   3.617   5.438  0.4140 -0.4737 -0.5329
 7088TIP3    H142679   3.250   3.647   5.451  0.4164 -0.8795  0.5302
 7088TIP3    H242680   3.334   3.522   5.440  0.7891 -0.5127 -1.0705
 7089TIP3   OH242681   6.694   5.318  12.410 -0.6367 -0.2173 -0.4571
 7089TIP3    H142682   6.765   5.266  12.449 -0.7356 -1.0765 -1.3956
 7089TIP3    H242683   6.708   5.406  12.445  0.3477 -0.5708  0.0949
 7090TIP3   OH242684   6.142   6.469  13.318 -0.4133  0.3645  0.3810
 7090TIP3    H142685   6.215   6.407  13.318 -0.7392 -0.0291  0.8286
 7090TIP3    H242686   6.068   6.419  13.352 -0.8619  0.7983  0.0629
 7091TIP3   OH242687   1.641   1.910   3.736 -0.4800 -0.1931 -0.0680
 7091TIP3    H142688   1.560   1.887   3.690  0.3670 -0.3912 -1.5288
 7091TIP3    H242689   1.675   1.826   3.766 -0.1359 -0.2631 -0.6454
 7092TIP3   OH242690   1.720   1.198   2.636 -0.1929 -0.0997 -0.1893
 7092TIP3    H142691   1.757   1.276   2.677  0.2583  0.6762 -1.9679
 7092TIP3    H242692   1.626   1.202   2.654 -0.0578  0.4225  0.4057
 7093TIP3   OH242693   1.075   1.357   0.982  0.1760  0.0310 -0.3241
 7093TIP3    H142694   1.169   1.369   0.968  0.2679 -0.0064  0.2419
 7093TIP3    H242695   1.052   1.421   1.049 -0.2496  0.1867 -0.6145
 7094TIP3   OH242696   4.210   2.498   0.294  0.3099 -0.0735  0.3038
 7094TIP3    H142697   4.245   2.457   0.215 -0.7864  0.9331 -0.7456
 7094TIP3    H242698   4.125   2.456   0.307 -0.0354  0.6071  0.2563
 7095TIP3   OH242699   3.570   5.533  16.320  0.3496 -0.4329 -0.4010
 7095TIP3    H142700   3.548   5.592  16.248  0.7265  0.6055  0.3179
 7095TIP3    H242701   3.552   5.445  16.285 -2.5188  0.1690 -0.7153
 7096TIP3   OH242702   2.426   0.028  11.580  0.2982 -0.0122  0.4610
 7096TIP3    H142703   2.380   0.109  11.560 -0.5855 -0.5058  0.4379
 7096TIP3    H242704   2.455  -0.004  11.495 -1.0299 -0.6797  0.2202
 7097TIP3   OH242705   0.704   0.217   3.347  0.2602 -0.2134 -0.3763
 7097TIP3    H142706   0.718   0.186   3.258  0.0393 -1.0403 -0.1280
 7097TIP3    H242707   0.633   0.281   3.339  0.9597  0.5076 -0.9420
 7098TIP3   OH242708   2.954   2.402   1.030  0.3541 -0.2996  0.4667
 7098TIP3    H142709   2.862   2.384   1.051 -0.2373  1.2472 -0.5556
 7098TIP3    H242710   2.998   2.319   1.042 -1.2932 -1.2211  0.4634
 7099TIP3   OH242711   5.035   4.282  12.953 -0.1018  0.1422 -0.4880
 7099TIP3    H142712   5.045   4.340  13.028  1.3837  0.6533 -1.0374
 7099TIP3    H242713   5.002   4.338  12.883 -1.9312 -0.4300 -0.1229
 7100TIP3   OH242714   5.821   5.453   3.669  0.0977 -0.3383 -0.2135
 7100TIP3    H142715   5.910   5.426   3.647  0.0893  1.5550 -3.0445
 7100TIP3    H242716   5.772   5.441   3.587 -1.7231  0.6937  0.6785
 7101TIP3   OH242717   0.561   1.725   3.867  0.3610  0.4759 -0.6425
 7101TIP3    H142718   0.481   1.733   3.816 -2.1303 -0.4357  2.7891
 7101TIP3    H242719   0.577   1.814   3.901 -0.2877  0.3093  0.1215
 7102TIP3   OH242720   3.508   2.914   5.071 -0.3411  0.0960  0.1144
 7102TIP3    H142721   3.425   2.960   5.069  0.4054  1.5057  0.0243
 7102TIP3    H242722   3.493   2.834   5.021 -1.8601 -0.0858  0.8210
 7103TIP3   OH242723   3.215   6.499   2.375 -0.0761 -0.2908 -0.0197
 7103TIP3    H142724   3.249   6.573   2.325  0.4049 -0.0469  0.6624
 7103TIP3    H242725   3.272   6.426   2.351 -1.0002 -0.6355 -1.2579
 7104TIP3   OH242726   1.346   4.912  17.260 -0.1275 -0.6470 -0.3976
 7104TIP3    H142727   1.316   4.855  17.330  0.2713 -2.0494 -1.3361
 7104TIP3    H242728   1.431   4.877  17.235 -0.6737 -0.7854 -2.2272
 7105TIP3   OH242729   0.479   5.388   5.118  0.3446 -1.1251 -0.1141
 7105TIP3    H142730   0.473   5.303   5.161  2.2849  0.8512  4.8027
 7105TIP3    H242731   0.396   5.432   5.139  0.6894 -0.6661  0.3109
 7106TIP3   OH242732   4.873   4.106   0.350  0.6273  0.2342  0.0053
 7106TIP3    H142733   4.837   4.042   0.412  0.4539  0.7278  0.4275
 7106TIP3    H242734   4.933   4.056   0.295  2.2616  0.1320  1.7999
 7107TIP3   OH242735   4.865   2.670   3.623  0.5861  0.1485 -0.3369
 7107TIP3    H142736   4.941   2.639   3.672 -0.1697 -0.9376  0.2056
 7107TIP3    H242737   4.793   2.613   3.652 -0.6325  1.6910 -0.1937
 7108TIP3   OH242738   3.293   4.058  17.237 -0.3197 -0.2136 -0.1793
 7108TIP3    H142739   3.312   4.151  17.249 -1.9516  0.1045  0.2465
 7108TIP3    H242740   3.298   4.044  17.143 -0.6633  0.4561 -0.3037
 7109TIP3   OH242741   4.734   1.752  15.764 -0.2768  0.0590  0.2270
 7109TIP3    H142742   4.712   1.777  15.675 -1.6119 -2.6390 -0.2997
 7109TIP3    H242743   4.794   1.679  15.754 -0.9691 -0.7232  1.5144
 7110TIP3   OH242744   5.986   3.630  12.052 -0.3290  0.1905 -0.0837
 7110TIP3    H142745   5.986   3.722  12.025 -0.3566  0.2960  0.2647
 7110TIP3    H242746   5.997   3.581  11.971 -0.8496  0.4838 -0.3417
 7111TIP3   OH242747   1.012   2.257   4.365  0.0644  0.1633 -0.5722
 7111TIP3    H142748   0.969   2.305   4.295  0.0150  1.0665  0.0579
 7111TIP3    H242749   1.034   2.324   4.430 -0.3280 -0.7143  0.4941
 7112TIP3   OH242750   3.458   2.486   2.212 -0.1948  0.1384 -0.0770
 7112TIP3    H142751   3.390   2.425   2.241 -2.5022  0.8946 -3.2946
 7112TIP3    H242752   3.482   2.454   2.125  2.5696  0.8032  0.3498
 7113TIP3   OH242753   2.195   4.805   5.654 -0.0683 -0.1966  0.0221
 7113TIP3    H142754   2.113   4.837   5.693 -0.9690  0.0184 -1.9480
 7113TIP3    H242755   2.188   4.710   5.659  0.3883 -0.1830  1.4302
 7114TIP3   OH242756   5.130   5.814  10.659 -0.1087 -0.3896 -0.4712
 7114TIP3    H142757   5.126   5.718  10.659  2.0516 -0.5232 -0.6686
 7114TIP3    H242758   5.115   5.839  10.568  1.8738 -0.7311 -0.9240
 7115TIP3   OH242759   6.135   0.521  13.024 -0.8340  0.6923  0.1172
 7115TIP3    H142760   6.204   0.587  13.012 -1.6139  1.5531  0.3266
 7115TIP3    H242761   6.159   0.452  12.962 -0.0895  1.2298 -0.2230
 7116TIP3   OH242762   5.276   5.813  14.910  0.3867  0.0703 -0.0543
 7116TIP3    H142763   5.354   5.805  14.965  1.1342  2.2586 -0.6669
 7116TIP3    H242764   5.258   5.724  14.880  2.3900 -0.5651  0.4823
 7117TIP3   OH242765   5.863   0.520   4.543  0.3356  0.2868  0.3132
 7117TIP3    H142766   5.826   0.497   4.628  1.1065  2.6751  1.4175
 7117TIP3    H242767   5.957   0.528   4.560  0.5201  0.6466 -0.8062
 7118TIP3   OH242768   2.411   1.986   5.989 -0.1563 -0.4113  0.6103
 7118TIP3    H142769   2.349   1.937   6.043  0.1406  0.1137  1.4341
 7118TIP3    H242770   2.414   2.073   6.028 -1.7296  0.7536 -1.6454
 7119TIP3   OH242771   2.295   0.767  13.521  0.2710 -0.1363  0.4355
 7119TIP3    H142772   2.384   0.774  13.486  0.5717  0.0450  1.2197
 7119TIP3    H242773   2.306   0.738  13.612 -0.4987 -0.6776  0.3710
 7120TIP3   OH242774   2.231   2.271   3.096  0.0204 -0.1628 -0.5591
 7120TIP3    H142775   2.212   2.355   3.136  0.9381  0.4138 -1.2920
 7120TIP3    H242776   2.174   2.267   3.019 -0.5426 -0.5362 -0.1279
 7121TIP3   OH242777   4.460   2.678  12.503 -0.5112  0.4046 -0.2708
 7121TIP3    H142778   4.530   2.711  12.447 -0.4890  0.1614 -0.3908
 7121TIP3    H242779   4.482   2.709  12.591  0.3992 -0.6512 -0.0946
 7122TIP3   OH242780   6.435   1.571  13.146 -0.0163  0.1162 -0.2646
 7122TIP3    H142781   6.482   1.546  13.226 -1.5295 -3.3071 -0.2786
 7122TIP3    H242782   6.345   1.584  13.174 -0.6066 -1.3074 -1.3604
 7123TIP3   OH242783   2.359   3.587  15.833  0.6575 -0.3564 -0.0665
 7123TIP3    H142784   2.424   3.594  15.902  0.7191 -0.0455 -0.1526
 7123TIP3    H242785   2.409   3.591  15.752  0.3529  2.8409 -0.2171
 7124TIP3   OH242786   0.132   1.493  10.349  0.0903 -0.6360 -0.5425
 7124TIP3    H142787   0.051   1.496  10.299 -0.6371 -1.2258  0.5504
 7124TIP3    H242788   0.105   1.510  10.439  1.2041 -0.6644 -0.1888
 7125TIP3   OH242789   1.959   1.775  12.285 -0.2387  0.0737 -0.6396
 7125TIP3    H142790   1.867   1.761  12.264  0.0330  0.0526 -1.9012
 7125TIP3    H242791   1.959   1.850  12.345 -1.2405 -1.5071  1.4403
 7126TIP3   OH242792   0.916   4.681  12.038  0.2293  0.1453  0.3946
 7126TIP3    H142793   0.939   4.747  11.972  1.2206  1.3185  1.8340
 7126TIP3    H242794   0.952   4.600  12.004  1.4621  0.8845 -0.1547
 7127TIP3   OH242795   6.020   1.942  13.575  0.1193  0.4593 -0.1179
 7127TIP3    H142796   6.073   1.864  13.592 -0.0871  0.1899 -0.6698
 7127TIP3    H242797   6.081   2.015  13.585  0.1528  0.2880  1.1040
 7128TIP3   OH242798   0.176   5.701  14.192 -0.7733 -0.2536  0.4923
 7128TIP3    H142799   0.125   5.696  14.273 -1.8562  1.8096 -0.0001
 7128TIP3    H242800   0.111   5.695  14.122 -0.1386  0.3532 -0.1690
 7129TIP3   OH242801   6.029   3.409  12.443  0.7303 -0.1293  0.0567
 7129TIP3    H142802   6.044   3.497  12.408  0.6451  0.5170  1.5855
 7129TIP3    H242803   6.103   3.395  12.503 -0.6039 -0.0294  1.7910
 7130TIP3   OH242804   1.101   0.584  12.522  0.0293  0.2074 -0.1281
 7130TIP3    H142805   1.073   0.674  12.536  2.4327  0.9367  0.4444
 7130TIP3    H242806   1.196   0.589  12.515  0.2986 -2.3591  0.6130
 7131TIP3   OH242807   6.280   6.013   3.323  0.2902  0.0325  0.2380
 7131TIP3    H142808   6.269   6.018   3.228  0.3341 -2.2189  0.0520
 7131TIP3    H242809   6.373   5.996   3.336  0.1290 -0.5900  0.6147
 7132TIP3   OH242810   3.499   6.513  11.983  0.0591 -0.1285 -0.2896
 7132TIP3    H142811   3.573   6.455  12.001  0.9627  0.7834 -0.9766
 7132TIP3    H242812   3.441   6.460  11.927  1.3826 -0.0529 -1.8001
 7133TIP3   OH242813   3.034   2.239  13.463  0.0068 -0.0213 -0.2997
 7133TIP3    H142814   3.059   2.293  13.538 -1.7344 -1.4095  1.3853
 7133TIP3    H242815   3.048   2.149  13.493 -2.8368 -0.6974 -0.7546
 7134TIP3   OH242816   4.284   3.820   4.799 -0.0734 -0.2647 -0.2243
 7134TIP3    H142817   4.199   3.850   4.768  0.0112 -1.3077 -1.5702
 7134TIP3    H242818   4.265   3.772   4.880 -0.8904 -1.1614 -0.9215
 7135TIP3   OH242819   3.028   5.411  14.341 -0.3727 -0.7215 -0.5776
 7135TIP3    H142820   2.961   5.413  14.409 -0.6217 -0.6064 -0.8211
 7135TIP3    H242821   2.986   5.452  14.265  0.0653 -0.3930 -0.6500
 7136TIP3   OH242822   1.420   1.797   0.213 -0.2645 -0.1738 -0.2624
 7136TIP3    H142823   1.465   1.731   0.266 -0.6940 -0.4738 -0.2650
 7136TIP3    H242824   1.440   1.773   0.123 -1.0832 -0.7862 -0.2889
 7137TIP3   OH242825   6.275   6.286   1.338 -0.3322  0.2933  0.2025
 7137TIP3    H142826   6.297   6.235   1.259  0.7941  1.6699 -0.4180
 7137TIP3    H242827   6.180   6.280   1.344 -0.3915 -0.3068 -0.9546
 7138TIP3   OH242828   4.080   3.628   2.567  0.2511 -0.3310 -0.2331
 7138TIP3    H142829   4.118   3.562   2.508 -0.3974 -2.0423  1.1475
 7138TIP3    H242830   3.986   3.618   2.557  0.0904 -1.3316  1.6742
 7139TIP3   OH242831   3.478   0.055   5.918 -0.1401  0.4623 -0.1745
 7139TIP3    H142832   3.496   0.132   5.864 -0.4738 -0.6531 -1.9552
 7139TIP3    H242833   3.408   0.009   5.872  1.4555 -1.9909 -0.3439
 7140TIP3   OH242834   6.633   2.519  16.903 -0.2774 -0.1031  0.1777
 7140TIP3    H142835   6.647   2.609  16.874 -0.1611  0.2650  1.3097
 7140TIP3    H242836   6.628   2.526  16.998  0.1205 -1.3527  0.2997
 7141TIP3   OH242837   4.121   4.580  14.602 -0.1886  0.3830 -0.2799
 7141TIP3    H142838   4.205   4.545  14.571  0.2299  1.1732 -0.0660
 7141TIP3    H242839   4.144   4.635  14.676 -0.8204  1.1398 -0.6313
 7142TIP3   OH242840   2.997   1.143   2.554  0.8691  0.3610  0.1051
 7142TIP3    H142841   2.912   1.185   2.539  0.9252  0.4887  0.1450
 7142TIP3    H242842   3.061   1.213   2.541  0.9201  0.4929  0.9653
 7143TIP3   OH242843   0.760   2.950  12.105 -0.2587 -0.6718 -0.3358
 7143TIP3    H142844   0.740   2.894  12.180 -2.0012  0.2845 -0.0152
 7143TIP3    H242845   0.716   2.908  12.031 -1.3669  0.1166 -0.1406
 7144TIP3   OH242846   1.950   1.644  16.004  0.0383  0.0097  0.2872
 7144TIP3    H142847   1.946   1.733  16.038 -0.0129  0.0138  0.2701
 7144TIP3    H242848   1.930   1.589  16.079  0.4036 -0.0048  0.3762
 7145TIP3   OH242849   2.902   0.893  15.797 -0.2065 -0.1305  0.6054
 7145TIP3    H142850   2.953   0.933  15.726  0.5647 -1.0417  0.6244
 7145TIP3    H242851   2.821   0.865  15.755 -0.0067 -0.1365  0.2164
 7146TIP3   OH242852   5.153   6.210   0.896 -0.1075  0.1538  0.2696
 7146TIP3    H142853   5.104   6.154   0.956  0.4960 -0.9663 -0.2405
 7146TIP3    H242854   5.163   6.293   0.943 -1.3610 -0.0275  0.8902
 7147TIP3   OH242855   0.995   6.412   2.914  0.1066 -0.3991  0.2988
 7147TIP3    H142856   1.010   6.507   2.918 -3.2585  0.2661  0.0484
 7147TIP3    H242857   0.982   6.386   3.005 -0.9303 -0.1965  0.2200
 7148TIP3   OH242858   4.676   5.555   2.020  0.7972 -0.4387 -0.1217
 7148TIP3    H142859   4.675   5.594   1.933  1.7053 -0.9410 -0.3592
 7148TIP3    H242860   4.716   5.622   2.076 -1.4131  0.6372  0.3085
 7149TIP3   OH242861   1.189   0.550   4.109 -0.4596 -0.1430  0.2316
 7149TIP3    H142862   1.188   0.550   4.205  0.6969  1.0698  0.2641
 7149TIP3    H242863   1.123   0.615   4.085  0.0427  0.3805  0.2426
 7150TIP3   OH242864   2.354   5.384  12.128 -0.5974 -0.2709 -0.6315
 7150TIP3    H142865   2.421   5.335  12.081 -1.8334 -2.6866 -0.0397
 7150TIP3    H242866   2.402   5.429  12.198  0.6764 -0.1166 -1.5706
 7151TIP3   OH242867   3.425   1.408   1.095 -0.2692 -0.1365  0.3095
 7151TIP3    H142868   3.485   1.374   1.161 -1.4999  0.8727  2.0139
 7151TIP3    H242869   3.455   1.369   1.013 -0.2061 -3.5160  1.7575
 7152TIP3   OH242870   5.842   6.051  12.060  0.4826  0.9776  0.0847
 7152TIP3    H142871   5.782   6.121  12.086  0.3550  0.5824  0.9044
 7152TIP3    H242872   5.799   5.971  12.091  1.9630  0.7701  1.7991
 7153TIP3   OH242873   1.533   2.052  14.854  0.0645 -0.1499  0.2543
 7153TIP3    H142874   1.443   2.079  14.841 -0.2700  0.1024  2.5587
 7153TIP3    H242875   1.529   1.957  14.867 -0.3198  0.1508  2.9498
 7154TIP3   OH242876   1.535   3.930  11.667  0.3826 -0.7539  0.0459
 7154TIP3    H142877   1.556   4.020  11.694  0.2217 -1.1705  1.6154
 7154TIP3    H242878   1.503   3.888  11.746 -1.5018 -1.6286 -1.0956
 7155TIP3   OH242879   5.689   0.330   4.026  0.3988  0.0166 -0.1656
 7155TIP3    H142880   5.766   0.329   3.970 -0.7199  2.2506 -1.8819
 7155TIP3    H242881   5.692   0.415   4.069 -0.7387 -0.1775  0.3315
 7156TIP3   OH242882   2.078   0.505  13.262 -0.2367 -0.1015 -0.0328
 7156TIP3    H142883   2.025   0.494  13.184 -0.0919 -1.7334  0.0676
 7156TIP3    H242884   2.169   0.497  13.231 -0.0888  1.1379  0.0304
 7157TIP3   OH242885   1.707   4.601  11.769 -0.1642 -0.2087  0.4743
 7157TIP3    H142886   1.797   4.594  11.801 -0.3263  0.6348  1.1583
 7157TIP3    H242887   1.701   4.690  11.734  0.0980 -1.1842 -2.2722
 7158TIP3   OH242888   3.837   1.611  15.013 -1.0500  0.0623  0.1631
 7158TIP3    H142889   3.768   1.562  14.968  0.1295  0.6500 -2.4899
 7158TIP3    H242890   3.913   1.553  15.010 -0.6439  0.5744  0.3974
 7159TIP3   OH242891   3.143   4.895  13.397  0.0333 -0.4277  0.1006
 7159TIP3    H142892   3.116   4.898  13.306  0.1855  1.2892  0.0906
 7159TIP3    H242893   3.239   4.900  13.394  0.0683 -0.8945  0.3394
 7160TIP3   OH242894   2.275   6.598   3.996 -0.3882  0.2671  0.3385
 7160TIP3    H142895   2.278   6.657   4.071  0.0553  1.5445 -0.6457
 7160TIP3    H242896   2.343   6.532   4.015  0.5683  1.2731  0.5204
 7161TIP3   OH242897   5.269   0.011   3.742  0.1500 -0.0662  0.3984
 7161TIP3    H142898   5.219  -0.070   3.735  0.9082 -0.5725  0.7747
 7161TIP3    H242899   5.304   0.010   3.831 -0.5827  1.1242  0.7322
 7162TIP3   OH242900   4.129   1.816   6.101 -0.4972  0.4856 -0.3195
 7162TIP3    H142901   4.185   1.807   6.025 -1.2250  0.6812 -0.8936
 7162TIP3    H242902   4.043   1.841   6.065 -1.2946 -1.0432  0.4279
 7163TIP3   OH242903   2.487   6.561   1.341  0.2832 -0.5290 -1.1009
 7163TIP3    H142904   2.452   6.472   1.338 -0.4240 -0.2825 -0.5628
 7163TIP3    H242905   2.549   6.560   1.414  0.6650 -0.7130 -1.4267
 7164TIP3   OH242906   4.659   4.998  12.636 -0.2882 -0.2057 -0.0728
 7164TIP3    H142907   4.754   5.005  12.645  0.3133 -0.8000 -4.3200
 7164TIP3    H242908   4.635   5.069  12.577 -2.5026 -0.2932  0.6183
 7165TIP3   OH242909   4.578   2.604  11.399  0.6620  0.1179 -0.0049
 7165TIP3    H142910   4.606   2.606  11.308  0.8964 -1.3539 -0.0005
 7165TIP3    H242911   4.660   2.601  11.449  0.6311 -2.8884  0.0599
 7166TIP3   OH242912   0.116   5.044  13.982  0.5635 -0.2235  0.3191
 7166TIP3    H142913   0.120   4.996  14.065  1.9719  0.7853  0.8621
 7166TIP3    H242914   0.207   5.064  13.961  0.0539  2.0951  0.0671
 7167TIP3   OH242915   3.696   3.704  11.669  0.5391  0.4857 -0.4317
 7167TIP3    H142916   3.673   3.619  11.629 -0.9221  0.0649  1.2017
 7167TIP3    H242917   3.693   3.766  11.596 -1.3641 -0.3809 -1.1549
 7168TIP3   OH242918   5.687   5.165  13.584  0.3583 -0.5808  0.0268
 7168TIP3    H142919   5.730   5.246  13.556  0.5085 -0.8582 -0.5566
 7168TIP3    H242920   5.605   5.163  13.535  0.5763 -1.0202 -0.3238
 7169TIP3   OH242921   1.538   5.897   1.145 -0.1669  0.1466  0.0046
 7169TIP3    H142922   1.452   5.893   1.187 -0.9646  0.7364 -1.5265
 7169TIP3    H242923   1.554   5.990   1.132  1.1728  0.1062  1.1582
 7170TIP3   OH242924   3.869   3.164   2.853  0.1098  0.1130 -0.5337
 7170TIP3    H142925   3.962   3.184   2.842  0.5413 -2.0218 -1.0343
 7170TIP3    H242926   3.865   3.113   2.934 -0.6199  0.0425 -0.6101
 7171TIP3   OH242927   1.639   3.634  14.593  0.2619 -0.0399  0.8716
 7171TIP3    H142928   1.583   3.557  14.592 -0.6422  0.5873 -0.6086
 7171TIP3    H242929   1.689   3.629  14.511 -1.9212  2.3517 -0.7559
 7172TIP3   OH242930   5.140   2.792  13.212 -0.4133  0.2944 -0.2532
 7172TIP3    H142931   5.113   2.811  13.122 -0.0923 -0.2365 -0.4691
 7172TIP3    H242932   5.119   2.699  13.224 -1.7127  0.6803  0.6841
 7173TIP3   OH242933   1.377   0.737  15.021 -1.0405 -0.1543 -0.9622
 7173TIP3    H142934   1.351   0.801  15.088 -0.3706 -1.6040  0.7827
 7173TIP3    H242935   1.424   0.788  14.956 -1.2213  1.2451 -0.0463
 7174TIP3   OH242936   4.449   6.128   4.522  0.0436 -0.3159  0.0405
 7174TIP3    H142937   4.379   6.194   4.529  1.1855  0.9202  0.1075
 7174TIP3    H242938   4.483   6.138   4.433  0.3590 -0.6962  0.1137
 7175TIP3   OH242939   2.260   3.727   0.138 -0.1395  0.7085  0.1992
 7175TIP3    H142940   2.230   3.703   0.226 -2.1075  1.3704 -0.2282
 7175TIP3    H242941   2.223   3.659   0.081 -0.6272  1.4024 -0.3319
 7176TIP3   OH242942   2.034   4.106  15.453 -0.1484  0.0897  0.2187
 7176TIP3    H142943   2.048   4.026  15.504  0.9953  1.2071  1.7435
 7176TIP3    H242944   2.101   4.104  15.386  1.4983  0.8867  1.7576
 7177TIP3   OH242945   0.127   3.976  11.687  0.4273  0.1164 -0.0683
 7177TIP3    H142946   0.152   3.885  11.703 -0.0837  0.0521  0.3859
 7177TIP3    H242947   0.207   4.026  11.703  0.0134  0.0367  2.6088
 7178TIP3   OH242948   5.194   3.530   5.474  0.0725  0.0145 -0.0587
 7178TIP3    H142949   5.256   3.584   5.525  1.4247 -1.4987 -0.0300
 7178TIP3    H242950   5.207   3.441   5.507 -2.2999 -0.3534  0.0727
 7179TIP3   OH242951   3.115   1.108  17.102  0.6401 -0.0865  0.2882
 7179TIP3    H142952   3.021   1.094  17.100  0.6392 -0.0464 -0.4787
 7179TIP3    H242953   3.147   1.050  17.171 -0.0562  0.6694  1.2807
 7180TIP3   OH242954   1.879   6.303  17.068  0.1688  0.1405 -0.0832
 7180TIP3    H142955   1.876   6.361  16.992  1.1942  0.0405 -0.2107
 7180TIP3    H242956   1.958   6.328  17.115 -1.2177  1.2371  1.8164
 7181TIP3   OH242957   0.281   4.439   4.352 -0.2431  0.4772 -0.1110
 7181TIP3    H142958   0.315   4.351   4.368  0.9116  0.9248 -0.0208
 7181TIP3    H242959   0.358   4.492   4.334 -1.0277  1.2158 -1.4889
 7182TIP3   OH242960   2.611   4.080   0.651  0.2594 -0.5456 -0.3144
 7182TIP3    H142961   2.672   4.009   0.632 -1.2062 -2.1832  0.8232
 7182TIP3    H242962   2.602   4.126   0.568  0.8720 -1.9994 -1.2302
 7183TIP3   OH242963   3.843   4.945   5.453  0.1818 -0.2639  0.2207
 7183TIP3    H142964   3.935   4.922   5.442  0.7257  0.4144  2.6843
 7183TIP3    H242965   3.841   5.040   5.447 -0.8820 -0.3683 -2.6038
 7184TIP3   OH242966   5.335   1.568  13.702 -0.2990 -0.2290 -0.0175
 7184TIP3    H142967   5.424   1.589  13.730 -0.3598  0.5438 -0.3909
 7184TIP3    H242968   5.285   1.648  13.718 -0.8288 -0.5179 -0.2133
 7185TIP3   OH242969   2.321   6.063   1.463 -0.4077  0.6441 -0.4061
 7185TIP3    H142970   2.235   6.088   1.497  0.6358  1.0344  2.1868
 7185TIP3    H242971   2.374   6.142   1.473  0.7723 -0.1814 -0.0167
 7186TIP3   OH242972   2.114   3.368   4.763  0.3919  0.2330 -0.1173
 7186TIP3    H142973   2.127   3.461   4.782  0.1131  0.1830  0.3112
 7186TIP3    H242974   2.079   3.331   4.843 -0.9024  0.0437 -0.7437
 7187TIP3   OH242975   4.272   5.531  16.676 -0.4923 -0.7210 -0.4364
 7187TIP3    H142976   4.239   5.500  16.591 -0.5677  1.2429 -1.1592
 7187TIP3    H242977   4.345   5.588  16.655 -2.0290  1.8083  0.5856
 7188TIP3   OH242978   4.915   4.059  13.205 -0.2894 -0.1629  0.2843
 7188TIP3    H142979   4.997   4.020  13.173 -0.7591 -1.0130  0.0842
 7188TIP3    H242980   4.943   4.136  13.255  0.7030 -1.0420  1.1364
 7189TIP3   OH242981   0.431   4.039   3.734  0.3451 -0.0720  0.1233
 7189TIP3    H142982   0.463   3.951   3.755 -0.4732 -0.5529 -0.5869
 7189TIP3    H242983   0.390   4.070   3.815  1.4775  0.0546  0.6669
 7190TIP3   OH242984   3.014   6.214  16.943  0.9119 -0.0158 -0.0917
 7190TIP3    H142985   3.029   6.238  16.851 -0.4416 -2.7804 -1.1385
 7190TIP3    H242986   2.927   6.248  16.963  1.5934  1.4347  0.5373
 7191TIP3   OH242987   1.208   4.924   2.604  0.2653  0.1810  0.0805
 7191TIP3    H142988   1.284   4.881   2.645  1.4202  1.2363 -0.8681
 7191TIP3    H242989   1.175   4.859   2.542  0.7441 -0.0825  0.0914
 7192TIP3   OH242990   2.336   3.215  13.570  0.1819  0.3904 -0.2871
 7192TIP3    H142991   2.291   3.166  13.500  0.8948  0.7507 -1.0131
 7192TIP3    H242992   2.266   3.268  13.610 -0.3892 -0.4252 -0.1835
 7193TIP3   OH242993   2.798   1.129   5.710  0.4937 -0.1546  0.4802
 7193TIP3    H142994   2.775   1.067   5.641 -0.2546  0.7877 -0.1361
 7193TIP3    H242995   2.835   1.075   5.779  0.4129 -1.2185 -0.2853
 7194TIP3   OH242996   4.859   5.009   5.524 -0.1283 -0.0922 -0.2455
 7194TIP3    H142997   4.794   5.007   5.593  0.0951 -2.1830 -0.0229
 7194TIP3    H242998   4.915   5.084   5.545 -0.0800 -0.6544  1.8359
 7195TIP3   OH242999   0.258   1.460  11.328 -0.7326 -0.3727  0.3260
 7195TIP3    H143000   0.342   1.436  11.289  0.8561  2.7028  1.5336
 7195TIP3    H243001   0.209   1.501  11.257 -0.0425  0.3560  0.2642
 7196TIP3   OH243002   2.172   1.773   5.229  0.1871 -0.1149  0.4545
 7196TIP3    H143003   2.157   1.752   5.136  1.8421  1.3062 -0.1956
 7196TIP3    H243004   2.231   1.704   5.259 -2.6875 -2.3665  1.4080
 7197TIP3   OH243005   2.897   4.169  16.743 -0.2223 -0.7765 -0.0157
 7197TIP3    H143006   2.849   4.090  16.768 -1.6055 -0.2785 -0.9338
 7197TIP3    H243007   2.889   4.227  16.820 -0.8318 -0.8299 -0.0294
 7198TIP3   OH243008   5.326   4.618  11.216 -0.4108 -0.1560 -1.0940
 7198TIP3    H143009   5.376   4.541  11.244  0.8119  0.9418 -0.1079
 7198TIP3    H243010   5.257   4.627  11.281 -0.5687 -0.4210 -1.2224
 7199TIP3   OH243011   1.488   2.173   7.120  0.2280 -0.1011 -0.3376
 7199TIP3    H143012   1.509   2.156   7.028  1.8038 -0.6898  0.1003
 7199TIP3    H243013   1.551   2.240   7.146 -1.8569  1.9945 -0.3291
 7200TIP3   OH243014   2.908   4.264   0.144 -0.0113 -0.0537 -0.2751
 7200TIP3    H143015   2.947   4.179   0.125 -0.7400 -0.3510 -0.4806
 7200TIP3    H243016   2.874   4.295   0.059 -0.3891  0.1033 -0.0717
 7201TIP3   OH243017   5.633   5.468  15.453  0.8028  0.3696 -0.4558
 7201TIP3    H143018   5.679   5.518  15.386  0.7106  0.8135 -0.1943
 7201TIP3    H243019   5.609   5.533  15.519 -0.2992  0.1737 -0.6363
 7202TIP3   OH243020   6.039   6.106   1.739  0.1477  0.0816 -0.2669
 7202TIP3    H143021   6.053   6.061   1.822 -0.2172 -1.3605 -0.9543
 7202TIP3    H243022   6.036   6.036   1.674  1.1875  1.2354 -1.6163
 7203TIP3   OH243023   3.637   1.100  15.437 -0.0535 -0.2332 -0.1414
 7203TIP3    H143024   3.711   1.087  15.379  0.6972 -0.0722  0.7595
 7203TIP3    H243025   3.601   1.186  15.413 -0.6496 -0.7917 -1.3188
 7204TIP3   OH243026   4.808   6.600   5.634 -0.0206 -0.0963  0.3971
 7204TIP3    H143027   4.841   6.540   5.701  0.9648  1.0521  0.9847
 7204TIP3    H243028   4.865   6.586   5.559 -1.0917 -1.3452 -0.2291
 7205TIP3   OH243029   3.896   2.472   6.803  0.0639 -0.8081  0.3152
 7205TIP3    H143030   3.911   2.413   6.729 -0.9818 -1.0278  0.2599
 7205TIP3    H243031   3.976   2.523   6.810 -0.2854  0.1051 -1.7774
 7206TIP3   OH243032   0.914   4.231   3.704  0.0323  0.2645  0.3894
 7206TIP3    H143033   0.965   4.165   3.657  1.0504  0.1880  1.5560
 7206TIP3    H243034   0.956   4.314   3.682  0.0736  0.3011  0.6049
 7207TIP3   OH243035   1.952   2.841   2.390  0.1058 -0.1318 -0.4015
 7207TIP3    H143036   1.891   2.770   2.371 -0.3502  0.0543  0.3365
 7207TIP3    H243037   1.932   2.907   2.324 -1.9044  0.7764  1.0120
 7208TIP3   OH243038   3.478   2.925  14.592 -0.0859  0.2872 -0.6349
 7208TIP3    H143039   3.514   2.995  14.647  0.3272 -0.0976 -0.4072
 7208TIP3    H243040   3.545   2.908  14.526 -0.4352  0.5098 -1.0481
 7209TIP3   OH243041   5.386   4.647   5.202 -0.4688  0.7807  0.0520
 7209TIP3    H143042   5.373   4.652   5.296 -1.8288 -2.5085  0.1856
 7209TIP3    H243043   5.341   4.566   5.176  1.3812  0.6010 -3.1391
 7210TIP3   OH243044   6.151   4.710   4.773  0.8545  0.1180 -0.3340
 7210TIP3    H143045   6.079   4.771   4.792  1.6542  0.8600  0.4335
 7210TIP3    H243046   6.133   4.677   4.686 -1.8185 -1.6936  0.7763
 7211TIP3   OH243047   1.090   0.804   2.501 -0.7713  0.2737 -0.0184
 7211TIP3    H143048   1.065   0.896   2.490 -3.2776 -0.1783  1.2171
 7211TIP3    H243049   1.068   0.763   2.418  3.0669  1.1565 -1.7207
 7212TIP3   OH243050   1.361   2.555  16.207  0.4012 -0.2123 -0.4584
 7212TIP3    H143051   1.420   2.623  16.239  0.7290 -0.0289 -1.4166
 7212TIP3    H243052   1.274   2.586  16.229  0.5514  0.4952 -0.8427
 7213TIP3   OH243053   6.177   2.819   5.057 -0.1077  0.5600  0.1832
 7213TIP3    H143054   6.248   2.834   4.995  0.2990 -2.8006 -0.3677
 7213TIP3    H243055   6.119   2.894   5.046  1.7595  1.8429 -1.6461
 7214TIP3   OH243056   6.345   5.610   0.816  0.2226 -0.1243  0.3159
 7214TIP3    H143057   6.367   5.518   0.803  1.0592 -0.0914  1.3298
 7214TIP3    H243058   6.285   5.609   0.891 -1.2930  0.0107 -0.8549
 7215TIP3   OH243059   5.777   6.335   3.802 -0.1701  0.9706  0.7397
 7215TIP3    H143060   5.799   6.347   3.709 -0.0308  3.1633  1.0064
 7215TIP3    H243061   5.685   6.309   3.801  0.5510 -2.0113 -0.0835
 7216TIP3   OH243062   3.221   0.913  13.719 -0.2782 -0.1625 -0.9041
 7216TIP3    H143063   3.284   0.872  13.660  1.1894  3.1365 -1.9247
 7216TIP3    H243064   3.151   0.945  13.661 -0.1898  0.7435 -0.5333
 7217TIP3   OH243065   0.321   0.292   4.855 -0.4267 -0.3574 -0.2810
 7217TIP3    H143066   0.296   0.265   4.767 -1.0435 -2.0633  0.3656
 7217TIP3    H243067   0.256   0.359   4.879 -0.5941 -0.2943 -0.9000
 7218TIP3   OH243068   3.654   1.646  13.195 -0.4368  0.4088 -0.2307
 7218TIP3    H143069   3.732   1.620  13.146  0.5063  2.7534 -0.1228
 7218TIP3    H243070   3.581   1.609  13.146  0.7110 -1.6975 -0.4439
 7219TIP3   OH243071   3.765   2.031   4.610  0.0452 -0.1338  0.3102
 7219TIP3    H143072   3.762   1.975   4.533  1.8780 -3.3515  2.3562
 7219TIP3    H243073   3.687   2.008   4.661 -0.7238  1.3744 -0.1283
 7220TIP3   OH243074   6.003   4.420  15.018  0.6035 -0.0577 -0.5673
 7220TIP3    H143075   5.992   4.481  15.091 -0.9048  0.4906 -1.2247
 7220TIP3    H243076   6.023   4.336  15.059  3.5064  0.9441  0.3526
 7221TIP3   OH243077   1.592   2.701  12.192 -0.3978 -0.5522 -0.1430
 7221TIP3    H143078   1.522   2.672  12.250 -1.2903  0.3017 -0.7676
 7221TIP3    H243079   1.550   2.763  12.132  0.4387 -1.5900 -1.8620
 7222TIP3   OH243080   1.634   4.643  13.401 -0.0917  0.1881 -0.6550
 7222TIP3    H143081   1.569   4.681  13.343 -0.1063 -0.3385 -0.9945
 7222TIP3    H243082   1.593   4.563  13.435  1.2915 -1.6293 -2.9460
 7223TIP3   OH243083   2.562   4.578  14.658 -0.1840  0.4602  0.5571
 7223TIP3    H143084   2.629   4.548  14.596 -1.1852 -0.9080  0.0822
 7223TIP3    H243085   2.479   4.558  14.616 -0.9068  1.8871  1.2556
 7224TIP3   OH243086   2.052   1.969  11.707 -0.4293 -0.0230  0.0276
 7224TIP3    H143087   1.972   1.944  11.660 -0.1982 -0.5308 -0.0981
 7224TIP3    H243088   2.052   1.913  11.784 -0.2625  0.0752  0.0972
 7225TIP3   OH243089   0.803   1.109   1.758 -0.7051 -0.0840 -0.9237
 7225TIP3    H143090   0.746   1.083   1.830  0.1032  1.9332  0.5536
 7225TIP3    H243091   0.746   1.155   1.697 -1.0731 -0.0779 -0.5812
 7226TIP3   OH243092   0.833   6.623   0.314 -0.0863  0.0941  0.2030
 7226TIP3    H143093   0.884   6.703   0.330  0.1743 -0.3723  1.9083
 7226TIP3    H243094   0.756   6.631   0.370  0.2316 -1.0811  0.8580
 7227TIP3   OH243095   6.524   1.938  13.138  0.4118 -0.5163  0.4987
 7227TIP3    H143096   6.568   2.020  13.117 -1.3700  1.1722  2.8150
 7227TIP3    H243097   6.446   1.938  13.082 -0.0344 -0.1774  1.1122
 7228TIP3   OH243098   3.467   4.703   4.925 -1.0547  0.0523 -0.4540
 7228TIP3    H143099   3.494   4.662   5.007 -0.7991 -0.4511 -0.7847
 7228TIP3    H243100   3.379   4.736   4.943 -1.3629 -0.8530 -0.2406
 7229TIP3   OH243101   3.779   3.119   5.912  0.1425  0.1091  0.7518
 7229TIP3    H143102   3.711   3.080   5.967  0.4059 -0.0342  0.9739
 7229TIP3    H243103   3.839   3.047   5.893 -2.1916 -1.0816 -3.3686
 7230TIP3   OH243104   3.064   4.458   0.704 -0.8347 -0.2373  0.0149
 7230TIP3    H143105   2.988   4.514   0.690  0.0409  0.6608 -1.5805
 7230TIP3    H243106   3.081   4.463   0.798 -1.4406  1.3303  0.0780
 7231TIP3   OH243107   2.060   1.212  12.761 -0.1716 -0.1018 -0.1953
 7231TIP3    H143108   2.016   1.295  12.779 -1.7783 -1.0380  0.4182
 7231TIP3    H243109   2.034   1.189  12.673 -0.2030 -0.2475 -0.1479
 7232TIP3   OH243110   4.739   5.374  13.998 -0.0600 -0.7976 -0.0505
 7232TIP3    H143111   4.778   5.402  14.081  0.7236 -1.1805 -0.2735
 7232TIP3    H243112   4.666   5.318  14.023 -0.0363 -0.6346  0.3821
 7233TIP3   OH243113   6.412   6.266  14.997  0.1215 -0.7598  0.1916
 7233TIP3    H143114   6.434   6.236  15.085  0.8714 -1.7144 -0.2952
 7233TIP3    H243115   6.371   6.351  15.010  0.1766 -0.9064  1.4639
 7234TIP3   OH243116   3.090   5.424  12.951  0.5026  0.1349 -0.0013
 7234TIP3    H143117   3.051   5.360  13.011  0.8362  1.2882  1.4947
 7234TIP3    H243118   3.033   5.501  12.957  0.3993  0.2007 -1.3906
 7235TIP3   OH243119   0.473   1.392  13.075 -0.0918  0.0063 -0.1619
 7235TIP3    H143120   0.438   1.480  13.060  1.2153  1.7502  4.9618
 7235TIP3    H243121   0.455   1.374  13.167  0.9385 -4.6230 -0.5892
 7236TIP3   OH243122   2.193   1.771  11.044 -0.5568 -0.6002 -0.2979
 7236TIP3    H143123   2.187   1.853  10.994  0.2242  0.5016  1.3367
 7236TIP3    H243124   2.270   1.727  11.007  0.3920  0.5025  0.3055
 7237TIP3   OH243125   4.494   4.171   4.491  0.1662 -0.3398  0.5851
 7237TIP3    H143126   4.549   4.169   4.412 -0.0803  2.3234  0.2395
 7237TIP3    H243127   4.531   4.243   4.543 -3.0799  1.7757  0.2103
 7238TIP3   OH243128   0.042   3.578  13.619  0.3386 -0.4958  0.0546
 7238TIP3    H143129   0.080   3.653  13.665 -0.9180  1.5448 -1.9953
 7238TIP3    H243130  -0.029   3.548  13.675  1.5705 -0.9616  1.4330
 7239TIP3   OH243131   3.722   2.716  17.016  0.4062 -0.1507  0.3643
 7239TIP3    H143132   3.784   2.652  16.980 -0.0657  0.0722 -0.9126
 7239TIP3    H243133   3.748   2.799  16.975 -2.0149 -0.4139 -1.9719
 7240TIP3   OH243134   4.431   5.346  14.727 -0.0342 -0.1283  0.2336
 7240TIP3    H143135   4.437   5.398  14.807 -1.3182 -1.1064  1.0045
 7240TIP3    H243136   4.515   5.360  14.683  0.0804  1.6718  0.9498
 7241TIP3   OH243137   3.900   2.833   0.719 -0.2703 -0.4169 -0.4489
 7241TIP3    H143138   3.957   2.805   0.648 -1.1670 -0.8862 -1.0131
 7241TIP3    H243139   3.952   2.894   0.770  1.5108 -2.5012  0.3571
 7242TIP3   OH243140   2.600   5.131  16.894  0.0918 -0.7833 -0.2933
 7242TIP3    H143141   2.660   5.076  16.945 -0.8998 -1.4026  0.2285
 7242TIP3    H243142   2.654   5.165  16.823  1.0826 -1.2786  0.2025
 7243TIP3   OH243143   6.101   3.334   2.581  0.3151  0.0363  0.9435
 7243TIP3    H143144   6.089   3.391   2.505  0.2957  1.2790  1.8444
 7243TIP3    H243145   6.158   3.264   2.549  0.1265  0.4084 -0.2705
 7244TIP3   OH243146   4.536   1.496  15.906  0.2806  0.3528 -0.0944
 7244TIP3    H143147   4.556   1.447  15.986 -0.4946  2.1485  1.2772
 7244TIP3    H243148   4.613   1.482  15.850  0.1024 -2.3455  0.1846
 7245TIP3   OH243149   5.074   6.111   3.966 -0.4682 -0.5659  0.6334
 7245TIP3    H143150   5.161   6.136   3.937  0.6038 -2.6103  1.8053
 7245TIP3    H243151   5.071   6.137   4.058 -1.7116  0.8546  0.2261
 7246TIP3   OH243152   5.098   3.524   2.964  0.1899  0.5908  0.5075
 7246TIP3    H143153   5.019   3.569   2.995 -0.4406  0.7323 -1.2083
 7246TIP3    H243154   5.089   3.435   2.998 -1.3280  0.2734 -0.6393
 7247TIP3   OH243155   3.650   6.134  15.770 -0.3068 -0.0667 -0.5106
 7247TIP3    H143156   3.595   6.101  15.699  0.1293  0.0016 -0.8799
 7247TIP3    H243157   3.739   6.133  15.734  0.0007 -0.6087  0.2301
 7248TIP3   OH243158   6.417   1.889  14.273  0.0392  0.2096  0.1412
 7248TIP3    H143159   6.413   1.796  14.250  0.9845  0.0868  0.4300
 7248TIP3    H243160   6.464   1.930  14.200  2.4812 -0.0807  1.4358
 7249TIP3   OH243161   1.453   3.038   3.138 -0.0383 -0.0024 -0.1230
 7249TIP3    H143162   1.498   3.048   3.222 -0.3557 -1.3854  0.2419
 7249TIP3    H243163   1.508   2.978   3.088 -1.4594 -1.8251  0.3824
 7250TIP3   OH243164   4.309   5.306   4.226 -0.0890  0.7665 -0.4975
 7250TIP3    H143165   4.332   5.396   4.203  0.3475  0.8077  0.0886
 7250TIP3    H243166   4.218   5.296   4.196  0.0416  1.2237 -1.0551
 7251TIP3   OH243167   1.701   5.855   4.406  0.7930  0.6369 -0.1706
 7251TIP3    H143168   1.745   5.894   4.331  0.1916  0.4446 -0.6279
 7251TIP3    H243169   1.613   5.834   4.375  0.3930  0.9445  0.7060
 7252TIP3   OH243170   2.800   4.480  14.550 -0.5585 -0.9153 -0.1360
 7252TIP3    H143171   2.831   4.436  14.630 -0.9318 -0.6801  0.1399
 7252TIP3    H243172   2.804   4.412  14.483 -2.3262 -1.7637  0.5395
 7253TIP3   OH243173   2.532   5.227  12.017  0.1798 -0.2948 -0.6868
 7253TIP3    H143174   2.603   5.258  12.073 -0.1435  2.8975 -1.8329
 7253TIP3    H243175   2.559   5.139  11.990  0.8454 -1.5813  3.4697
 7254TIP3   OH243176   3.774   6.544  12.499 -0.1080  0.5498  0.4217
 7254TIP3    H143177   3.824   6.610  12.547  1.1332 -0.0887  0.0256
 7254TIP3    H243178   3.753   6.477  12.564  1.1505 -0.0724  0.2205
 7255TIP3   OH243179   1.072   6.657   3.575 -0.3350  0.7207  0.3880
 7255TIP3    H143180   1.033   6.610   3.502  0.6406 -0.3710  0.5528
 7255TIP3    H243181   0.998   6.674   3.634 -0.9079  0.4846 -0.2553
 7256TIP3   OH243182   5.321   1.349  13.324  0.5461  0.0295  0.4975
 7256TIP3    H143183   5.349   1.438  13.348  0.0832  0.6131 -0.9759
 7256TIP3    H243184   5.316   1.351  13.228 -1.5104 -0.9552  0.5351
 7257TIP3   OH243185   3.723   3.698   0.927  0.3733 -0.1641 -0.4383
 7257TIP3    H143186   3.633   3.678   0.901  0.0319  0.2831  0.3706
 7257TIP3    H243187   3.714   3.754   1.004  1.3410  0.2327 -0.5980
 7258TIP3   OH243188   5.243   4.847   2.778 -0.1938 -0.2180  0.2331
 7258TIP3    H143189   5.203   4.876   2.860 -0.4160 -1.8854  0.7632
 7258TIP3    H243190   5.286   4.764   2.801  1.7446  0.4534 -0.8106
 7259TIP3   OH243191   2.344   0.882  15.514  0.6365  0.7954  0.6565
 7259TIP3    H143192   2.310   0.792  15.512  1.9782  0.2216 -2.2079
 7259TIP3    H243193   2.273   0.934  15.550 -0.4959 -1.2713  1.6106
 7260TIP3   OH243194   6.152   6.000  12.801  0.2490  0.1449 -1.0692
 7260TIP3    H143195   6.235   6.042  12.780 -0.6263  1.4616 -2.0713
 7260TIP3    H243196   6.136   5.942  12.727 -1.4575  2.6738 -2.8618
 7261TIP3   OH243197   3.681   0.847   5.794 -0.2307 -0.3307 -0.2695
 7261TIP3    H143198   3.766   0.856   5.837 -0.6449 -2.6028  1.2427
 7261TIP3    H243199   3.692   0.771   5.737 -0.6920  0.5915 -1.6189
 7262TIP3   OH243200   4.147   6.043  12.925  0.2339  0.0938 -0.0802
 7262TIP3    H143201   4.140   6.120  12.981  0.4222 -0.1303  0.2532
 7262TIP3    H243202   4.086   5.980  12.964  0.6990 -0.2256  0.1435
 7263TIP3   OH243203   6.479   5.077  14.972  0.0582 -0.3714  0.3901
 7263TIP3    H143204   6.497   5.029  15.052  0.3212  1.1369  1.2761
 7263TIP3    H243205   6.477   5.010  14.903  1.8695 -1.4700  1.3367
 7264TIP3   OH243206   3.155   3.871   1.507 -0.3101  0.4522 -0.0886
 7264TIP3    H143207   3.062   3.847   1.513 -0.5268  0.6187 -2.0134
 7264TIP3    H243208   3.157   3.963   1.531 -0.8022  0.6803 -0.8678
 7265TIP3   OH243209   3.116   5.404   3.175  0.5114  0.0728 -0.0472
 7265TIP3    H143210   3.041   5.421   3.119 -0.1461 -1.3760  0.3552
 7265TIP3    H243211   3.083   5.413   3.264  0.6808 -1.0221  0.1421
 7266TIP3   OH243212   5.198   3.606  16.819  0.5273  0.5200 -0.3510
 7266TIP3    H143213   5.225   3.691  16.853  2.3381 -1.3129  3.3996
 7266TIP3    H243214   5.125   3.580  16.875  0.4496 -0.6961 -0.9785
 7267TIP3   OH243215   2.240   6.728  16.865  0.9912  0.1055 -0.6220
 7267TIP3    H143216   2.206   6.817  16.854  1.3858  0.2831 -0.3957
 7267TIP3    H243217   2.307   6.720  16.796  0.3342 -0.3261 -1.2230
 7268TIP3   OH243218   6.707   2.279   0.713  0.0146 -0.5045  0.0665
 7268TIP3    H143219   6.625   2.312   0.676  0.2103 -1.3630 -1.1945
 7268TIP3    H243220   6.681   2.234   0.793 -0.4948  0.8663  0.7126
 7269TIP3   OH243221   2.100   0.172  16.811  0.1454  0.2783 -0.5988
 7269TIP3    H143222   2.135   0.237  16.749 -1.1922  0.7610 -0.8759
 7269TIP3    H243223   2.022   0.213  16.847  1.2559  0.2812  1.9717
 7270TIP3   OH243224   1.756   1.646   2.460  0.4423  0.4629  0.1255
 7270TIP3    H143225   1.677   1.640   2.514  0.3583  0.9398  0.0588
 7270TIP3    H243226   1.723   1.660   2.371  0.6091  1.4024  0.2028
 7271TIP3   OH243227   1.425   1.480   3.742  0.5802  0.2416  0.1967
 7271TIP3    H143228   1.345   1.439   3.708  0.4868  0.3517  0.2811
 7271TIP3    H243229   1.495   1.443   3.689  0.3803  0.8643 -0.5255
 7272TIP3   OH243230   5.190   2.813  12.330 -0.2680  0.2034  0.0655
 7272TIP3    H143231   5.098   2.788  12.337 -0.3610  0.5376  0.0655
 7272TIP3    H243232   5.189   2.909  12.323  0.0407  0.1708 -0.5987
 7273TIP3   OH243233   5.476   3.153  13.208  0.0726 -0.4195 -0.4466
 7273TIP3    H143234   5.415   3.194  13.147 -0.7981 -0.7120  0.2147
 7273TIP3    H243235   5.543   3.114  13.151  0.1922  0.7250 -1.1413
 7274TIP3   OH243236   6.687   2.997   0.746 -0.4347  0.2422 -0.3461
 7274TIP3    H143237   6.755   3.064   0.754 -0.4807  0.1765  0.7898
 7274TIP3    H243238   6.719   2.924   0.800 -0.2110 -0.8156 -1.8506
 7275TIP3   OH243239   5.343   1.476   4.472 -0.4168 -0.4463  0.6356
 7275TIP3    H143240   5.340   1.387   4.439  2.4710  0.0265 -1.3406
 7275TIP3    H243241   5.382   1.468   4.559  1.0386 -1.0690 -0.0427
 7276TIP3   OH243242   3.434   2.859  12.621 -0.3131  0.2756 -0.1098
 7276TIP3    H143243   3.377   2.900  12.556 -1.8177 -1.9870 -0.3217
 7276TIP3    H243244   3.374   2.825  12.688  0.8523 -1.3679  0.1535
 7277TIP3   OH243245   3.654   3.930  15.592  0.5473  0.3123  0.2220
 7277TIP3    H143246   3.690   4.002  15.644  0.6214 -0.0325  0.6485
 7277TIP3    H243247   3.564   3.921  15.623  0.9906 -0.8007  1.2916
 7278TIP3   OH243248   0.129   3.816   4.011 -0.2824 -0.1421 -0.2170
 7278TIP3    H143249   0.149   3.732   3.971 -0.8585 -0.5481  0.3254
 7278TIP3    H243250   0.056   3.851   3.960 -0.0748  0.0074 -0.4123
 7279TIP3   OH243251   2.141   0.271   0.450  0.2531  0.5481 -0.2888
 7279TIP3    H143252   2.177   0.231   0.529  3.5787 -1.7172 -2.6379
 7279TIP3    H243253   2.107   0.197   0.399  1.5682  1.3384 -2.4749
 7280TIP3   OH243254   2.768   4.793   3.264 -0.1449  0.4634  0.5353
 7280TIP3    H143255   2.848   4.741   3.259 -1.2897 -1.3748  0.2517
 7280TIP3    H243256   2.764   4.840   3.181  1.8657  2.5829  1.5408
 7281TIP3   OH243257   3.662   6.336  13.631 -0.1297 -0.1519 -0.2619
 7281TIP3    H143258   3.676   6.425  13.663  1.6330 -0.7908  0.8974
 7281TIP3    H243259   3.605   6.295  13.696 -1.0421  0.1461 -0.8595
 7282TIP3   OH243260   2.734   5.903  16.167  0.3760 -0.0780 -0.3342
 7282TIP3    H143261   2.827   5.914  16.146  0.3401  0.4175 -0.2589
 7282TIP3    H243262   2.697   5.991  16.158 -0.1268 -0.3016 -0.5466
 7283TIP3   OH243263   6.382   3.435   1.140 -0.2122 -0.2605 -0.1576
 7283TIP3    H143264   6.303   3.409   1.093 -0.9332  2.3752 -0.5216
 7283TIP3    H243265   6.351   3.489   1.212  1.2049 -0.1131  0.3896
 7284TIP3   OH243266   6.335   2.067   3.029  0.2826 -0.5707 -0.0658
 7284TIP3    H143267   6.354   1.984   3.073 -1.3524 -1.6048 -1.1918
 7284TIP3    H243268   6.284   2.117   3.092 -1.2996 -1.6830 -0.4063
 7285TIP3   OH243269   2.866   6.497   0.574  0.4225 -0.3549 -0.0012
 7285TIP3    H143270   2.857   6.408   0.610 -1.4523  0.7016  2.3970
 7285TIP3    H243271   2.858   6.554   0.650  1.0962  1.9153 -1.5582
 7286TIP3   OH243272   6.435   1.597  12.593 -0.3271 -0.0492  0.1002
 7286TIP3    H143273   6.401   1.684  12.613  1.9619  0.8577  0.2821
 7286TIP3    H243274   6.363   1.553  12.547 -2.1440  1.2966  1.5328
 7287TIP3   OH243275   0.963   0.656  12.871 -0.1137  1.0224  0.9148
 7287TIP3    H143276   1.046   0.610  12.857 -0.8752  0.2257 -1.4016
 7287TIP3    H243277   0.972   0.737  12.820 -2.0122 -0.7320 -2.4847
 7288TIP3   OH243278   2.045   0.047  15.285  0.0735 -0.2509  0.0467
 7288TIP3    H143279   2.007   0.029  15.199  0.6186  1.5921 -0.6359
 7288TIP3    H243280   1.982   0.108  15.325  1.2228  1.2049 -0.2689
 7289TIP3   OH243281   1.311   5.613   3.351 -0.2608  0.3686  0.0703
 7289TIP3    H143282   1.269   5.693   3.383 -2.0082 -0.7228  0.6504
 7289TIP3    H243283   1.311   5.622   3.256  0.6677  1.5610  0.1575
 7290TIP3   OH243284   2.949   6.454   0.123  0.3358  0.6099 -0.4025
 7290TIP3    H143285   2.995   6.406   0.193  2.3118  0.8839 -1.4298
 7290TIP3    H243286   2.923   6.536   0.165  0.2131  0.1837  0.3906
 7291TIP3   OH243287   6.095   2.432  11.471  0.0481  0.9594  0.2907
 7291TIP3    H143288   6.027   2.390  11.418 -0.6074  2.2701  0.0275
 7291TIP3    H243289   6.177   2.394  11.440 -0.5994 -1.9271  1.7974
 7292TIP3   OH243290   5.311   2.991  14.197  0.1024  0.5404  0.2426
 7292TIP3    H143291   5.244   3.036  14.145  0.1766  0.7754  0.3495
 7292TIP3    H243292   5.394   3.012  14.154  0.0644 -0.1601 -0.1826
 7293TIP3   OH243293   5.948   2.760   4.252  0.1191  0.7978  0.1271
 7293TIP3    H143294   5.970   2.675   4.290 -1.1387 -0.8137 -2.4295
 7293TIP3    H243295   6.029   2.811   4.259  1.1260 -0.8463  1.1310
 7294TIP3   OH243296   5.477   5.256   0.081 -0.4470 -0.4344  0.2209
 7294TIP3    H143297   5.479   5.211  -0.003  2.8868  0.6390 -0.3859
 7294TIP3    H243298   5.523   5.198   0.141  0.1789  0.2932  0.4593
 7295TIP3   OH243299   5.759   0.974  17.215  0.1268 -0.1408 -0.6472
 7295TIP3    H143300   5.776   0.888  17.252 -1.7689  0.2912  1.4101
 7295TIP3    H243301   5.845   1.017  17.211  0.7797 -1.3247  0.3678
 7296TIP3   OH243302   5.572   2.724   5.110  0.1215  0.0432 -0.4956
 7296TIP3    H143303   5.637   2.776   5.157 -0.5965 -1.8123  2.8740
 7296TIP3    H243304   5.494   2.778   5.110 -0.0472 -0.1446  1.1527
 7297TIP3   OH243305   3.851   5.176  11.125 -0.6629  0.1765  0.0643
 7297TIP3    H143306   3.945   5.173  11.105 -0.8691  1.3317 -1.1513
 7297TIP3    H243307   3.822   5.085  11.116  0.0357  0.0559 -1.1485
 7298TIP3   OH243308   2.672   2.029   0.172  0.5781 -0.0563 -0.3578
 7298TIP3    H143309   2.585   1.989   0.167  0.9975 -1.3857  1.6332
 7298TIP3    H243310   2.663   2.099   0.237  0.8282  0.2925 -0.6958
 7299TIP3   OH243311   3.952   3.328   6.546  0.3199  0.1264  0.5674
 7299TIP3    H143312   3.875   3.313   6.491 -1.4940 -1.9671  3.4410
 7299TIP3    H243313   3.944   3.420   6.574 -0.9568  0.0217  0.5705
 7300TIP3   OH243314   0.707   5.254  13.805 -0.5694 -0.4822  0.0818
 7300TIP3    H143315   0.768   5.301  13.862 -0.9408 -1.2411  1.1179
 7300TIP3    H243316   0.736   5.163  13.808 -0.6135 -0.5449 -0.9310
 7301TIP3   OH243317   1.629   0.360   2.434  0.0729  0.3753  0.3838
 7301TIP3    H143318   1.648   0.313   2.515  0.3922  1.0617  0.7124
 7301TIP3    H243319   1.555   0.313   2.396 -0.9581  0.8389  1.7424
 7302TIP3   OH243320   3.693   4.007  17.090  0.5505  0.2594 -0.0704
 7302TIP3    H143321   3.761   3.940  17.078  0.8709  0.8217 -1.6989
 7302TIP3    H243322   3.668   4.001  17.182  1.1074 -1.5853 -0.0086
 7303TIP3   OH243323   6.649   1.973  11.325  0.0103  0.1842  0.0237
 7303TIP3    H143324   6.654   2.052  11.378 -1.6226 -0.6975  1.6129
 7303TIP3    H243325   6.567   1.931  11.352  1.0887 -2.3233 -0.3498
 7304TIP3   OH243326   3.852   5.674  11.228  0.1166 -0.6557  0.7955
 7304TIP3    H143327   3.843   5.662  11.322  1.7087  0.3726  1.1089
 7304TIP3    H243328   3.845   5.586  11.192 -0.7400 -1.0368  1.8287
 7305TIP3   OH243329   0.211   4.368   1.598 -0.4781  0.3047  0.2375
 7305TIP3    H143330   0.177   4.397   1.683 -1.1871 -1.8008  0.7259
 7305TIP3    H243331   0.305   4.387   1.603 -0.5652  0.5256  1.3453
 7306TIP3   OH243332   2.895   0.328   0.336  0.1949 -0.0470 -0.3685
 7306TIP3    H143333   2.904   0.235   0.360 -0.5519  0.2382  1.1764
 7306TIP3    H243334   2.960   0.373   0.389 -0.0366  0.4038 -0.4610
 7307TIP3   OH243335   4.350   3.911  13.859 -0.5547  0.0934 -0.3024
 7307TIP3    H143336   4.283   3.943  13.921  0.1718  0.2464  0.4206
 7307TIP3    H243337   4.301   3.858  13.797 -1.5732  1.3525 -0.6310
 7308TIP3   OH243338   4.043   4.739  15.217  0.2823  0.0421  0.3002
 7308TIP3    H143339   4.130   4.778  15.212  1.0733 -1.6932 -0.7685
 7308TIP3    H243340   4.042   4.692  15.300 -0.3272  1.4771  1.1439
 7309TIP3   OH243341   3.347   6.412   0.280  0.4791 -0.0450  0.4153
 7309TIP3    H143342   3.324   6.329   0.236 -0.4993  0.5233 -0.1889
 7309TIP3    H243343   3.276   6.426   0.342  0.8232  0.1710  0.7584
 7310TIP3   OH243344   1.550   0.073   6.026  0.2532 -0.1651  0.1385
 7310TIP3    H143345   1.563  -0.010   6.072 -0.7731  0.3593  1.4629
 7310TIP3    H243346   1.609   0.134   6.069  0.9224 -0.1709 -0.7556
 7311TIP3   OH243347   1.026   4.591   2.651  0.2898  0.0346 -0.9678
 7311TIP3    H143348   1.022   4.656   2.580  0.5190  0.7150 -0.3684
 7311TIP3    H243349   0.946   4.540   2.641 -0.9537  1.7471 -0.1855
 7312TIP3   OH243350   0.050   2.326   3.525 -0.2711  0.5355  0.1230
 7312TIP3    H143351   0.083   2.406   3.565  0.7677 -0.1514  0.6620
 7312TIP3    H243352  -0.037   2.350   3.492 -0.7724  1.3723  1.9531
 7313TIP3   OH243353   6.731   6.514  12.996  0.2382  0.6246 -0.4272
 7313TIP3    H143354   6.741   6.458  13.074 -0.4368  1.0747 -0.0106
 7313TIP3    H243355   6.745   6.603  13.028  1.6510  0.6963 -1.1539
 7314TIP3   OH243356   2.102   0.952   3.236 -0.0023 -0.2070  0.6913
 7314TIP3    H143357   2.118   0.950   3.141 -0.6462  0.5893  0.5429
 7314TIP3    H243358   2.169   1.011   3.270 -1.6584  2.0682  0.2561
 7315TIP3   OH243359   1.150   5.798  16.173  0.0526  0.5155  0.2540
 7315TIP3    H143360   1.102   5.739  16.115 -1.4877  0.6391  1.3222
 7315TIP3    H243361   1.237   5.805  16.134  0.2135 -2.2141 -0.0849
 7316TIP3   OH243362   1.216   3.124  13.066 -0.9801  0.4362 -0.0341
 7316TIP3    H143363   1.158   3.200  13.063 -0.5010  0.9581  2.1409
 7316TIP3    H243364   1.187   3.068  12.994 -1.0759  2.8348 -1.9538
 7317TIP3   OH243365   4.381   1.850   3.653  0.0266 -0.1479  0.0093
 7317TIP3    H143366   4.364   1.815   3.740 -1.3570 -0.4985 -0.3874
 7317TIP3    H243367   4.318   1.921   3.642  0.8288  0.5384 -0.3542
 7318TIP3   OH243368   1.825   4.866  11.735  0.4857 -0.7694 -0.2504
 7318TIP3    H143369   1.841   4.844  11.643  1.1913 -1.8902  0.1201
 7318TIP3    H243370   1.901   4.831  11.782  0.3486  0.1758  0.7152
 7319TIP3   OH243371   6.577   0.857   5.251 -0.6544 -0.1369  0.1825
 7319TIP3    H143372   6.529   0.903   5.181 -0.5757  0.5628  0.5816
 7319TIP3    H243373   6.669   0.872   5.231 -0.6340  1.2417  1.1828
 7320TIP3   OH243374   1.515   4.870   4.165 -0.1687  0.1014  0.2491
 7320TIP3    H143375   1.497   4.946   4.221 -1.7469  0.9663 -1.3327
 7320TIP3    H243376   1.563   4.907   4.091 -0.9998 -0.4390 -0.5674
 7321TIP3   OH243377   4.015   3.741   0.440  0.2661  0.6212 -0.1062
 7321TIP3    H143378   3.969   3.804   0.495 -0.1890 -0.5780  0.9311
 7321TIP3    H243379   4.002   3.774   0.351 -0.7085  1.5063  0.3332
 7322TIP3   OH243380   1.202   1.731   3.311 -0.2928 -0.0279 -0.2220
 7322TIP3    H143381   1.285   1.720   3.357 -1.4237 -1.1339  1.7058
 7322TIP3    H243382   1.226   1.758   3.223  2.0934 -0.2378  0.3104
 7323TIP3   OH243383   0.367   0.186   0.439 -0.1124  0.1440  0.2455
 7323TIP3    H143384   0.313   0.119   0.480 -1.1510  0.8997  0.1645
 7323TIP3    H243385   0.441   0.197   0.499  1.1470 -2.4232 -0.7116
 7324TIP3   OH243386   6.407   3.386  11.619 -0.3762  0.4813  0.0439
 7324TIP3    H143387   6.480   3.348  11.570  0.3811 -0.6179  1.8831
 7324TIP3    H243388   6.429   3.479  11.628  1.1192  0.0814  0.9900
 7325TIP3   OH243389   6.502   1.131   0.741 -0.0129  0.1775 -0.0202
 7325TIP3    H143390   6.490   1.108   0.833  1.3532 -0.6867 -0.0163
 7325TIP3    H243391   6.591   1.101   0.720 -0.5770 -0.3851 -1.8449
 7326TIP3   OH243392   4.827   6.569   4.046 -0.4648 -0.1928 -0.4643
 7326TIP3    H143393   4.880   6.553   3.968  1.0069 -0.3973  0.5384
 7326TIP3    H243394   4.846   6.660   4.070  1.0814 -0.8577  1.0519
 7327TIP3   OH243395   1.523   0.353  11.963 -0.7264  0.0410 -0.2914
 7327TIP3    H143396   1.480   0.401  11.892 -1.1031  0.5852  0.2922
 7327TIP3    H243397   1.602   0.317  11.923 -1.7309 -1.0211 -1.3972
 7328TIP3   OH243398   0.539   5.606  11.811  0.2665  0.3631 -0.4222
 7328TIP3    H143399   0.552   5.566  11.725  1.4734  0.3816 -0.2688
 7328TIP3    H243400   0.568   5.696  11.801 -0.3039  0.5825 -0.1810
 7329TIP3   OH243401   2.992   1.475  12.506  0.1190  0.5938 -0.6693
 7329TIP3    H143402   2.925   1.460  12.440  1.0907 -0.7647 -1.4138
 7329TIP3    H243403   3.045   1.546  12.472  0.6289 -0.1177 -1.3855
 7330TIP3   OH243404   2.140   2.643  13.836 -0.5128 -0.0669 -0.5100
 7330TIP3    H143405   2.231   2.667  13.852 -1.1742  1.2259  1.7177
 7330TIP3    H243406   2.107   2.714  13.780 -0.7707  0.8866  0.7929
 7331TIP3   OH243407   1.754   0.711  13.604  0.5222  0.3287 -0.0703
 7331TIP3    H143408   1.743   0.741  13.513  0.6088  1.9945  0.4322
 7331TIP3    H243409   1.841   0.743  13.629  0.7040 -0.5510  0.4454
 7332TIP3   OH243410   2.270   4.640  14.893  0.1634 -0.0272 -0.3769
 7332TIP3    H143411   2.294   4.557  14.852 -0.9688  0.0045 -1.1421
 7332TIP3    H243412   2.267   4.620  14.987  0.5911 -0.6705 -0.4947
 7333TIP3   OH243413   0.316   4.531  13.186 -0.3235  0.0819  0.3745
 7333TIP3    H143414   0.316   4.439  13.158  2.4137  0.2717 -0.5708
 7333TIP3    H243415   0.302   4.580  13.105  0.2978  0.5098  0.5201
 7334TIP3   OH243416   1.927   2.780   4.391 -0.1186 -0.4784  0.3947
 7334TIP3    H143417   1.846   2.780   4.441  0.0056  0.2681  0.6227
 7334TIP3    H243418   1.908   2.835   4.314  0.8243  1.7129  1.6274
 7335TIP3   OH243419   3.493   2.749   5.329 -0.2282  0.5772  0.2991
 7335TIP3    H143420   3.514   2.843   5.326 -3.2175  1.3298 -1.3759
 7335TIP3    H243421   3.456   2.736   5.416  4.6752 -0.3897  2.5915
 7336TIP3   OH243422   6.384   6.374  14.514  0.4693  0.7306  0.0370
 7336TIP3    H143423   6.366   6.281  14.503  1.3009  0.5534  0.1104
 7336TIP3    H243424   6.430   6.380  14.597  0.0622  1.2595  0.2301
 7337TIP3   OH243425   1.413   2.085   4.503 -0.5316  0.0796 -0.2626
 7337TIP3    H143426   1.495   2.048   4.471  0.5596  0.4752  1.8642
 7337TIP3    H243427   1.396   2.159   4.444  2.5074  2.1057  1.1055
 7338TIP3   OH243428   2.960   5.496   1.324 -0.6409 -0.4905 -0.5690
 7338TIP3    H143429   2.906   5.510   1.246  0.7341 -0.6719 -1.6071
 7338TIP3    H243430   3.047   5.527   1.298 -0.4024  0.5641  1.3174
 7339TIP3   OH243431   5.340   0.590   1.869 -0.4172  0.4287  0.1495
 7339TIP3    H143432   5.346   0.533   1.946  0.8315  0.4498  0.0761
 7339TIP3    H243433   5.347   0.679   1.905 -4.7316  0.8337  0.5776
 7340TIP3   OH243434   6.393   4.090   3.680  0.3014  0.2938 -0.0957
 7340TIP3    H143435   6.442   4.104   3.599  0.4611  0.5841  0.0520
 7340TIP3    H243436   6.407   3.997   3.700  0.3663  0.2516 -0.3310
 7341TIP3   OH243437   2.465   4.621   5.539 -0.1839 -0.1614 -0.2778
 7341TIP3    H143438   2.384   4.603   5.586 -0.1153 -1.2717 -0.5597
 7341TIP3    H243439   2.532   4.624   5.608 -0.7137  2.8319  0.2139
 7342TIP3   OH243440   4.740   2.044  16.129  0.0089 -0.1759  0.2913
 7342TIP3    H143441   4.830   2.010  16.133 -0.4523 -1.3314  1.5844
 7342TIP3    H243442   4.687   1.968  16.105 -0.6115  0.5529 -0.6951
 7343TIP3   OH243443   3.699   4.735  12.866 -0.1629 -0.0640 -0.0478
 7343TIP3    H143444   3.778   4.739  12.811 -0.8997 -1.1102 -1.2527
 7343TIP3    H243445   3.635   4.788  12.819 -0.4484  0.0242  0.4453
 7344TIP3   OH243446   3.939   4.096   1.159  0.1189 -0.1178  0.4219
 7344TIP3    H143447   3.982   4.179   1.178  2.2750 -0.9956 -0.2304
 7344TIP3    H243448   4.004   4.030   1.183  0.3956 -1.4915 -3.3619
 7345TIP3   OH243449   3.158   6.692  14.339  0.3546  0.2525 -0.3906
 7345TIP3    H143450   3.144   6.718  14.248  0.5137 -0.9085 -0.7716
 7345TIP3    H243451   3.250   6.665  14.342  0.6080  1.1827  0.3557
 7346TIP3   OH243452   6.658   4.343   4.849 -0.3869  0.0020  1.1303
 7346TIP3    H143453   6.668   4.269   4.788 -0.2029  0.1643  0.9610
 7346TIP3    H243454   6.577   4.386   4.821 -0.0556  0.3590  0.6875
 7347TIP3   OH243455   4.106   0.439  13.470 -0.4582  0.1268  0.3392
 7347TIP3    H143456   4.029   0.478  13.430 -0.4133 -1.8192 -1.8739
 7347TIP3    H243457   4.079   0.350  13.493  0.4224  0.2331  1.9356
 7348TIP3   OH243458   6.357   0.749   0.999 -0.2061  0.3981  0.4901
 7348TIP3    H143459   6.369   0.844   1.006 -0.6303  0.4511  0.5268
 7348TIP3    H243460   6.385   0.715   1.084 -0.0295  0.4880  0.4685
 7349TIP3   OH243461   0.536   1.486   0.035 -0.3122  0.1000 -0.7907
 7349TIP3    H143462   0.624   1.451   0.046  0.1338  1.4513  0.1844
 7349TIP3    H243463   0.530   1.557   0.099 -1.9127  0.4134 -1.2418
 7350TIP3   OH243464   3.104   3.224  13.650 -0.2829  0.2008  0.3013
 7350TIP3    H143465   3.024   3.173  13.635 -0.4682  0.7538 -0.7427
 7350TIP3    H243466   3.118   3.270  13.567  0.5695  0.8802  0.8079
 7351TIP3   OH243467   1.403   2.893   1.846 -0.4284 -0.0703 -0.2297
 7351TIP3    H143468   1.311   2.873   1.860  0.0838 -0.9179  2.4969
 7351TIP3    H243469   1.438   2.913   1.933  1.7875  1.0675 -1.2846
 7352TIP3   OH243470   6.562   3.699  15.899  0.3392  0.0329 -0.3327
 7352TIP3    H143471   6.544   3.792  15.891 -1.7904 -0.1783  1.2296
 7352TIP3    H243472   6.496   3.657  15.844 -0.1239 -0.6011  0.6782
 7353TIP3   OH243473   3.424   5.239  11.931 -0.3110  0.2150  0.9153
 7353TIP3    H143474   3.486   5.204  11.868 -1.3408  0.9427 -0.5577
 7353TIP3    H243475   3.411   5.168  11.994  0.4406 -0.6804  0.0854
 7354TIP3   OH243476   4.537   4.520  12.818  0.1691  0.4651 -0.0941
 7354TIP3    H143477   4.623   4.558  12.799  0.7917 -0.3916  0.9309
 7354TIP3    H243478   4.551   4.426  12.818 -1.2894  0.1751 -2.2385
 7355TIP3   OH243479   1.451   6.582   2.685 -0.8615 -0.0339  0.2233
 7355TIP3    H143480   1.457   6.666   2.731  2.4386  0.5530 -1.0019
 7355TIP3    H243481   1.515   6.526   2.730  0.0629 -0.4784 -1.5790
 7356TIP3   OH243482   4.545   2.377  13.386 -0.2991 -0.1956  0.0155
 7356TIP3    H143483   4.632   2.373  13.346 -1.3872 -0.0399 -2.5543
 7356TIP3    H243484   4.507   2.459  13.353 -1.6979 -0.6180  0.5008
 7357TIP3   OH243485   3.101   4.761   4.826  0.0958 -0.3480 -0.2549
 7357TIP3    H143486   3.115   4.668   4.842 -0.0626  0.0324  2.4802
 7357TIP3    H243487   3.147   4.805   4.897 -0.2446  1.6774 -1.2085
 7358TIP3   OH243488   6.261   0.575  16.818 -0.1216 -0.0100 -0.1319
 7358TIP3    H143489   6.225   0.517  16.751  0.6156  0.2359 -0.7573
 7358TIP3    H243490   6.279   0.517  16.893 -1.1180 -0.2549 -0.0653
 7359TIP3   OH243491   0.255   3.418   1.169 -0.4511  0.7989  0.2385
 7359TIP3    H143492   0.223   3.394   1.082 -0.8814  1.4410  0.2049
 7359TIP3    H243493   0.185   3.472   1.205  0.0179  1.0942  0.7190
 7360TIP3   OH243494   4.321   3.547  12.036 -0.0697 -0.2171  0.1157
 7360TIP3    H143495   4.261   3.473  12.036  1.4985 -1.5658  0.5451
 7360TIP3    H243496   4.271   3.619  11.999 -1.8747 -1.3032  0.3125
 7361TIP3   OH243497   3.614   0.166   0.111  0.6319  0.0539  0.3219
 7361TIP3    H143498   3.702   0.199   0.130  0.7289 -0.4219  0.7138
 7361TIP3    H243499   3.556   0.238   0.136  0.9412  0.6727 -0.6670
 7362TIP3   OH243500   2.463   2.003  13.545  0.5740 -0.4044 -0.1776
 7362TIP3    H143501   2.508   1.920  13.529  0.4963 -0.3597 -0.6654
 7362TIP3    H243502   2.523   2.053  13.600  0.5120 -0.8807  0.3279
 7363TIP3   OH243503   6.638   3.748  13.347 -0.4957 -0.0140  0.3052
 7363TIP3    H143504   6.560   3.801  13.361 -0.0100  0.2302  2.5217
 7363TIP3    H243505   6.710   3.802  13.381  0.2715 -1.2870  0.7753
 7364TIP3   OH243506   1.775   2.321  12.852 -0.5483  0.3324  0.0230
 7364TIP3    H143507   1.869   2.336  12.850 -0.6828  1.2522 -0.1758
 7364TIP3    H243508   1.763   2.247  12.911  0.3435 -0.1911 -0.4271
 7365TIP3   OH243509   2.948   0.805  14.135  0.0863  0.3870 -0.1863
 7365TIP3    H143510   3.002   0.795  14.057 -0.1170 -1.4158 -0.1544
 7365TIP3    H243511   2.995   0.867  14.190  0.9297  0.6254 -1.1451
 7366TIP3   OH243512   3.591   4.805  14.364  0.0112 -0.0082 -0.5202
 7366TIP3    H143513   3.538   4.731  14.333  0.1015 -0.5048  0.4504
 7366TIP3    H243514   3.633   4.772  14.444  0.5416  0.8954 -0.4133
 7367TIP3   OH243515   4.035   4.101  13.990  0.3098 -0.0552  0.2901
 7367TIP3    H143516   4.067   4.172  14.045  1.6661 -1.4130  1.3258
 7367TIP3    H243517   3.963   4.063  14.039  0.3914 -0.1839  0.3091
 7368TIP3   OH243518   6.105   0.135  15.049  0.1041 -0.2267 -0.4984
 7368TIP3    H143519   6.172   0.131  15.118  0.4593 -0.1278 -0.8320
 7368TIP3    H243520   6.042   0.068  15.074 -1.0833  1.4485  1.2499
 7369TIP3   OH243521   1.520   4.328   5.720  0.2351  0.4815  0.0513
 7369TIP3    H143522   1.441   4.377   5.737  0.6380  2.0965 -2.2449
 7369TIP3    H243523   1.497   4.268   5.650  0.2452 -1.4128  1.5795
 7370TIP3   OH243524   0.408   2.220   1.402 -0.6535 -0.0096  0.4226
 7370TIP3    H143525   0.426   2.185   1.315 -0.2217 -0.5245  0.7105
 7370TIP3    H243526   0.419   2.145   1.460  1.0117  0.7205  1.1350
 7371TIP3   OH243527   3.945   3.423   0.105 -0.0021  0.5932  0.7074
 7371TIP3    H143528   3.866   3.419   0.159 -0.9702  2.1505 -0.5159
 7371TIP3    H243529   3.948   3.513   0.072  1.6071  0.2286 -0.2732
 7372TIP3   OH243530   3.004   5.914   5.914 -0.7207 -0.8008 -0.3335
 7372TIP3    H143531   3.093   5.885   5.936  0.3200  0.7328 -2.2550
 7372TIP3    H243532   2.953   5.832   5.912  0.6035 -1.7121  0.8168
 7373TIP3   OH243533   6.632   5.183  14.608  0.0588  0.5346  0.2658
 7373TIP3    H143534   6.724   5.172  14.583 -0.2146 -1.7398 -0.0145
 7373TIP3    H243535   6.588   5.110  14.564 -2.1606  2.4500 -0.8882
 7374TIP3   OH243536   3.296   2.558  13.815  0.3525  0.1789 -0.5317
 7374TIP3    H143537   3.383   2.584  13.783  0.9160 -0.8928  0.1067
 7374TIP3    H243538   3.304   2.558  13.910 -0.5698  0.7739 -0.4421
 7375TIP3   OH243539   0.845   6.712   4.018 -0.3936 -0.1558  0.1717
 7375TIP3    H143540   0.831   6.734   3.926  0.6123 -1.1909 -0.2422
 7375TIP3    H243541   0.933   6.744   4.038 -0.6395  0.1472  0.8098
 7376TIP3   OH243542   6.632   0.241  12.213  0.2173  0.3224 -0.1165
 7376TIP3    H143543   6.644   0.191  12.132  0.8608 -0.9843  0.7534
 7376TIP3    H243544   6.659   0.181  12.282 -0.1247  1.4895  1.0617
 7377TIP3   OH243545   0.871   2.736  16.453 -0.0760  0.2350 -1.3082
 7377TIP3    H143546   0.842   2.652  16.488 -0.9065  0.1674 -2.1273
 7377TIP3    H243547   0.792   2.789  16.448  0.4330  1.0650 -0.8384
 7378TIP3   OH243548   5.540   6.644  12.284 -0.2962 -0.2295  0.5564
 7378TIP3    H143549   5.466   6.668  12.228  0.5244  0.4098 -0.2779
 7378TIP3    H243550   5.616   6.652  12.228  0.6892  1.5127  2.0270
 7379TIP3   OH243551   1.796   1.960   3.089  0.3252 -0.4631 -0.1303
 7379TIP3    H143552   1.701   1.948   3.096 -0.1181  2.2441 -0.3284
 7379TIP3    H243553   1.828   1.950   3.179 -0.2238 -0.7900  0.0348
 7380TIP3   OH243554   5.919   6.689  13.766  0.3336  0.5879  0.5400
 7380TIP3    H143555   5.901   6.780  13.744  0.1225  0.5675  0.6234
 7380TIP3    H243556   5.887   6.680  13.856  1.1697  0.6688  0.8573
 7381TIP3   OH243557   5.839   1.835   0.992  0.1089 -0.3873  0.3136
 7381TIP3    H143558   5.772   1.885   0.944  1.8539  1.9821  0.1938
 7381TIP3    H243559   5.789   1.780   1.052 -1.9632  0.6130 -0.4027
 7382TIP3   OH243560   4.329   5.000  17.218 -0.5719  0.1318  0.1508
 7382TIP3    H143561   4.370   4.916  17.236 -1.7285 -0.1518  1.7248
 7382TIP3    H243562   4.343   5.014  17.125  1.4885 -0.7730  0.2607
 7383TIP3   OH243563   1.951   5.496  11.376 -0.7267 -0.5673  0.0639
 7383TIP3    H143564   2.033   5.516  11.331 -1.0980 -0.9421 -0.7880
 7383TIP3    H243565   1.884   5.545  11.327 -0.7861  1.4903  2.0087
 7384TIP3   OH243566   6.722   4.614  16.293 -0.0830 -0.4284  0.6537
 7384TIP3    H143567   6.655   4.597  16.228  0.8961  0.0163 -0.5088
 7384TIP3    H243568   6.680   4.673  16.356 -0.9039 -0.4829  0.1684
 7385TIP3   OH243569   0.684   5.474  16.208 -0.5527 -1.0903  0.0139
 7385TIP3    H143570   0.683   5.523  16.126 -1.0058 -0.0094  0.6349
 7385TIP3    H243571   0.592   5.453  16.225 -0.8078  0.8106  1.4056
 7386TIP3   OH243572   0.385   3.713  13.488 -0.2295  0.2965  0.0826
 7386TIP3    H143573   0.415   3.703  13.579 -1.3407 -1.4478  0.3154
 7386TIP3    H243574   0.425   3.639  13.442 -1.0830  0.1391 -0.4318
 7387TIP3   OH243575   2.080   3.539  11.933 -0.4190 -0.6237 -0.0514
 7387TIP3    H143576   2.024   3.485  11.990  0.3239 -0.3632  0.9568
 7387TIP3    H243577   2.054   3.515  11.844 -1.2495 -1.4320  0.3903
 7388TIP3   OH243578   4.455   6.319  14.481  0.3053 -0.1426  0.0084
 7388TIP3    H143579   4.512   6.324  14.404 -1.1056  0.2303 -1.0649
 7388TIP3    H243580   4.408   6.402  14.481  0.4583 -0.0362  1.4449
 7389TIP3   OH243581   6.230   2.962   3.809 -0.1786 -0.5133  0.2816
 7389TIP3    H143582   6.294   2.997   3.871  1.9080  0.4488 -2.2280
 7389TIP3    H243583   6.168   3.034   3.797 -1.6190 -1.3156  2.4439
 7390TIP3   OH243584   6.131   3.843  13.048  0.2070 -0.2235  0.1047
 7390TIP3    H143585   6.078   3.916  13.081  0.2764 -0.7285  1.4142
 7390TIP3    H243586   6.194   3.827  13.118  1.6232 -0.1337 -1.1003
 7391TIP3   OH243587   6.602   2.395  14.466 -0.1757  0.4490  0.5871
 7391TIP3    H143588   6.583   2.464  14.402  0.0544  0.4005  0.4661
 7391TIP3    H243589   6.522   2.342  14.467  0.3587 -0.4325 -0.7939
 7392TIP3   OH243590   3.081   1.863   2.407  0.0258 -0.0897 -0.2965
 7392TIP3    H143591   3.099   1.797   2.341  0.5647 -1.5401  1.2277
 7392TIP3    H243592   2.990   1.845   2.434 -0.3429  0.7726 -0.9029
 7393TIP3   OH243593   5.301   2.264  13.385  0.7056 -0.6338 -0.6718
 7393TIP3    H143594   5.297   2.203  13.311  0.0467  0.5552 -1.6647
 7393TIP3    H243595   5.386   2.308  13.374  0.0304  0.5218 -1.5863
 7394TIP3   OH243596   5.681   5.904  11.131 -0.6398  0.5750  0.3242
 7394TIP3    H143597   5.636   5.863  11.205 -3.7814  2.7980 -0.1766
 7394TIP3    H243598   5.644   5.861  11.054  0.8415 -0.0465 -0.0831
 7395TIP3   OH243599   5.069   3.262   3.496  0.0420 -0.1034 -0.1404
 7395TIP3    H143600   5.107   3.269   3.584 -0.4642 -0.6887  0.1324
 7395TIP3    H243601   5.064   3.168   3.480  1.5658 -0.0070 -1.4397
 7396TIP3   OH243602   2.819   4.567  11.777  0.4869  0.4917 -0.2123
 7396TIP3    H143603   2.871   4.628  11.726 -1.2839  1.2994 -1.1400
 7396TIP3    H243604   2.729   4.598  11.768 -0.1597 -0.6631  1.5674
 7397TIP3   OH243605   6.303   5.524  10.708 -0.0804  0.1552  0.6020
 7397TIP3    H143606   6.267   5.599  10.661  0.8237 -0.6536 -1.4594
 7397TIP3    H243607   6.230   5.462  10.713  0.1717 -0.3047 -1.0015
 7398TIP3   OH243608   4.277   4.578  11.975 -0.3076  0.4893 -0.1291
 7398TIP3    H143609   4.226   4.660  11.977 -1.2523 -0.0478  2.9196
 7398TIP3    H243610   4.362   4.602  12.011 -0.9325  0.0044  1.7772
 7399TIP3   OH243611   2.520   5.941   2.552  0.0305 -0.3072 -0.4063
 7399TIP3    H143612   2.595   5.889   2.581  0.0703 -0.0923 -0.1254
 7399TIP3    H243613   2.482   5.890   2.480 -0.3264 -1.0613  0.2911
 7400TIP3   OH243614   6.521   4.915  11.624  0.1667  0.6275  0.2467
 7400TIP3    H143615   6.543   4.946  11.712 -0.0495  0.4754  0.3552
 7400TIP3    H243616   6.427   4.933  11.615  0.4235  1.7513 -0.4134
 7401TIP3   OH243617   2.260   4.140   3.755  0.2417 -0.0142 -0.2662
 7401TIP3    H143618   2.172   4.105   3.745 -0.4482  1.2044  1.2309
 7401TIP3    H243619   2.308   4.106   3.679 -1.7715  0.1073 -1.6620
 7402TIP3   OH243620   2.100   5.673  11.882  0.0661 -0.2883  0.5131
 7402TIP3    H143621   2.014   5.708  11.905 -0.0484 -0.9112  1.0662
 7402TIP3    H243622   2.118   5.709  11.795 -0.7249 -0.1041  0.4169
 7403TIP3   OH243623   5.173   2.976   3.113  0.0173 -0.2422 -0.0021
 7403TIP3    H143624   5.209   2.894   3.078 -1.3927 -0.4652 -1.0063
 7403TIP3    H243625   5.240   3.042   3.093 -0.1320 -0.6217 -1.9340
 7404TIP3   OH243626   5.485   2.546   2.668  0.2801 -0.2627 -0.8678
 7404TIP3    H143627   5.544   2.573   2.738 -0.8672  1.7280 -0.5909
 7404TIP3    H243628   5.493   2.451   2.665  1.7111 -0.2376  0.7420
 7405TIP3   OH243629   1.809   6.524   4.315  0.2305  0.0277  0.1093
 7405TIP3    H143630   1.751   6.457   4.352  0.0987 -0.6823 -1.3218
 7405TIP3    H243631   1.867   6.476   4.255  1.2335  0.9649  0.2793
 7406TIP3   OH243632   2.257   1.542  14.298  0.1947  0.0755 -0.2058
 7406TIP3    H143633   2.175   1.495  14.280 -0.3041  0.7202  0.3566
 7406TIP3    H243634   2.321   1.473  14.314 -0.4125 -0.4280  0.0882
 7407TIP3   OH243635   6.522   4.424   0.565 -0.2964  0.1049 -0.0099
 7407TIP3    H143636   6.542   4.484   0.493 -0.8584  0.0507 -0.2255
 7407TIP3    H243637   6.436   4.453   0.596 -0.5579 -0.5540 -0.0956
 7408TIP3   OH243638   0.292   4.916  16.665  0.4610  0.0818 -0.4487
 7408TIP3    H143639   0.271   4.855  16.594  1.3439  0.4085 -1.0138
 7408TIP3    H243640   0.212   4.921  16.717  0.3693 -1.5425 -0.3910
 7409TIP3   OH243641   4.313   5.228  16.753 -0.7006  0.2895 -0.2980
 7409TIP3    H143642   4.356   5.185  16.827 -2.6738  0.7483  1.1883
 7409TIP3    H243643   4.363   5.309  16.740 -0.6801  0.4903  0.9420
 7410TIP3   OH243644   1.632   6.468  12.386 -0.2305 -0.3859 -0.1637
 7410TIP3    H143645   1.559   6.459  12.448  1.3657 -1.5829  1.6408
 7410TIP3    H243646   1.607   6.413  12.312 -0.8650 -1.3621  0.7404
 7411TIP3   OH243647   6.379   1.258  14.071 -0.1747 -0.0924 -0.3288
 7411TIP3    H143648   6.302   1.210  14.100 -0.7449  1.0284  0.0898
 7411TIP3    H243649   6.348   1.312  13.998 -0.3850  1.9866  1.1879
 7412TIP3   OH243650   4.735   3.297  16.006  0.3401  0.0279 -0.6055
 7412TIP3    H143651   4.783   3.238  15.948  1.1569  1.7114 -1.7298
 7412TIP3    H243652   4.779   3.290  16.090  1.5519  0.3192 -1.1929
 7413TIP3   OH243653   0.349   5.453  14.711 -0.1138  0.4908  0.2657
 7413TIP3    H143654   0.322   5.526  14.766 -0.2037  0.8512 -0.2485
 7413TIP3    H243655   0.436   5.477  14.680 -0.0683  0.2956  0.2426
 7414TIP3   OH243656   3.396   5.051  13.571 -0.0845  0.2196 -0.1596
 7414TIP3    H143657   3.467   5.115  13.563  0.1113 -0.0578 -0.7385
 7414TIP3    H243658   3.436   4.968  13.544 -0.2360 -0.2200  0.9484
 7415TIP3   OH243659   2.292   3.222   5.268  0.0860 -0.6084 -0.3323
 7415TIP3    H143660   2.331   3.263   5.191 -2.2055  1.1460 -0.6919
 7415TIP3    H243661   2.231   3.157   5.232  1.2039 -1.9815  0.1530
 7416TIP3   OH243662   4.284   5.446  11.022 -0.0854 -0.0895  0.0746
 7416TIP3    H143663   4.315   5.536  11.019 -1.1719  0.3362  0.6505
 7416TIP3    H243664   4.352   5.398  11.070  0.9356  0.2113 -1.0355
 7417TIP3   OH243665   2.224   4.393  17.223  0.2022  0.4625 -0.0879
 7417TIP3    H143666   2.259   4.356  17.142 -2.4423 -0.2251 -1.0210
 7417TIP3    H243667   2.294   4.449  17.256  2.3583 -1.2461 -1.4401
 7418TIP3   OH243668   5.783   5.968  15.131  0.2432  0.2096 -0.2301
 7418TIP3    H143669   5.824   6.034  15.186  0.5567 -1.2003  1.3153
 7418TIP3    H243670   5.692   5.965  15.159  0.5552 -0.9879  0.7758
 7419TIP3   OH243671   4.564   2.805  13.769  0.4160  0.3336 -0.3916
 7419TIP3    H143672   4.520   2.737  13.819  1.4277 -0.1194 -0.0834
 7419TIP3    H243673   4.606   2.860  13.835  1.4826 -0.0754 -0.7073
 7420TIP3   OH243674   1.994   3.103  13.739 -0.0535 -0.2675 -0.1956
 7420TIP3    H143675   2.077   3.118  13.694  0.7271  1.9971  1.7589
 7420TIP3    H243676   1.966   3.191  13.767 -0.5557 -1.3971  3.3934
 7421TIP3   OH243677   2.117   6.270  12.370 -0.4706  0.1757 -0.8547
 7421TIP3    H143678   2.116   6.281  12.275  0.8224  0.7195 -0.8243
 7421TIP3    H243679   2.209   6.251  12.391 -0.6873  0.3464  0.3140
 7422TIP3   OH243680   2.356   3.534  13.259 -0.3128 -0.1724 -0.0412
 7422TIP3    H143681   2.384   3.605  13.201 -1.3058  1.3175  1.2176
 7422TIP3    H243682   2.261   3.531  13.249 -0.5067  0.1269  1.4980
 7423TIP3   OH243683   2.325   3.008   2.511 -0.1920 -0.6123 -0.2858
 7423TIP3    H143684   2.384   3.069   2.555 -0.3462 -0.5353 -0.1853
 7423TIP3    H243685   2.343   2.923   2.553 -0.5449 -0.4862  0.1352
 7424TIP3   OH243686   4.037   6.113  16.408 -0.0129 -0.4224 -0.2764
 7424TIP3    H143687   3.969   6.175  16.378 -0.3055 -0.9194 -0.6706
 7424TIP3    H243688   3.989   6.031  16.421  0.5301 -0.8024 -0.6496
 7425TIP3   OH243689   0.118   3.220  16.566  0.6997 -0.4062 -0.2582
 7425TIP3    H143690   0.189   3.283  16.557  0.2965 -0.0874 -1.3945
 7425TIP3    H243691   0.039   3.273  16.577  0.4624 -0.7264 -0.3820
 7426TIP3   OH243692   4.447   0.015   0.672  0.4189 -0.0548 -0.2464
 7426TIP3    H143693   4.535   0.045   0.652  0.2898 -0.6380 -1.7940
 7426TIP3    H243694   4.452  -0.081   0.665 -0.3062 -0.1039 -0.2272
 7427TIP3   OH243695   3.953   4.470   2.937 -0.0827  0.7071  0.3647
 7427TIP3    H143696   3.936   4.401   2.873 -1.0037  0.4915  0.8193
 7427TIP3    H243697   4.001   4.537   2.888 -2.2365  1.3242 -1.0660
 7428TIP3   OH243698   2.609   6.554  14.102  0.4174  0.4643 -0.2311
 7428TIP3    H143699   2.574   6.527  14.017 -0.2655  0.8850 -0.0891
 7428TIP3    H243700   2.593   6.478  14.159 -2.6628  1.5075  0.4995
 7429TIP3   OH243701   4.233   5.139  13.473 -0.3237  0.0210  0.0497
 7429TIP3    H143702   4.263   5.179  13.555 -0.7452  1.7158 -0.5852
 7429TIP3    H243703   4.168   5.201  13.439 -0.9199 -1.1708 -1.0532
 7430TIP3   OH243704   1.693   3.347  11.901  0.1591  0.3071 -0.4794
 7430TIP3    H143705   1.703   3.406  11.975  1.3626  1.7627 -1.7219
 7430TIP3    H243706   1.757   3.378  11.837  0.5511 -2.1010 -1.3784
 7431TIP3   OH243707   6.275   2.643   3.943 -0.1782 -0.2621 -0.3797
 7431TIP3    H143708   6.234   2.697   3.876 -1.2058 -0.9643 -0.3414
 7431TIP3    H243709   6.366   2.671   3.945 -0.2498  0.0994 -1.7208
 7432TIP3   OH243710   6.183   0.446   5.086  0.1937 -0.0610 -0.2584
 7432TIP3    H143711   6.240   0.458   5.162 -0.4083  0.1064  0.1724
 7432TIP3    H243712   6.234   0.480   5.013  1.6757 -2.2002 -0.3211
 7433TIP3   OH243713   4.362   3.692   1.275  0.0935 -0.1548  0.6504
 7433TIP3    H143714   4.327   3.623   1.218  1.6160 -0.7537  0.3943
 7433TIP3    H243715   4.318   3.679   1.359 -1.0229 -0.2452  0.0703
 7434TIP3   OH243716   2.321   2.153   2.007  0.2669  0.0059 -0.0095
 7434TIP3    H143717   2.393   2.196   2.054 -0.8004  0.5365  1.1929
 7434TIP3    H243718   2.288   2.220   1.946 -0.3271  0.3684  0.6926
 7435TIP3   OH243719   6.152   1.496   1.320 -0.6809  0.3238  0.0677
 7435TIP3    H143720   6.222   1.536   1.371  1.3321  0.1675 -2.3915
 7435TIP3    H243721   6.133   1.560   1.251 -0.2506 -1.1926 -1.5302
 7436TIP3   OH243722   3.872   4.212  12.971 -0.4192  0.3016  0.6088
 7436TIP3    H143723   3.955   4.237  13.013  0.3338 -3.3548  1.6066
 7436TIP3    H243724   3.805   4.230  13.037  0.2760 -1.6167  1.9034
 7437TIP3   OH243725   6.579   5.330  17.280  1.1973  0.6586  0.3489
 7437TIP3    H143726   6.613   5.412  17.244  1.1473 -0.1290 -1.6262
 7437TIP3    H243727   6.653   5.270  17.274  1.1166  0.4406  1.4232
 7438TIP3   OH243728   4.236   2.263  10.889  0.1848  0.4044  0.7419
 7438TIP3    H143729   4.184   2.284  10.812  0.9416  1.3041  0.4658
 7438TIP3    H243730   4.172   2.259  10.961 -0.1435  2.8525  0.6764
 7439TIP3   OH243731   2.483   5.211  13.283 -0.0259  0.0798  0.2195
 7439TIP3    H143732   2.544   5.142  13.309  0.9941  0.4191 -1.1761
 7439TIP3    H243733   2.463   5.193  13.191 -0.6264  1.0005  0.1542
 7440TIP3   OH243734   3.755   6.546  14.957 -0.0625 -0.5328  0.0033
 7440TIP3    H143735   3.824   6.509  15.010  0.0487 -0.7636 -0.2985
 7440TIP3    H243736   3.791   6.629  14.924  0.0478 -0.6244 -0.1053
 7441TIP3   OH243737   0.920   4.589   2.243 -0.3451  0.3213 -0.1880
 7441TIP3    H143738   0.941   4.500   2.215 -1.5604  0.5088 -1.8272
 7441TIP3    H243739   0.875   4.629   2.168 -0.4516  2.0957  0.7497
 7442TIP3   OH243740   4.112   2.172   2.763 -0.2146 -0.1106 -0.0405
 7442TIP3    H143741   4.142   2.116   2.835  0.3933  1.1208  0.7019
 7442TIP3    H243742   4.016   2.170   2.770 -0.2684 -1.9761 -0.7806
 7443TIP3   OH243743   6.249   5.662  12.917 -0.1753  0.1826 -0.1063
 7443TIP3    H143744   6.280   5.588  12.969  0.0807 -1.2923 -2.2107
 7443TIP3    H243745   6.157   5.671  12.941 -0.5355 -1.6196 -0.6088
 7444TIP3   OH243746   1.121   2.397  11.419  0.0945 -0.7738  0.0592
 7444TIP3    H143747   1.153   2.465  11.360  1.1071 -0.0860  1.3365
 7444TIP3    H243748   1.167   2.317  11.391 -0.7686 -0.8703 -1.1682
 7445TIP3   OH243749   0.143   2.907  16.369 -0.4162 -0.4366 -0.1953
 7445TIP3    H143750   0.061   2.887  16.325  0.0919 -0.8778 -0.9752
 7445TIP3    H243751   0.151   3.002  16.362 -1.0280 -0.3499  0.2055
 7446TIP3   OH243752   5.980   3.583  13.095  0.0529 -0.4385 -0.1746
 7446TIP3    H143753   5.954   3.653  13.155  2.6486  1.2710 -0.8687
 7446TIP3    H243754   5.915   3.514  13.108 -0.1536  0.2913  3.7549
 7447TIP3   OH243755   5.093   5.718   3.831 -0.1686  0.4068  0.2023
 7447TIP3    H143756   5.116   5.688   3.919  0.9297  0.7882  0.0596
 7447TIP3    H243757   5.174   5.710   3.781 -0.4669  1.3344 -0.4583
 7448TIP3   OH243758   4.127   6.346   1.668  0.8338  0.0275 -0.4851
 7448TIP3    H143759   4.162   6.262   1.697  2.5170 -0.1883 -2.8692
 7448TIP3    H243760   4.037   6.326   1.641  1.0493 -0.8869 -0.5625
 7449TIP3   OH243761   4.430   3.140  14.868  0.0301  0.3300  0.2370
 7449TIP3    H143762   4.345   3.166  14.832  0.0652 -0.9579 -0.8592
 7449TIP3    H243763   4.477   3.103  14.793  0.0198 -2.6980  1.5906
 7450TIP3   OH243764   0.578   6.035   4.889 -1.0383  0.4002 -0.0846
 7450TIP3    H143765   0.543   6.118   4.922  0.9385  0.8274  1.0828
 7450TIP3    H243766   0.581   5.978   4.966 -1.3993 -0.4234 -0.6666
 7451TIP3   OH243767   5.253   0.650  13.193 -0.5749  0.0264  0.0521
 7451TIP3    H143768   5.315   0.672  13.263 -2.1180  1.5176  0.9999
 7451TIP3    H243769   5.309   0.623  13.120  1.1958  1.1070  0.9365
 7452TIP3   OH243770   1.409   3.850  11.321 -0.2791  0.1005 -0.4402
 7452TIP3    H143771   1.477   3.860  11.254  0.8915  2.1884  0.9374
 7452TIP3    H243772   1.403   3.937  11.361 -2.3929 -0.5680  0.8122
 7453TIP3   OH243773   5.869   3.234  16.209  0.4890  0.4130  0.0085
 7453TIP3    H143774   5.949   3.182  16.212 -0.2443 -0.7025  0.9876
 7453TIP3    H243775   5.815   3.192  16.142 -0.5980 -0.8996  1.6297
 7454TIP3   OH243776   2.724   0.981   3.225  0.0805  0.2303 -0.7365
 7454TIP3    H143777   2.712   0.948   3.136 -0.1163  0.8419 -0.9384
 7454TIP3    H243778   2.757   1.070   3.214 -2.2155  1.2201 -0.2326
 7455TIP3   OH243779   2.426   6.587   5.063 -0.1681 -0.1266 -0.1693
 7455TIP3    H143780   2.388   6.562   4.979  2.1749  2.1151 -2.0754
 7455TIP3    H243781   2.361   6.646   5.102 -0.9737 -0.5993 -0.7664
 7456TIP3   OH243782   2.189   3.130  16.561  0.0843  0.4668 -0.1866
 7456TIP3    H143783   2.107   3.130  16.512 -0.2649  0.6655  0.4005
 7456TIP3    H243784   2.234   3.050  16.532 -1.0316 -0.5107  0.6987
 7457TIP3   OH243785   5.041   2.055  13.048  0.1938  0.6961  0.3507
 7457TIP3    H143786   5.092   1.976  13.066 -0.7908 -0.1317 -0.3955
 7457TIP3    H243787   5.106   2.121  13.025  1.1965  0.6642  2.7807
 7458TIP3   OH243788   2.143   0.169   5.692  0.8272 -0.9369 -0.1284
 7458TIP3    H143789   2.115   0.081   5.668 -0.0458 -0.4585 -0.9079
 7458TIP3    H243790   2.095   0.190   5.771  0.5345 -0.9134 -0.3114
 7459TIP3   OH243791   2.208   1.763   2.347  0.2388 -0.0856 -0.1481
 7459TIP3    H143792   2.240   1.847   2.316 -0.0515 -0.0222 -0.2774
 7459TIP3    H243793   2.284   1.704   2.340  0.1523 -0.0990 -1.0770
 7460TIP3   OH243794   1.193   0.103  15.587 -0.2616  0.0176  0.2108
 7460TIP3    H143795   1.135   0.097  15.663 -0.5479 -0.0075 -0.0077
 7460TIP3    H243796   1.148   0.055  15.519 -1.1153  1.9455 -0.6662
 7461TIP3   OH243797   1.927   0.703   5.955  0.5899  0.2413 -0.1538
 7461TIP3    H143798   1.949   0.610   5.950 -1.0098 -0.1394 -0.9306
 7461TIP3    H243799   1.966   0.733   6.037  1.0195 -1.1370  0.1706
 7462TIP3   OH243800   1.625   5.373   0.828  0.2414  0.4727 -0.2085
 7462TIP3    H143801   1.579   5.363   0.912 -1.2557  0.6314 -0.9754
 7462TIP3    H243802   1.718   5.367   0.851 -0.1641 -0.9263  1.2628
 7463TIP3   OH243803   6.452   1.035  12.518  0.0355  0.4154  0.0440
 7463TIP3    H143804   6.489   0.964  12.572 -1.2406 -0.8184 -0.6419
 7463TIP3    H243805   6.399   1.086  12.579  1.0347  0.8845  0.5637
 7464TIP3   OH243806   0.123   4.526  12.965 -0.1125  0.5274 -0.6105
 7464TIP3    H143807   0.116   4.551  13.058  0.2435 -1.0138 -0.1536
 7464TIP3    H243808   0.035   4.541  12.931 -0.4960  0.2319  0.2079
 7465TIP3   OH243809   4.488   3.143   1.671 -0.2278 -0.4202  0.0010
 7465TIP3    H143810   4.494   3.225   1.720 -1.2862  0.2103 -0.8902
 7465TIP3    H243811   4.458   3.079   1.736  0.6843 -0.1390  0.7206
 7466TIP3   OH243812   3.558   1.164   6.300  0.4060  0.0312 -0.4493
 7466TIP3    H143813   3.653   1.171   6.295  0.4053  0.0142 -0.4825
 7466TIP3    H243814   3.542   1.087   6.354  0.4256  1.0793  1.1268
 7467TIP3   OH243815   0.921   0.625  14.686 -0.1907  0.3812 -0.0453
 7467TIP3    H143816   1.015   0.640  14.695  0.0624 -1.2463  0.2692
 7467TIP3    H243817   0.908   0.534  14.711 -1.9403  0.7244  0.4545
 7468TIP3   OH243818   5.323   5.926   4.374 -0.3817  0.4734  0.5730
 7468TIP3    H143819   5.416   5.945   4.365 -0.2379 -0.5365 -0.1711
 7468TIP3    H243820   5.308   5.851   4.317 -1.2862 -0.5345  2.0837
 7469TIP3   OH243821   6.628   3.571  16.155  0.2142  0.3542 -0.0527
 7469TIP3    H143822   6.621   3.625  16.076  2.3585 -1.0771 -1.3632
 7469TIP3    H243823   6.605   3.483  16.125 -1.2611  0.1506  1.5377
 7470TIP3   OH243824   3.429   6.764  11.985  0.2066 -0.0690  0.3613
 7470TIP3    H143825   3.351   6.724  11.946 -0.3342 -0.1805  1.5179
 7470TIP3    H243826   3.489   6.691  11.999  0.1019 -0.1402  0.4369
 7471TIP3   OH243827   1.672   6.516  14.966  0.2313  1.0205  0.5713
 7471TIP3    H143828   1.728   6.554  14.898  0.0505  1.5035  0.6883
 7471TIP3    H243829   1.733   6.467  15.022  0.0239 -2.1662 -1.7276
 7472TIP3   OH243830   0.465   5.003   6.028 -0.4932  0.0392 -0.3266
 7472TIP3    H143831   0.421   5.001   6.113  0.2634  4.3444  0.3632
 7472TIP3    H243832   0.449   5.091   5.995  0.5484 -1.0069 -4.0054
 7473TIP3   OH243833   6.464   0.758   3.879 -0.0623 -0.8067  0.0553
 7473TIP3    H143834   6.438   0.703   3.952 -1.7180 -0.6559 -0.3790
 7473TIP3    H243835   6.441   0.708   3.801  0.1089 -0.2659 -0.3528
 7474TIP3   OH243836   0.168   2.155   6.366 -0.4888 -0.0101  0.3155
 7474TIP3    H143837   0.224   2.080   6.389 -0.6232  0.3049  1.7485
 7474TIP3    H243838   0.095   2.116   6.318  0.9550 -0.4216 -1.6950
 7475TIP3   OH243839   0.619   4.175  14.167  0.3829 -0.2477 -0.3081
 7475TIP3    H143840   0.529   4.153  14.193  0.0449 -0.3050 -1.4580
 7475TIP3    H243841   0.667   4.182  14.249 -0.1826 -2.3660  0.2798
 7476TIP3   OH243842   4.563   6.700  17.205 -0.4337  0.1798 -0.0805
 7476TIP3    H143843   4.490   6.733  17.152 -0.3535  0.4756 -0.0108
 7476TIP3    H243844   4.528   6.623  17.250 -0.3250 -0.4372 -1.0330
 7477TIP3   OH243845   0.886   2.708   5.963  0.3260  0.1969  0.0675
 7477TIP3    H143846   0.918   2.748   6.044 -0.1700  1.6136 -0.4058
 7477TIP3    H243847   0.791   2.722   5.965  0.4542  1.4363 -1.3572
 7478TIP3   OH243848   0.847   5.206  15.549  0.3170 -0.1261  0.4608
 7478TIP3    H143849   0.898   5.127  15.532 -0.4701 -0.8085  1.1457
 7478TIP3    H243850   0.912   5.273  15.571  1.2175  0.1629 -2.5598
 7479TIP3   OH243851   3.106   0.475  12.503  0.8595 -0.0549  0.3158
 7479TIP3    H143852   3.102   0.450  12.595  0.4443 -0.9077  0.0756
 7479TIP3    H243853   3.151   0.403  12.460  1.3037  0.4675 -0.1132
 7480TIP3   OH243854   4.907   4.243  12.238  0.5067  0.4986  0.1451
 7480TIP3    H143855   4.944   4.322  12.197  2.6644 -0.0246  0.9445
 7480TIP3    H243856   4.980   4.205  12.287 -0.9183 -1.1169  1.1333
 7481TIP3   OH243857   2.852   2.852   0.722 -0.0977  0.0402  0.1212
 7481TIP3    H143858   2.842   2.775   0.778 -0.0312 -0.3445 -0.3836
 7481TIP3    H243859   2.783   2.912   0.750  1.4263  0.9055  2.2835
 7482TIP3   OH243860   0.847   6.313   0.716 -0.3295  0.3311 -0.4181
 7482TIP3    H143861   0.796   6.374   0.663 -0.7724 -0.1683 -0.5788
 7482TIP3    H243862   0.847   6.232   0.665  1.9823  0.7492 -1.1993
 7483TIP3   OH243863   5.403   0.979   5.515  0.1573  0.0230  0.1512
 7483TIP3    H143864   5.393   1.072   5.535  0.8204  0.1418 -0.0649
 7483TIP3    H243865   5.477   0.951   5.569 -1.7339 -1.0448  2.3942
 7484TIP3   OH243866   3.429   4.186   5.863 -0.1137  0.1967 -0.1178
 7484TIP3    H143867   3.409   4.263   5.915 -1.5903 -1.2297  1.5220
 7484TIP3    H243868   3.500   4.142   5.910  1.2179  0.8383 -1.4169
 7485TIP3   OH243869   0.696   0.261   3.608  0.3907 -0.3760  0.4065
 7485TIP3    H143870   0.696   0.241   3.514 -1.1516  0.6470  0.1499
 7485TIP3    H243871   0.603   0.265   3.632  0.7345  0.5152  1.7151
 7486TIP3   OH243872   2.854   1.106  11.405  0.0688  0.5703  0.3189
 7486TIP3    H143873   2.789   1.108  11.475 -0.9536  1.6685 -0.6202
 7486TIP3    H243874   2.891   1.018  11.409 -2.1092 -0.4020  0.3117
 7487TIP3   OH243875   2.478   4.930  15.916 -0.0690  0.0493 -0.4617
 7487TIP3    H143876   2.464   4.938  16.011 -1.0192  0.4112 -0.6179
 7487TIP3    H243877   2.458   4.838  15.897  0.5496 -0.1372 -0.2593
 7488TIP3   OH243878   1.939   0.563   2.432  0.8185 -0.1828  0.0116
 7488TIP3    H143879   2.007   0.630   2.441  1.6120 -1.2087  2.1698
 7488TIP3    H243880   1.882   0.576   2.508  0.8422 -1.7762  0.3210
 7489TIP3   OH243881   4.605   5.368   1.300  0.3602  0.1968 -0.0521
 7489TIP3    H143882   4.562   5.450   1.274 -1.3796  0.0787  2.1976
 7489TIP3    H243883   4.604   5.314   1.221 -0.9302  1.3502 -0.8591
 7490TIP3   OH243884   4.032   3.904   1.313 -0.5140  0.7325  0.2545
 7490TIP3    H143885   4.105   3.888   1.374 -1.1549  0.1405  0.8809
 7490TIP3    H243886   3.961   3.850   1.346 -1.4136  1.6992 -0.0520
 7491TIP3   OH243887   1.965   5.952  16.195 -0.1303 -0.1036 -0.0981
 7491TIP3    H143888   2.031   6.019  16.177  0.5074 -0.4496  0.8631
 7491TIP3    H243889   1.979   5.885  16.128  1.0577 -0.5675  0.5973
 7492TIP3   OH243890   1.626   6.160  16.350 -0.0412  0.1151 -0.5521
 7492TIP3    H143891   1.646   6.123  16.263 -0.4175  0.5947 -0.8436
 7492TIP3    H243892   1.534   6.140  16.364  0.1050 -0.2557 -0.1118
 7493TIP3   OH243893   5.339   4.290   3.855  0.0693  0.3093  0.0039
 7493TIP3    H143894   5.367   4.208   3.895  1.0434 -0.4655 -2.1154
 7493TIP3    H243895   5.397   4.357   3.891  0.7786 -0.3204  0.0396
 7494TIP3   OH243896   1.335   2.650  15.262 -0.0515  0.2574 -0.6491
 7494TIP3    H143897   1.404   2.594  15.226  0.3560 -0.5768  1.2667
 7494TIP3    H243898   1.359   2.739  15.235 -0.1410 -0.3314 -2.8776
 7495TIP3   OH243899   3.462   0.260  12.241  0.1777  0.4362  0.2597
 7495TIP3    H143900   3.516   0.241  12.164  0.2687  0.5553  0.2927
 7495TIP3    H243901   3.407   0.334  12.214 -0.9181 -0.5279 -0.2161
 7496TIP3   OH243902   0.500   1.324  10.361 -0.3793 -0.4375  0.0472
 7496TIP3    H143903   0.519   1.241  10.320  1.5147 -0.2648  0.5006
 7496TIP3    H243904   0.565   1.332  10.431  0.4044  2.0475 -0.8759
 7497TIP3   OH243905   6.260   2.561   6.223  0.3082  0.0727  0.1397
 7497TIP3    H143906   6.215   2.480   6.247  0.1000  0.2871  0.4881
 7497TIP3    H243907   6.202   2.630   6.255  1.0495  0.3492  0.8996
 7498TIP3   OH243908   6.060   6.102  15.742 -0.0668 -0.4423 -0.2355
 7498TIP3    H143909   5.970   6.134  15.742 -0.0494 -0.3920 -0.4795
 7498TIP3    H243910   6.051   6.007  15.739 -0.1363 -0.5314  1.5759
 7499TIP3   OH243911   6.025   2.287  14.754 -0.2893 -0.3891 -0.2476
 7499TIP3    H143912   6.003   2.215  14.695  1.2140 -0.0127 -1.3257
 7499TIP3    H243913   6.080   2.345  14.702  1.7352 -0.3866  1.6892
 7500TIP3   OH243914   0.710   4.543   2.972 -1.0644  0.0487 -0.0458
 7500TIP3    H143915   0.745   4.545   2.883 -0.8538  2.8024  0.0292
 7500TIP3    H243916   0.786   4.533   3.028 -1.2096 -1.8360 -0.1208
 7501TIP3   OH243917   6.514   3.490  15.653 -0.4445  0.6379  0.2083
 7501TIP3    H143918   6.562   3.413  15.622  1.5009  1.8712  0.0315
 7501TIP3    H243919   6.422   3.461  15.655 -0.2570 -0.6391 -3.2117
 7502TIP3   OH243920   4.746   3.437  13.356  0.1876 -0.7871  0.1387
 7502TIP3    H143921   4.756   3.495  13.280  1.1242  1.0231  1.5601
 7502TIP3    H243922   4.724   3.352  13.318 -0.5059  0.2958 -2.0970
 7503TIP3   OH243923   0.150   1.999   3.009  0.3421 -0.2379  0.6249
 7503TIP3    H143924   0.201   2.053   2.949  3.3730 -1.8741  1.5185
 7503TIP3    H243925   0.171   1.909   2.985 -1.0876 -0.9782  1.9523
 7504TIP3   OH243926   5.801   2.610  11.932  0.3179  0.0396  0.2893
 7504TIP3    H143927   5.753   2.646  12.007  1.2606 -1.4196  1.6753
 7504TIP3    H243928   5.879   2.665  11.924  0.8457 -0.5476  1.2250
 7505TIP3   OH243929   3.056   6.559   2.845  0.3035 -0.1076 -0.4359
 7505TIP3    H143930   3.090   6.608   2.920  0.3470 -0.6005 -0.1305
 7505TIP3    H243931   2.963   6.547   2.865  0.0557  0.7520 -1.0061
 7506TIP3   OH243932   1.935   3.307  11.142 -0.1212  0.4070 -0.5672
 7506TIP3    H143933   1.858   3.356  11.115 -0.6537 -0.1294 -0.0535
 7506TIP3    H243934   1.945   3.238  11.076 -1.1664 -0.6362  0.3092
 7507TIP3   OH243935   2.509   6.278   1.435  0.4741 -0.1811  0.4441
 7507TIP3    H143936   2.552   6.251   1.353  1.4767 -0.1685  0.9406
 7507TIP3    H243937   2.579   6.273   1.501 -0.2480  0.0684  1.2513
 7508TIP3   OH243938   5.425   2.834   3.367  0.2821  0.1749  0.8306
 7508TIP3    H143939   5.497   2.780   3.397  0.4800 -0.6108 -0.9647
 7508TIP3    H243940   5.419   2.904   3.433  1.8288 -0.4422  1.6859
 7509TIP3   OH243941   6.077   6.682  16.463  0.5345 -0.5093 -0.1546
 7509TIP3    H143942   6.121   6.633  16.393  0.9225 -0.6236  0.1650
 7509TIP3    H243943   6.013   6.736  16.417  1.4968  0.1932 -0.7036
 7510TIP3   OH243944   3.704   4.004   2.483 -0.6266  0.0256 -0.5864
 7510TIP3    H143945   3.764   3.961   2.422  0.6099 -0.0557  0.6378
 7510TIP3    H243946   3.618   3.969   2.461 -0.4618  1.0225 -3.1849
 7511TIP3   OH243947   1.611   5.011   0.149 -0.0177 -0.0902 -0.1284
 7511TIP3    H143948   1.566   4.929   0.130 -2.9251  1.3510 -0.0417
 7511TIP3    H243949   1.680   5.017   0.083  0.2075 -2.5169 -0.1845
 7512TIP3   OH243950   5.777   4.945   0.765 -0.0780 -0.1373 -0.1608
 7512TIP3    H143951   5.780   4.887   0.841 -0.0453 -2.0960 -1.5910
 7512TIP3    H243952   5.868   4.971   0.751 -0.1248  0.5009  0.6299
 7513TIP3   OH243953   0.031   5.543   1.853  1.1218 -0.2561 -0.0682
 7513TIP3    H143954  -0.027   5.554   1.928  0.0455 -1.4007 -0.6773
 7513TIP3    H243955   0.030   5.628   1.809 -0.0329 -0.2019  0.0100
 7514TIP3   OH243956   3.471   2.995  15.248  0.1559  0.1199  0.4276
 7514TIP3    H143957   3.512   3.019  15.166  1.3648 -1.3477  0.5492
 7514TIP3    H243958   3.444   3.078  15.287 -1.9674  0.7686 -2.1491
 7515TIP3   OH243959   1.680   5.042  13.158  0.4198  0.0250  0.0314
 7515TIP3    H143960   1.696   5.094  13.079  0.7532 -1.3945 -0.8694
 7515TIP3    H243961   1.768   5.020  13.190  0.2839 -0.5328  0.0259
 7516TIP3   OH243962   4.101   2.661   5.794 -0.3655  0.0626  0.0420
 7516TIP3    H143963   4.175   2.712   5.763 -0.7276  1.7436  1.7764
 7516TIP3    H243964   4.132   2.570   5.790  0.9570  0.5332 -1.3657
 7517TIP3   OH243965   5.868   4.312  12.810 -0.0603 -0.4331 -0.2011
 7517TIP3    H143966   5.796   4.287  12.869  0.1196 -1.2378 -0.3058
 7517TIP3    H243967   5.925   4.367  12.863  1.3083 -2.9848  1.1318
 7518TIP3   OH243968   0.766   6.672   3.453  0.4123  0.8599  0.0623
 7518TIP3    H143969   0.798   6.748   3.501  0.0645  0.6080  0.7179
 7518TIP3    H243970   0.691   6.705   3.403 -0.2898  0.7876  1.0224
 7519TIP3   OH243971   0.697   2.193  17.182 -0.5622  0.7332  0.2932
 7519TIP3    H143972   0.634   2.144  17.235  0.6419  0.4887  1.5809
 7519TIP3    H243973   0.723   2.266  17.238 -0.1222  1.1509 -0.4385
 7520TIP3   OH243974   6.305   5.022  15.402 -0.1429  0.3588  0.0367
 7520TIP3    H143975   6.261   5.106  15.389  1.1823  1.4168  1.9368
 7520TIP3    H243976   6.270   4.989  15.485  1.1420  0.2451  0.5547
 7521TIP3   OH243977   3.086   6.731  16.593 -0.0316  0.1083  0.4576
 7521TIP3    H143978   3.098   6.812  16.643  0.4977  0.1784  0.2276
 7521TIP3    H243979   3.036   6.674  16.651 -0.3552  0.5815  0.6446
 7522TIP3   OH243980   1.145   3.678   1.960  0.0511  0.4022 -0.3066
 7522TIP3    H143981   1.183   3.608   2.014 -1.3412 -0.7467 -0.7488
 7522TIP3    H243982   1.142   3.754   2.018  0.2630 -0.3030  0.6609
 7523TIP3   OH243983   5.838   1.412   0.625  0.0215 -0.5892 -0.6511
 7523TIP3    H143984   5.812   1.325   0.592 -0.3461 -0.3712 -0.9482
 7523TIP3    H243985   5.931   1.419   0.604  0.3144 -1.3301  0.3014
 7524TIP3   OH243986   6.040   3.845   5.336 -0.5573  1.0011  0.3165
 7524TIP3    H143987   5.992   3.874   5.259 -0.1193  0.5662 -0.1286
 7524TIP3    H243988   6.072   3.758   5.313  0.5684  1.3408  0.5370
 7525TIP3   OH243989   0.249   5.560   4.087 -0.2963 -0.3482  0.8738
 7525TIP3    H143990   0.227   5.468   4.073 -1.4776 -0.3529  2.5137
 7525TIP3    H243991   0.261   5.568   4.181 -1.4189  1.4208  0.9129
 7526TIP3   OH243992   2.827   0.722  13.477 -0.0514 -0.2824 -0.0247
 7526TIP3    H143993   2.797   0.796  13.425  0.0254 -0.4995 -0.3868
 7526TIP3    H243994   2.797   0.645  13.428 -1.7556 -0.5028  1.2975
 7527TIP3   OH243995   5.064   2.008  16.935 -0.1100  0.0110 -0.0982
 7527TIP3    H143996   5.078   2.055  16.853 -0.3514  0.3068  0.0282
 7527TIP3    H243997   5.092   2.070  17.003  1.1298 -0.6205  0.0077
 7528TIP3   OH243998   3.402   5.519  10.965  0.1030 -0.6355 -0.7567
 7528TIP3    H143999   3.446   5.435  10.953  0.9526 -0.3228  0.1264
 7528TIP3    H244000   3.470   5.584  10.949 -0.5000 -0.1057 -1.2211
 7529TIP3   OH244001   3.302   1.264  16.989 -0.0950 -0.0253  0.0106
 7529TIP3    H144002   3.243   1.217  17.048 -0.1661  0.1283  0.0624
 7529TIP3    H244003   3.255   1.344  16.967 -0.4697 -0.4937 -0.9756
 7530TIP3   OH244004   6.046   0.533   4.169  0.4185  0.0851  0.1376
 7530TIP3    H144005   5.989   0.532   4.245  4.5126  0.5205  3.5768
 7530TIP3    H244006   6.069   0.441   4.154  0.0237  0.0482 -0.2622
 7531TIP3   OH244007   0.396   4.928   2.722 -0.3961 -0.3189 -0.1335
 7531TIP3    H144008   0.482   4.885   2.720 -1.3870 -2.4680  0.5143
 7531TIP3    H244009   0.339   4.869   2.674 -1.9139  0.1501  1.0389
 7532TIP3   OH244010   5.708   1.294   5.972 -0.2599  0.4137 -0.3605
 7532TIP3    H144011   5.777   1.237   5.937  1.6631  2.6235 -0.3894
 7532TIP3    H244012   5.683   1.350   5.899  1.5233  2.9354  0.8360
 7533TIP3   OH244013   6.320   2.969  16.649  0.4648 -0.8319  0.2719
 7533TIP3    H144014   6.337   3.055  16.687  1.1762 -0.7460 -0.2063
 7533TIP3    H244015   6.263   2.987  16.574  0.3667 -0.8141  0.3502
 7534TIP3   OH244016   0.554   1.370   5.950 -0.1353 -0.0751 -0.4555
 7534TIP3    H144017   0.458   1.369   5.957 -0.0179 -1.4890  2.3421
 7534TIP3    H244018   0.582   1.429   6.020  1.0602  1.1520 -1.9091
 7535TIP3   OH244019   4.353   4.645  12.968 -0.0994 -0.3227 -0.4911
 7535TIP3    H144020   4.408   4.584  12.919 -0.1860  0.5364 -1.7051
 7535TIP3    H244021   4.415   4.707  13.006 -0.0964 -0.4953 -0.2095
 7536TIP3   OH244022   5.274   0.234   0.948 -0.0326  0.1107 -0.5139
 7536TIP3    H144023   5.191   0.279   0.937 -0.4633 -0.7780 -1.0345
 7536TIP3    H244024   5.329   0.296   0.995 -1.2166  0.4558  0.4702
 7537TIP3   OH244025   3.340   0.217  17.209  0.1208  0.1682 -0.1387
 7537TIP3    H144026   3.333   0.123  17.193 -0.4686 -0.6713  3.9211
 7537TIP3    H244027   3.429   0.240  17.182  0.9353 -2.0241  0.4716
 7538TIP3   OH244028   5.487   0.142  15.258 -0.1291  0.6316 -0.1379
 7538TIP3    H144029   5.500   0.119  15.166 -1.2692  0.2546 -0.2179
 7538TIP3    H244030   5.519   0.232  15.265  1.2020  0.2156 -0.5914
 7539TIP3   OH244031   6.729   1.576  12.620  0.2403 -0.3448  0.3299
 7539TIP3    H144032   6.637   1.586  12.642  0.0903  2.4406 -1.1728
 7539TIP3    H244033   6.776   1.604  12.698 -0.2548  1.9711 -0.1383
 7540TIP3   OH244034   4.501   2.164   0.720  0.1738 -0.1064  0.4516
 7540TIP3    H144035   4.474   2.139   0.632  1.2893  0.1333  0.0293
 7540TIP3    H244036   4.423   2.203   0.759  0.0985  1.2752 -1.0047
 7541TIP3   OH244037   1.115   1.635   0.090 -0.8187  0.0507 -0.1862
 7541TIP3    H144038   1.206   1.606   0.088 -0.3104  1.6053 -0.2358
 7541TIP3    H244039   1.064   1.555   0.074  0.4093 -1.2568  1.9906
 7542TIP3   OH244040   4.577   5.414   5.089 -0.1319  0.4731  0.2254
 7542TIP3    H144041   4.612   5.488   5.040 -0.5148  0.5872  0.1218
 7542TIP3    H244042   4.508   5.452   5.144  0.2070  0.3309  0.7662
 7543TIP3   OH244043   6.085   5.441   2.967 -0.4687  0.1115 -0.0032
 7543TIP3    H144044   6.177   5.433   2.991  0.0070  1.4303 -1.2290
 7543TIP3    H244045   6.072   5.374   2.900  0.2782  1.4473 -1.5526
 7544TIP3   OH244046   1.204   0.435  16.741  0.4246 -0.5189 -0.2643
 7544TIP3    H144047   1.277   0.417  16.801  1.7577  1.3500 -1.2102
 7544TIP3    H244048   1.126   0.435  16.797  1.5258  0.4543  1.3620
 7545TIP3   OH244049   1.263   5.173   0.713 -0.4692 -0.2987  0.2714
 7545TIP3    H144050   1.338   5.199   0.660 -1.2476 -0.7013 -1.0691
 7545TIP3    H244051   1.292   5.186   0.803  1.9452 -2.3543 -0.0998
 7546TIP3   OH244052   3.577   2.297  12.490  0.3227 -0.4950 -0.0282
 7546TIP3    H144053   3.609   2.274  12.578 -0.2546  1.6160  0.7961
 7546TIP3    H244054   3.482   2.301  12.500  0.3005  0.4757 -0.5486
 7547TIP3   OH244055   2.214   0.481  11.751  0.1031  0.5432  0.1453
 7547TIP3    H144056   2.157   0.546  11.711 -0.3090 -0.0312 -0.2176
 7547TIP3    H244057   2.248   0.523  11.830  1.3685  1.9041 -1.0622
 7548TIP3   OH244058   0.958   2.001  13.739 -0.3301 -1.1515 -0.3227
 7548TIP3    H144059   0.971   1.998  13.644 -2.2100 -1.5892 -0.6152
 7548TIP3    H244060   0.997   1.920  13.771  4.2277  0.8872 -0.0498
 7549TIP3   OH244061   4.977   4.681  13.035 -0.0609 -0.3208  0.1722
 7549TIP3    H144062   5.035   4.605  13.028  0.5373  0.1284  0.0524
 7549TIP3    H244063   4.915   4.658  13.103  0.6227 -0.5944  0.7179
 7550TIP3   OH244064   5.304   3.561  14.410 -0.0843  0.7687  0.1808
 7550TIP3    H144065   5.251   3.601  14.340 -1.1795 -1.8184 -0.6014
 7550TIP3    H244066   5.366   3.504  14.363  0.3931  0.3781  1.2597
 7551TIP3   OH244067   3.525   2.716   0.289 -0.1739 -0.2342 -0.4589
 7551TIP3    H144068   3.554   2.740   0.377 -1.3051  0.6685 -0.3131
 7551TIP3    H244069   3.605   2.715   0.236  0.3026  0.9075  0.2067
 7552TIP3   OH244070   6.298   5.756  15.886 -0.2655 -0.1067 -0.2331
 7552TIP3    H144071   6.353   5.696  15.834  1.1363 -0.9503  2.0404
 7552TIP3    H244072   6.359   5.796  15.948 -2.1897 -1.3130  2.6492
 7553TIP3   OH244073   1.102   5.958   5.807 -0.0345 -0.4211  0.3462
 7553TIP3    H144074   1.128   5.916   5.889 -0.0362  0.8675  1.0377
 7553TIP3    H244075   1.154   6.039   5.804 -3.9120  2.4916  1.9708
 7554TIP3   OH244076   6.646   0.139   1.819  0.2817 -0.5043 -0.4550
 7554TIP3    H144077   6.687   0.056   1.844 -2.4938 -1.7367  0.4619
 7554TIP3    H244078   6.605   0.120   1.735 -0.1400  0.0348 -0.3744
 7555TIP3   OH244079   1.217   5.047   0.472 -0.3854 -0.2500 -0.3516
 7555TIP3    H144080   1.240   5.079   0.560  1.8750  1.5720 -1.4889
 7555TIP3    H244081   1.208   4.953   0.482  0.6328 -0.1889  1.6900
 7556TIP3   OH244082   4.836   1.643   4.371 -0.5821 -0.0170 -0.2888
 7556TIP3    H144083   4.878   1.618   4.289  0.4289 -0.2954  0.2975
 7556TIP3    H244084   4.784   1.566   4.396 -0.5354 -0.0974 -0.4396
 7557TIP3   OH244085   1.379   4.166   3.962  0.2379 -0.4982 -0.0947
 7557TIP3    H144086   1.346   4.222   4.032  0.5438 -0.6467  0.1701
 7557TIP3    H244087   1.424   4.095   4.007 -0.0003 -0.8695 -0.4323
 7558TIP3   OH244088   6.236   1.809  11.855  0.4038  0.0277 -0.2551
 7558TIP3    H144089   6.316   1.758  11.858  0.1472 -0.3398  1.9849
 7558TIP3    H244090   6.241   1.866  11.932  0.2714  2.8124 -2.1799
 7559TIP3   OH244091   3.960   6.511   4.005 -0.2263  0.4252  0.1276
 7559TIP3    H144092   3.951   6.559   4.087  2.8808  0.4671  0.5673
 7559TIP3    H244093   4.040   6.546   3.965 -0.5036 -1.0589 -1.8665
 7560TIP3   OH244094   4.338   5.181  15.781 -0.9766  0.1425 -0.1982
 7560TIP3    H144095   4.405   5.220  15.837 -1.9015  0.8058  0.4734
 7560TIP3    H244096   4.348   5.225  15.696 -0.1671 -0.2101 -0.2940
 7561TIP3   OH244097   1.493   3.032   0.380 -0.3024  0.5066  0.2236
 7561TIP3    H144098   1.421   2.990   0.332 -1.2730  1.1250  1.0930
 7561TIP3    H244099   1.572   3.004   0.334 -1.0746 -0.4304 -0.5805
 7562TIP3   OH244100   1.543   6.122  10.501 -0.4343  1.1040  0.4890
 7562TIP3    H144101   1.601   6.154  10.570 -0.2833  2.1160 -0.0990
 7562TIP3    H244102   1.580   6.157  10.420  0.2533 -1.2564 -0.3058
 7563TIP3   OH244103   6.068   1.712   0.444  0.7254 -0.0686  0.2662
 7563TIP3    H144104   6.061   1.795   0.398 -0.5335 -0.6720 -0.6976
 7563TIP3    H244105   6.112   1.654   0.382 -0.2845 -0.6809  0.1081
 7564TIP3   OH244106   5.969   2.448  13.240 -0.4009 -0.1526  0.2382
 7564TIP3    H144107   6.049   2.499  13.251 -0.0342 -0.5403 -0.6224
 7564TIP3    H244108   5.919   2.467  13.320 -0.8383  2.5254 -0.5743
 7565TIP3   OH244109   2.148   3.945   4.082 -0.6522  0.1967 -0.1681
 7565TIP3    H144110   2.208   3.903   4.020  0.0078 -0.4186  0.8739
 7565TIP3    H244111   2.082   3.878   4.101  0.3885 -0.4115  1.4783
 7566TIP3   OH244112   3.119   5.709   4.608  0.4944 -0.2003 -0.1080
 7566TIP3    H144113   3.134   5.794   4.649 -2.3136  1.1543 -1.5660
 7566TIP3    H244114   3.095   5.731   4.517  0.8678 -2.6517 -0.8629
 7567TIP3   OH244115   5.725   6.301  13.752  0.3267 -0.0976  0.1016
 7567TIP3    H144116   5.655   6.236  13.751  0.0978  0.1414  0.2237
 7567TIP3    H244117   5.719   6.341  13.839 -0.2289  0.8231 -0.3478
 7568TIP3   OH244118   5.282   3.213   2.770 -0.3151  0.1137  0.3371
 7568TIP3    H144119   5.307   3.183   2.858 -1.9476  0.0459  0.8093
 7568TIP3    H244120   5.212   3.277   2.786 -0.6682  0.0556 -0.9175
 7569TIP3   OH244121   3.802   0.622   4.858  0.1842  0.2531  0.3182
 7569TIP3    H144122   3.893   0.637   4.882  0.0652  0.6092  0.5480
 7569TIP3    H244123   3.803   0.536   4.816  0.4740 -0.1910  1.1862
 7570TIP3   OH244124   6.456   6.751  11.387 -0.1150 -0.1334 -0.5392
 7570TIP3    H144125   6.507   6.820  11.346  1.0367 -0.9353 -0.4850
 7570TIP3    H244126   6.442   6.781  11.476  0.4121  0.0083 -0.5048
 7571TIP3   OH244127   4.997   5.902  12.044  0.1668  0.3311  0.4611
 7571TIP3    H144128   4.932   5.944  12.100 -0.4296 -2.3655  1.9485
 7571TIP3    H244129   4.946   5.853  11.980  0.7320 -0.6913  0.7742
 7572TIP3   OH244130   4.838   1.647   5.624  0.0459  0.3058 -0.1084
 7572TIP3    H144131   4.770   1.599   5.672  0.3592 -0.2293 -0.1845
 7572TIP3    H244132   4.920   1.606   5.651  0.3538  1.0292  0.0780
 7573TIP3   OH244133   0.711   0.961   1.994  0.2944  0.0421  0.1115
 7573TIP3    H144134   0.788   0.926   2.039 -0.2532  0.7145  1.6189
 7573TIP3    H244135   0.664   0.883   1.963  0.4382 -0.4766  1.1439
 7574TIP3   OH244136   2.692   3.686   3.192  0.1950 -0.0466 -0.4206
 7574TIP3    H144137   2.697   3.782   3.187  2.7541 -0.1029 -0.2708
 7574TIP3    H244138   2.678   3.668   3.285  0.0835  0.1670 -0.3948
 7575TIP3   OH244139   2.754   5.398   2.585 -0.0667 -0.1981 -0.2496
 7575TIP3    H144140   2.847   5.406   2.561 -0.8804  1.9576 -3.4961
 7575TIP3    H244141   2.750   5.427   2.676  2.3828  0.3028 -0.2309
 7576TIP3   OH244142   5.651   3.829   5.414 -0.0323 -0.1062  0.3659
 7576TIP3    H144143   5.651   3.734   5.404 -2.7127 -0.1781  0.4105
 7576TIP3    H244144   5.698   3.861   5.336 -0.2586 -1.4292 -0.3453
 7577TIP3   OH244145   2.875   6.258  12.952 -0.1039  0.3249 -0.8440
 7577TIP3    H144146   2.939   6.247  13.022 -0.1931 -2.9903 -1.1095
 7577TIP3    H244147   2.926   6.297  12.880  0.9806  0.1441 -0.2021
 7578TIP3   OH244148   0.552   1.263   3.277  0.4739  0.1040  0.0327
 7578TIP3    H144149   0.581   1.172   3.266 -0.2079  0.1571 -3.0748
 7578TIP3    H244150   0.616   1.301   3.337  2.5483 -1.6371 -0.9352
 7579TIP3   OH244151   5.320   2.647   4.033  0.2208 -0.0983 -0.9285
 7579TIP3    H144152   5.387   2.615   4.093 -0.3750 -0.0356 -0.2203
 7579TIP3    H244153   5.239   2.602   4.060  0.2111 -1.2197 -2.6241
 7580TIP3   OH244154   4.410   3.290  16.527  0.3141 -0.0729  0.5572
 7580TIP3    H144155   4.317   3.299  16.509  0.5514 -1.0458 -1.4299
 7580TIP3    H244156   4.451   3.291  16.440  1.9665 -1.5580  1.2666
 7581TIP3   OH244157   1.643   5.533  11.026 -1.0975 -0.0942  0.4434
 7581TIP3    H144158   1.695   5.609  10.997 -0.0583 -0.2440  1.8014
 7581TIP3    H244159   1.553   5.557  11.006 -0.6459  0.7732 -0.7128
 7582TIP3   OH244160   1.373   0.981  14.330 -0.4247 -0.4065 -0.4341
 7582TIP3    H144161   1.322   0.987  14.249 -0.2768 -0.2497 -0.5184
 7582TIP3    H244162   1.464   0.972  14.299 -0.4910 -1.6954 -0.3012
 7583TIP3   OH244163   4.488   3.833   4.428  0.0726 -0.3221  0.3450
 7583TIP3    H144164   4.562   3.866   4.480  0.1303  0.7133 -0.3706
 7583TIP3    H244165   4.415   3.889   4.453  0.1433  0.3110 -0.8088
 7584TIP3   OH244166   1.701   0.227  12.598 -0.3259 -0.4411 -0.2595
 7584TIP3    H144167   1.674   0.318  12.608 -0.8891 -0.6116 -0.1498
 7584TIP3    H244168   1.621   0.177  12.616 -0.1758 -0.9322 -0.9100
 7585TIP3   OH244169   3.093   4.428   2.522 -0.5780  0.0378 -0.1609
 7585TIP3    H144170   3.007   4.445   2.560 -0.6926  1.6152 -1.0347
 7585TIP3    H244171   3.078   4.358   2.458 -1.0298 -0.2937  0.3018
 7586TIP3   OH244172   4.163   4.440  16.797  0.0426 -0.0227 -0.6896
 7586TIP3    H144173   4.225   4.476  16.733 -0.8317  0.4525 -1.2905
 7586TIP3    H244174   4.109   4.380  16.746  0.5954 -1.1503  0.0253
 7587TIP3   OH244175   0.279   3.574   4.223 -0.0027 -0.5288 -0.4325
 7587TIP3    H144176   0.327   3.656   4.234 -0.1838 -0.3268 -1.0699
 7587TIP3    H244177   0.190   3.601   4.202 -0.8927 -0.8965  2.5122
 7588TIP3   OH244178   0.156   6.401  15.784 -0.0781  0.2062  0.1899
 7588TIP3    H144179   0.153   6.427  15.877 -0.9715  2.3795 -0.3750
 7588TIP3    H244180   0.065   6.390  15.759  0.0202  1.4630 -0.8516
 7589TIP3   OH244181   2.946   6.301   2.998  0.2762 -0.0029 -0.2074
 7589TIP3    H144182   3.022   6.332   2.948  0.3012  1.1574  0.5200
 7589TIP3    H244183   2.954   6.344   3.083 -1.5320  0.6225 -0.3224
 7590TIP3   OH244184   5.165   2.044   2.345 -0.1788 -0.8931  0.6869
 7590TIP3    H144185   5.192   2.048   2.436 -1.5169 -1.2235  1.1139
 7590TIP3    H244186   5.214   1.970   2.309 -2.0204 -2.8787  2.0040
 7591TIP3   OH244187   6.633   6.244  11.085 -0.3643 -0.4879 -0.2669
 7591TIP3    H144188   6.560   6.186  11.105  0.1548 -0.9809  0.2197
 7591TIP3    H244189   6.695   6.188  11.037  0.1303 -0.3301  0.1915
 7592TIP3   OH244190   5.602   4.752  15.630 -0.1858  0.3906 -0.0800
 7592TIP3    H144191   5.541   4.709  15.690  0.4627 -0.7144 -0.1909
 7592TIP3    H244192   5.599   4.699  15.550  0.0336  1.0182 -0.5170
 7593TIP3   OH244193   5.499   2.386  12.610  0.2688 -0.2417 -0.6652
 7593TIP3    H144194   5.572   2.430  12.566 -0.2170 -1.5382 -2.9178
 7593TIP3    H244195   5.508   2.294  12.587 -1.4520 -0.6116 -0.0706
 7594TIP3   OH244196   2.824   0.867   1.238 -0.3517 -0.4059  0.9113
 7594TIP3    H144197   2.872   0.889   1.159 -2.0933  0.3327  0.0023
 7594TIP3    H244198   2.857   0.781   1.264  1.1640 -0.0812  0.1483
 7595TIP3   OH244199   2.208   3.772  13.875 -0.2450 -0.1943 -0.1174
 7595TIP3    H144200   2.232   3.795  13.786 -1.4232 -1.1765 -0.7111
 7595TIP3    H244201   2.113   3.783  13.879 -0.3101 -0.8843  0.7882
 7596TIP3   OH244202   4.898   1.104   2.894  0.0768  0.0135 -0.1981
 7596TIP3    H144203   4.848   1.176   2.854 -2.8648 -1.0003  1.3369
 7596TIP3    H244204   4.870   1.026   2.846  2.5749 -0.3170 -1.2621
 7597TIP3   OH244205   2.448   1.541  14.789 -0.1912  0.1714 -0.3257
 7597TIP3    H144206   2.376   1.581  14.838 -1.6296 -0.1505 -2.0833
 7597TIP3    H244207   2.505   1.615  14.767  0.2780  0.3810  1.3994
 7598TIP3   OH244208   5.518   0.620  16.352  0.3171 -0.0748  0.3880
 7598TIP3    H144209   5.578   0.675  16.402  0.2713  0.6256 -0.3062
 7598TIP3    H244210   5.547   0.531  16.369  0.5830  0.1770  1.2916
 7599TIP3   OH244211   5.333   0.937  13.944  0.4593  0.1455  0.1026
 7599TIP3    H144212   5.296   1.001  14.005 -1.2899  0.1714 -0.9305
 7599TIP3    H244213   5.312   0.852  13.983 -0.5249  0.1640 -0.3702
 7600TIP3   OH244214   3.141   5.434   4.720  0.0976  0.0126 -0.1238
 7600TIP3    H144215   3.121   5.527   4.710  2.1536  0.3346 -1.7971
 7600TIP3    H244216   3.185   5.428   4.805  0.4806  0.6610 -0.2709
 7601TIP3   OH244217   5.415   5.262   2.358 -0.1358  0.2258  0.2716
 7601TIP3    H144218   5.488   5.246   2.298 -1.3217  2.6903 -2.0196
 7601TIP3    H244219   5.352   5.193   2.337 -0.2410  0.6424 -0.8761
 7602TIP3   OH244220   2.159   3.814   2.915 -0.1500 -0.0728  0.1080
 7602TIP3    H144221   2.114   3.865   2.982 -0.6922  0.6535 -0.7838
 7602TIP3    H244222   2.164   3.873   2.839  1.0878 -0.6239 -0.2578
 7603TIP3   OH244223   1.952   6.427  12.986  0.2873  0.4606 -0.6754
 7603TIP3    H144224   1.859   6.441  13.000  0.2518 -0.7055  0.4559
 7603TIP3    H244225   1.978   6.496  12.926 -1.3694  0.6028 -1.2783
 7604TIP3   OH244226   6.368   5.922  14.745 -0.0846  0.1194  0.2995
 7604TIP3    H144227   6.298   5.858  14.758 -0.4490  0.0524 -1.7253
 7604TIP3    H244228   6.352   5.988  14.812 -0.8743 -0.9007  1.1548
 7605TIP3   OH244229   0.433   3.599   2.319  0.2047  0.4178 -0.3974
 7605TIP3    H144230   0.340   3.616   2.306  0.1148  0.8221  0.7108
 7605TIP3    H244231   0.465   3.675   2.367  0.5052 -0.9276  1.6639
 7606TIP3   OH244232   2.008   0.092   1.546 -0.2469  0.8205 -0.1317
 7606TIP3    H144233   2.027   0.185   1.536 -0.1568  0.7596 -0.5624
 7606TIP3    H244234   1.954   0.086   1.625  2.9005  0.8519  2.2288
 7607TIP3   OH244235   3.612   0.732   3.492 -0.2833  0.0278 -0.2851
 7607TIP3    H144236   3.580   0.776   3.571 -0.6559 -1.2495  0.3128
 7607TIP3    H244237   3.681   0.789   3.458 -0.4843  0.8563  0.6682
 7608TIP3   OH244238   0.663   5.902  13.922  0.0735  0.1738  0.0910
 7608TIP3    H144239   0.568   5.892  13.932  0.2744 -2.3170  0.0440
 7608TIP3    H244240   0.679   5.882  13.830  0.7001  0.2921  0.1688
 7609TIP3   OH244241   4.552   0.895   2.587 -0.4042  0.0993  0.1094
 7609TIP3    H144242   4.537   0.905   2.493  0.5966 -0.5776 -0.1390
 7609TIP3    H244243   4.532   0.804   2.605  0.7434 -0.1326  0.2745
 7610TIP3   OH244244   5.434   1.593  13.444 -0.0909  0.6340 -0.1755
 7610TIP3    H144245   5.467   1.681  13.455  0.5252  0.2422  1.2472
 7610TIP3    H244246   5.389   1.573  13.526 -1.9523  0.3177 -1.1981
 7611TIP3   OH244247   5.879   1.618  12.546  0.1951  0.0259 -0.6419
 7611TIP3    H144248   5.810   1.557  12.574 -2.0662  2.5647 -0.2550
 7611TIP3    H244249   5.865   1.628  12.452  0.2606  0.3120 -0.6201
 7612TIP3   OH244250   3.081   5.806  13.896  0.1052  0.4160 -0.0076
 7612TIP3    H144251   3.030   5.727  13.916 -2.0577  2.0036  1.1698
 7612TIP3    H244252   3.138   5.780  13.823 -1.6403 -1.7861 -0.7027
 7613TIP3   OH244253   0.794   1.727  15.251 -0.5146 -0.4016  0.7911
 7613TIP3    H144254   0.877   1.708  15.295  2.4083  1.4042 -3.3180
 7613TIP3    H244255   0.791   1.822  15.246 -0.9096 -0.4917 -2.2248
 7614TIP3   OH244256   3.119   1.724  10.775  0.1587  0.3067 -0.2727
 7614TIP3    H144257   3.127   1.632  10.750 -0.5565  0.1182  0.1610
 7614TIP3    H244258   3.061   1.762  10.710 -1.6960 -0.1824  1.0328
 7615TIP3   OH244259   0.002   2.268   5.239 -0.1048 -0.3983  0.3159
 7615TIP3    H144260  -0.062   2.332   5.210 -0.5160 -0.6931  0.5715
 7615TIP3    H244261   0.071   2.321   5.280 -0.3664 -0.1049  0.3840
 7616TIP3   OH244262   3.400   0.568  17.290  0.2058  0.3723  0.0135
 7616TIP3    H144263   3.465   0.507  17.324  0.1910  0.7479  0.7289
 7616TIP3    H244264   3.452   0.636  17.246  0.2100 -0.2962 -1.0484
 7617TIP3   OH244265   6.294   3.616  17.378 -0.5923 -0.1776 -0.0730
 7617TIP3    H144266   6.259   3.614  17.467 -0.5585 -0.0414 -0.0565
 7617TIP3    H244267   6.223   3.581  17.324 -0.4106 -0.7824  0.0768
 7618TIP3   OH244268   1.892   2.230   5.287 -0.0866 -0.3358  1.3462
 7618TIP3    H144269   1.986   2.225   5.268 -0.6152  1.6345 -2.7448
 7618TIP3    H244270   1.884   2.304   5.347  0.8643  0.2868  0.7272
 7619TIP3   OH244271   2.011   6.502   5.157 -0.1726  0.6271 -0.2521
 7619TIP3    H144272   1.982   6.451   5.232 -0.3143  1.7270  0.4498
 7619TIP3    H244273   2.008   6.593   5.186 -0.0333  1.0591 -1.5211
 7620TIP3   OH244274   5.741   4.497  15.746 -0.2658  0.0747 -0.1330
 7620TIP3    H144275   5.671   4.496  15.812 -1.0033 -2.1735 -0.8716
 7620TIP3    H244276   5.783   4.411  15.754  1.6099  0.8965 -0.5907
 7621TIP3   OH244277   0.373   5.707   2.012 -0.1474 -0.1076  0.2300
 7621TIP3    H144278   0.389   5.790   2.056  1.5691 -0.4011  0.2339
 7621TIP3    H244279   0.302   5.666   2.062  0.3108  0.5039  1.4201
 7622TIP3   OH244280   4.995   1.797  14.736  0.2219  0.2422 -0.4407
 7622TIP3    H144281   4.953   1.880  14.756  1.5315  0.5437  1.3422
 7622TIP3    H244282   4.942   1.731  14.780  1.5110  0.6260  1.8509
 7623TIP3   OH244283   6.728   2.786   4.506  0.6642 -0.3249 -0.2316
 7623TIP3    H144284   6.801   2.834   4.467  0.8055 -0.9238 -0.7264
 7623TIP3    H244285   6.766   2.743   4.583  0.1261  1.7754  1.2866
 7624TIP3   OH244286   4.538   5.907   4.711  0.2683  0.5321  0.2090
 7624TIP3    H144287   4.493   5.974   4.660  0.4673  0.7137  0.2730
 7624TIP3    H244288   4.617   5.950   4.744  0.7822  0.0451 -0.3785
 7625TIP3   OH244289   3.102   5.853  15.768 -0.0437 -0.6740  0.1045
 7625TIP3    H144290   3.193   5.868  15.793 -0.3726  0.9497  0.4092
 7625TIP3    H244291   3.107   5.796  15.691  1.2553  0.0686 -0.3805
 7626TIP3   OH244292   6.762   0.017  12.997  0.5711 -0.1850 -0.0346
 7626TIP3    H144293   6.767   0.037  12.904 -1.3284  0.2051 -0.0986
 7626TIP3    H244294   6.786   0.099  13.040  1.5267 -0.3870 -0.1564
 7627TIP3   OH244295   1.874   2.310  15.181 -0.0269  0.3404  0.1347
 7627TIP3    H144296   1.933   2.262  15.240 -1.3085 -0.6684  0.6548
 7627TIP3    H244297   1.826   2.370  15.238 -0.2915  0.3569 -0.1047
 7628TIP3   OH244298   2.890   5.335   3.939  0.1332  0.6566 -0.4257
 7628TIP3    H144299   2.938   5.254   3.920  1.2558  1.7517 -2.6386
 7628TIP3    H244300   2.907   5.351   4.032  0.0107 -1.5331  0.0259
 7629TIP3   OH244301   1.624   5.636  15.802  0.4700  0.1516 -0.1692
 7629TIP3    H144302   1.539   5.680  15.806  1.4392  2.1036  0.1844
 7629TIP3    H244303   1.627   5.598  15.715 -0.1326  1.4802 -0.8022
 7630TIP3   OH244304   6.432   1.011   6.622 -0.6996  0.3675  0.3135
 7630TIP3    H144305   6.423   0.954   6.546  3.1748  0.2461 -0.2548
 7630TIP3    H244306   6.509   0.977   6.668 -0.7801  2.6264  2.2781
 7631TIP3   OH244307   5.415   0.921  11.040  0.1253  0.4662  0.4674
 7631TIP3    H144308   5.434   0.840  10.994 -3.2610  0.7140 -1.7462
 7631TIP3    H244309   5.367   0.893  11.118  3.4064  0.2106  2.5624
 7632TIP3   OH244310   5.061   3.349  12.914 -0.0616  0.6925  0.5839
 7632TIP3    H144311   5.026   3.418  12.971 -2.1899 -0.4538  0.8045
 7632TIP3    H244312   5.111   3.395  12.847 -1.8222  2.5177  0.4344
 7633TIP3   OH244313   0.815   2.884   0.295  0.1203  0.0494 -0.0753
 7633TIP3    H144314   0.885   2.852   0.238 -1.8723 -1.0905 -2.0165
 7633TIP3    H244315   0.740   2.829   0.275 -1.2216  0.8443  2.3509
 7634TIP3   OH244316   4.549   0.409  11.000 -0.7573 -0.1441 -0.3825
 7634TIP3    H144317   4.628   0.440  10.957 -0.7824 -0.3670 -0.5999
 7634TIP3    H244318   4.478   0.434  10.940 -0.9183  0.6240  0.1197
 7635TIP3   OH244319   5.329   3.404   1.140 -0.5627 -0.0216 -0.0875
 7635TIP3    H144320   5.302   3.496   1.141 -0.2410  0.0721 -0.0649
 7635TIP3    H244321   5.354   3.388   1.049 -3.0117 -0.7876 -0.6949
 7636TIP3   OH244322   4.800   0.623   3.380  0.4103  0.4005  0.2668
 7636TIP3    H144323   4.794   0.571   3.299 -0.6061 -1.9391  1.7543
 7636TIP3    H244324   4.880   0.593   3.422 -1.0913 -1.4615  2.0145
 7637TIP3   OH244325   1.015   5.346   4.169  0.1402 -0.0719 -0.1194
 7637TIP3    H144326   1.014   5.253   4.148  0.5077 -0.2573  0.6709
 7637TIP3    H244327   1.092   5.380   4.124 -0.2015 -0.0660 -0.7166
 7638TIP3   OH244328   3.025   6.101   4.964  0.5200 -0.0036  0.1769
 7638TIP3    H144329   3.063   6.171   4.911 -0.0639  0.8407  0.8315
 7638TIP3    H244330   3.097   6.042   4.983  0.5964 -0.7551 -2.1874
 7639TIP3   OH244331   5.062   3.316  16.133  0.1910 -0.5430  0.3803
 7639TIP3    H144332   5.127   3.359  16.189 -0.4816  0.5692  0.3364
 7639TIP3    H244333   4.977   3.343  16.169 -0.2490  0.1006 -1.0844
 7640TIP3   OH244334   1.646   3.650   5.522 -0.0143  0.0455 -0.7510
 7640TIP3    H144335   1.595   3.648   5.603  0.0113 -0.3381 -0.7439
 7640TIP3    H244336   1.584   3.674   5.454  0.1635  1.4150 -0.4703
 7641TIP3   OH244337   2.747   4.455   4.285  0.5184  0.4301 -0.1828
 7641TIP3    H144338   2.792   4.463   4.201  1.6283 -2.1631  0.0640
 7641TIP3    H244339   2.815   4.471   4.350 -0.0144  1.0692  0.2268
 7642TIP3   OH244340   3.395   2.519   2.913 -0.5163 -0.0134  0.6943
 7642TIP3    H144341   3.360   2.437   2.877  0.4230  0.1111 -0.6184
 7642TIP3    H244342   3.487   2.499   2.933 -0.1531  0.8147 -0.0549
 7643TIP3   OH244343   4.487   1.536  17.176 -0.3834  0.5590 -0.1122
 7643TIP3    H144344   4.484   1.486  17.257 -0.8506  0.2430 -0.3171
 7643TIP3    H244345   4.492   1.627  17.204 -0.1252  0.4315  0.2685
 7644TIP3   OH244346   4.984   4.132   3.325  0.3507  0.1116 -0.5260
 7644TIP3    H144347   5.063   4.107   3.373 -0.1586  0.0584  0.2935
 7644TIP3    H244348   4.942   4.048   3.303 -0.4857  0.1600  0.7611
 7645TIP3   OH244349   6.424   4.144   5.356  0.2729 -0.0663  0.0752
 7645TIP3    H144350   6.350   4.085   5.367 -0.6954  1.3136  1.3432
 7645TIP3    H244351   6.455   4.128   5.267 -0.6645 -1.6549  0.0079
 7646TIP3   OH244352   2.077   3.706   3.624  0.2331 -0.3553 -0.2717
 7646TIP3    H144353   2.024   3.652   3.565 -1.0957 -0.4688  0.9548
 7646TIP3    H244354   2.013   3.763   3.667  0.9733 -1.0103  1.8349
 7647TIP3   OH244355   1.592   6.679   2.303 -0.0209  0.2761 -0.0761
 7647TIP3    H144356   1.616   6.672   2.396  0.3476  0.0811 -0.1800
 7647TIP3    H244357   1.631   6.761   2.274 -0.5576  0.5807  0.0615
 7648TIP3   OH244358   2.652   3.204  17.194 -0.0225  0.2056 -0.2583
 7648TIP3    H144359   2.589   3.133  17.209  0.0640  0.2532  0.3841
 7648TIP3    H244360   2.704   3.175  17.120 -0.4046 -0.1149 -0.4054
 7649TIP3   OH244361   5.692   0.037   3.527  0.0328 -0.7345 -0.6098
 7649TIP3    H144362   5.652  -0.046   3.500 -0.5342  0.0836 -2.4555
 7649TIP3    H244363   5.619   0.099   3.529  0.1988 -0.5061  2.0959
 7650TIP3   OH244364   5.234   1.201   2.560 -0.1459  0.3045  0.4269
 7650TIP3    H144365   5.303   1.212   2.626  0.3590  1.1923 -0.2233
 7650TIP3    H244366   5.215   1.290   2.531  1.5423 -0.1801 -2.5340
 7651TIP3   OH244367   1.505   6.530  13.205 -0.0765  0.7253 -0.0914
 7651TIP3    H144368   1.419   6.571  13.193  0.7440  2.0965 -1.7751
 7651TIP3    H244369   1.509   6.509  13.298 -2.3134  0.4034 -0.0148
 7652TIP3   OH244370   0.373   5.057  13.628 -0.3419 -0.1161 -0.1734
 7652TIP3    H144371   0.417   5.011  13.699  0.9944 -0.6456 -1.3080
 7652TIP3    H244372   0.323   5.126  13.671 -0.5572 -1.1960  1.3739
 7653TIP3   OH244373   2.644   3.955   0.002  0.1346 -0.3380  0.6405
 7653TIP3    H144374   2.720   3.940   0.058  1.1106  1.9434  0.0145
 7653TIP3    H244375   2.578   3.991   0.061 -0.1454 -1.3454  0.9763
 7654TIP3   OH244376   6.351   6.372  17.232  0.0087  0.0978  0.1510
 7654TIP3    H144377   6.324   6.284  17.257  2.3304 -0.7036  0.1155
 7654TIP3    H244378   6.388   6.409  17.312 -2.0029  1.5577  0.4827
 7655TIP3   OH244379   3.270   3.550   4.753 -0.1968 -0.7399  0.2015
 7655TIP3    H144380   3.270   3.580   4.662  1.2702 -1.2440  0.0102
 7655TIP3    H244381   3.307   3.623   4.802  0.0799 -0.9019  0.2335
 7656TIP3   OH244382   4.798   3.954   0.934 -0.2074  1.0204  0.0286
 7656TIP3    H144383   4.809   4.009   1.012 -1.3825  1.9980 -0.4540
 7656TIP3    H244384   4.854   3.879   0.949  2.0999  2.7080  0.3861
 7657TIP3   OH244385   1.957   6.314  15.923  0.3254  0.1745 -0.0569
 7657TIP3    H144386   1.947   6.382  15.856 -1.1797  0.6531  0.6178
 7657TIP3    H244387   2.048   6.325  15.954  1.3160 -0.5607 -2.4830
 7658TIP3   OH244388   1.553   1.096   5.733 -0.1233 -0.8023  0.0102
 7658TIP3    H144389   1.531   1.179   5.775  0.4947 -1.5571  1.8937
 7658TIP3    H244390   1.505   1.030   5.783 -0.8267 -1.6036 -1.6239
 7659TIP3   OH244391   4.591   2.868   6.010  0.0930 -0.3220  0.0150
 7659TIP3    H144392   4.594   2.822   6.093  0.3383  1.5452  1.1060
 7659TIP3    H244393   4.598   2.961   6.034 -0.6932  0.3198 -2.0239
 7660TIP3   OH244394   0.149   4.415   0.320  0.0548  0.1838 -0.5327
 7660TIP3    H144395   0.148   4.511   0.326 -1.1970  0.1284  0.9172
 7660TIP3    H244396   0.098   4.395   0.242 -1.0789  0.6784  0.0674
 7661TIP3   OH244397   4.718   6.185  10.905 -0.3028 -0.8016 -0.1394
 7661TIP3    H144398   4.802   6.145  10.882 -1.0312 -3.2072  1.0426
 7661TIP3    H244399   4.701   6.246  10.833  2.3722 -0.2894 -0.4590
 7662TIP3   OH244400   5.761   3.052   3.492 -1.0361  1.1149 -0.5301
 7662TIP3    H144401   5.714   3.136   3.491 -1.2803  0.9749 -1.3817
 7662TIP3    H244402   5.692   2.986   3.501 -0.7316  1.0432  2.4347
 7663TIP3   OH244403   4.099   4.097  12.550 -0.2151  0.1855 -0.2133
 7663TIP3    H144404   4.129   4.136  12.632 -0.5666 -0.3286  0.1658
 7663TIP3    H244405   4.162   4.027  12.532  0.6707  1.1894 -1.1218
 7664TIP3   OH244406   2.453   1.892  15.712 -0.4128 -0.3963  0.1721
 7664TIP3    H144407   2.359   1.886  15.729 -0.4574  0.0851  0.0869
 7664TIP3    H244408   2.481   1.972  15.755 -0.0035 -0.6283  0.3503
 7665TIP3   OH244409   5.826   3.888   1.727  0.0403 -0.4979  0.2352
 7665TIP3    H144410   5.855   3.938   1.651 -0.5871  0.4146  0.5785
 7665TIP3    H244411   5.773   3.817   1.691  0.0927 -0.3133 -0.2063
 7666TIP3   OH244412   0.141   4.020  14.520 -0.2002 -0.1061  0.2841
 7666TIP3    H144413   0.101   4.054  14.440  0.9802  1.4248  0.2986
 7666TIP3    H244414   0.073   3.966  14.560 -1.6225  1.0083 -0.5455
 7667TIP3   OH244415   3.012   3.378   4.042  0.5023  0.1046 -0.1157
 7667TIP3    H144416   3.080   3.415   3.986  1.3528 -0.7214  0.3301
 7667TIP3    H244417   3.008   3.286   4.017 -0.5259  0.1612 -0.1946
 7668TIP3   OH244418   6.200   0.192   3.656 -0.6248 -0.0969  0.6885
 7668TIP3    H144419   6.260   0.123   3.628 -1.1196  0.1561 -1.1847
 7668TIP3    H244420   6.116   0.167   3.616 -1.0062  1.1350  0.6881
 7669TIP3   OH244421   0.692   5.808  12.996 -0.1092  0.1545 -0.0421
 7669TIP3    H144422   0.776   5.807  13.042 -0.5184  0.9289  0.7507
 7669TIP3    H244423   0.633   5.853  13.056 -0.1711  3.2740 -2.2103
 7670TIP3   OH244424   5.742   1.355  16.948  0.0689 -0.4844 -0.2404
 7670TIP3    H144425   5.828   1.331  16.912 -0.3336 -1.0845 -0.8135
 7670TIP3    H244426   5.730   1.446  16.921  0.7081 -0.2571  0.2092
 7671TIP3   OH244427   1.955   1.568   1.779  0.2566 -0.3138  0.2487
 7671TIP3    H144428   2.045   1.595   1.796  0.1129  1.0730 -1.0460
 7671TIP3    H244429   1.961   1.510   1.703 -0.0012  0.3548 -0.2930
 7672TIP3   OH244430   1.154   6.047  14.263  0.6165 -0.5786  0.3231
 7672TIP3    H144431   1.220   6.088  14.208  1.5318 -2.0454  0.2624
 7672TIP3    H244432   1.107   5.988  14.203  0.0297 -0.4169  0.6144
 7673TIP3   OH244433   0.807   4.737  16.711 -0.5303  0.3473 -0.1912
 7673TIP3    H144434   0.814   4.685  16.791 -0.9611 -0.8624 -0.9181
 7673TIP3    H244435   0.876   4.702  16.655 -0.8397  0.5467 -0.6975
 7674TIP3   OH244436   5.281   6.347   4.871 -0.0041 -0.0533  0.3040
 7674TIP3    H144437   5.305   6.263   4.832 -0.7298  0.8194 -2.2175
 7674TIP3    H244438   5.185   6.345   4.875 -0.1143  1.1167 -1.0284
 7675TIP3   OH244439   6.726   6.307   1.936 -0.6006 -0.6048 -0.1798
 7675TIP3    H144440   6.674   6.379   1.900  1.0106  0.9068  0.3738
 7675TIP3    H244441   6.665   6.260   1.993 -1.6548  0.4296 -0.4059
 7676TIP3   OH244442   4.699   0.010  13.628  0.7272 -0.3114 -0.0221
 7676TIP3    H144443   4.716  -0.082  13.646 -0.6399 -0.4891  0.3997
 7676TIP3    H244444   4.637   0.038  13.695 -2.2166 -0.2136 -2.5346
 7677TIP3   OH244445   3.349   3.209  15.382 -0.0832 -0.4724  0.0339
 7677TIP3    H144446   3.343   3.264  15.460 -0.4187 -0.0903 -0.2597
 7677TIP3    H244447   3.310   3.261  15.312 -0.4615 -1.0991 -0.2385
 7678TIP3   OH244448   1.251   6.195   5.769  0.1342  0.7360  0.8746
 7678TIP3    H144449   1.253   6.279   5.722  1.2393  0.4522  0.3735
 7678TIP3    H244450   1.312   6.207   5.842 -0.1650  0.5620  1.1557
 7679TIP3   OH244451   3.915   2.138   4.945 -0.2727  0.0382  0.1157
 7679TIP3    H144452   4.004   2.104   4.956 -0.7986 -2.0284 -1.3533
 7679TIP3    H244453   3.890   2.168   5.032  1.3708 -0.6402  0.8732
 7680TIP3   OH244454   2.515   0.980  13.382 -0.2570 -0.0588 -0.0992
 7680TIP3    H144455   2.593   1.029  13.356 -1.3811  1.8680 -0.0316
 7680TIP3    H244456   2.471   1.037  13.445 -1.1050 -1.6480  0.8214
 7681TIP3   OH244457   2.259   3.592  14.818 -0.1147 -0.4712  0.5085
 7681TIP3    H144458   2.257   3.685  14.795  1.2817 -0.5716 -0.0875
 7681TIP3    H244459   2.204   3.551  14.751 -0.4779 -0.1188  0.5850
 7682TIP3   OH244460   5.986   3.279   0.731  0.5578 -0.0047 -0.1379
 7682TIP3    H144461   6.029   3.229   0.801  1.3713  1.5531  0.5269
 7682TIP3    H244462   5.999   3.226   0.653  1.0566 -1.0241  0.6098
 7683TIP3   OH244463   3.937   4.417   3.434 -0.5164  0.2698 -0.6162
 7683TIP3    H144464   3.975   4.404   3.347 -0.9495  2.4932 -1.1851
 7683TIP3    H244465   3.844   4.397   3.423 -0.2648 -1.2165 -0.1989
 7684TIP3   OH244466   0.288   5.163  11.939 -0.2348  0.5166 -0.2153
 7684TIP3    H144467   0.291   5.239  11.997  2.1631  0.4979 -0.2211
 7684TIP3    H244468   0.205   5.120  11.960 -1.3914  2.8061  0.1761
 7685TIP3   OH244469   6.257   6.140   4.718 -0.0824 -0.2688  0.1645
 7685TIP3    H144470   6.299   6.225   4.722 -0.9012  0.1775 -0.4275
 7685TIP3    H244471   6.324   6.082   4.681  1.0630 -0.2916  2.1520
 7686TIP3   OH244472   0.312   5.323   1.244 -0.4284 -0.2231 -0.0833
 7686TIP3    H144473   0.366   5.328   1.323 -0.2074 -0.2330 -0.2333
 7686TIP3    H244474   0.240   5.384   1.260  0.2992  0.7418 -0.4029
 7687TIP3   OH244475   3.679   2.873   2.506 -0.3034 -0.4743  0.7350
 7687TIP3    H144476   3.762   2.912   2.534  0.1928 -2.4176  2.1846
 7687TIP3    H244477   3.667   2.904   2.416  3.0788 -1.7538 -0.3232
 7688TIP3   OH244478   1.892   6.569  13.520 -0.2445  0.1776  0.0823
 7688TIP3    H144479   1.839   6.541  13.445 -1.8397 -1.4649  1.7150
 7688TIP3    H244480   1.843   6.642  13.558  0.5589  1.0035 -0.4061
 7689TIP3   OH244481   2.053   5.471  14.566 -0.1471  0.3303 -0.2563
 7689TIP3    H144482   2.130   5.508  14.522 -0.4947  1.7580  0.2726
 7689TIP3    H244483   2.089   5.413  14.632  0.4530  0.2550 -0.6367
 7690TIP3   OH244484   0.828   0.869  15.192  0.3718  0.3689  0.4683
 7690TIP3    H144485   0.870   0.790  15.157 -1.3266 -1.2526  1.9025
 7690TIP3    H244486   0.901   0.926  15.214  1.6822 -0.8834 -0.3691
 7691TIP3   OH244487   3.310   4.355  15.662 -0.3197 -0.4101 -0.6767
 7691TIP3    H144488   3.322   4.324  15.752  1.4534 -1.1216 -1.1087
 7691TIP3    H244489   3.273   4.280  15.616  0.0166 -0.4924 -0.8154
 7692TIP3   OH244490   4.696   2.162   2.627  0.5227  0.3528  0.0363
 7692TIP3    H144491   4.791   2.173   2.627  0.9667 -2.5792 -1.5118
 7692TIP3    H244492   4.683   2.068   2.637 -2.1674  0.4892 -1.4516
 7693TIP3   OH244493   0.594   3.946  14.745  0.3985  0.5815 -0.4142
 7693TIP3    H144494   0.618   4.012  14.811  0.9114 -0.6697  0.6808
 7693TIP3    H244495   0.503   3.925  14.767  0.2447  0.8922 -0.7460
 7694TIP3   OH244496   0.747   4.407   3.923 -0.3618 -0.6626  0.0918
 7694TIP3    H144497   0.751   4.417   3.828 -1.1847 -0.3996  0.0774
 7694TIP3    H244498   0.666   4.451   3.948 -1.1683 -2.4222  0.6856
 7695TIP3   OH244499   5.479   0.350   0.735 -0.0218  0.3234 -0.2570
 7695TIP3    H144500   5.459   0.413   0.666 -0.7900 -0.6180 -0.9229
 7695TIP3    H244501   5.394   0.326   0.772  0.2996  0.0573  0.3337
 7696TIP3   OH244502   1.160   5.993   1.926 -0.2704 -0.5344 -0.3396
 7696TIP3    H144503   1.082   5.938   1.916  0.9430 -2.2038 -1.0804
 7696TIP3    H244504   1.177   6.027   1.838  0.0329 -0.4696 -0.2580
 7697TIP3   OH244505   0.318   2.465   3.808  0.2740 -0.1772  0.1252
 7697TIP3    H144506   0.224   2.469   3.827  0.6131 -0.7069  2.0675
 7697TIP3    H244507   0.345   2.556   3.803 -0.1950 -0.0263  0.2559
 7698TIP3   OH244508   2.279   6.489   0.183 -0.3848 -0.0548  0.2511
 7698TIP3    H144509   2.201   6.493   0.128 -0.6383 -0.3978  0.5808
 7698TIP3    H244510   2.315   6.577   0.181 -0.9975  0.2008  0.4043
 7699TIP3   OH244511   1.847   0.606   0.908  0.1428 -0.4115 -0.2782
 7699TIP3    H144512   1.936   0.574   0.892  0.3161  0.9038 -2.2666
 7699TIP3    H244513   1.791   0.536   0.877  0.5086 -0.1989 -1.4587
 7700TIP3   OH244514   3.142   1.452   0.565 -0.3291 -0.3423 -0.5004
 7700TIP3    H144515   3.086   1.416   0.633  0.0286 -0.3428 -0.2072
 7700TIP3    H244516   3.097   1.532   0.537 -0.4876 -0.3544 -0.2814
 7701TIP3   OH244517   5.302   2.286  12.182  0.3912  0.1309  0.0708
 7701TIP3    H144518   5.211   2.258  12.174  0.5671 -1.2366  2.0347
 7701TIP3    H244519   5.322   2.330  12.100 -2.0953  0.6414 -0.3141
 7702TIP3   OH244520   1.368   6.035  17.256 -0.5413 -0.2285 -0.9059
 7702TIP3    H144521   1.300   6.101  17.251  0.4381  0.7700 -1.5357
 7702TIP3    H244522   1.331   5.959  17.211 -0.8546  0.6481 -2.1672
 7703TIP3   OH244523   0.745   2.677   2.741 -0.0881 -0.1277 -0.3593
 7703TIP3    H144524   0.687   2.753   2.748  1.3838  1.2124 -1.9087
 7703TIP3    H244525   0.687   2.605   2.718 -1.7463  0.1109  2.5910
 7704TIP3   OH244526   3.267   0.728  11.395  0.1929  0.1231  0.0111
 7704TIP3    H144527   3.339   0.692  11.344  0.1932 -0.2002  0.2344
 7704TIP3    H244528   3.252   0.663  11.464 -1.7293 -0.9130 -1.2820
 7705TIP3   OH244529   2.141   2.402   5.046 -0.3661 -0.3168  0.4740
 7705TIP3    H144530   2.151   2.495   5.025 -0.6515 -0.9852 -3.4994
 7705TIP3    H244531   2.047   2.387   5.045 -0.2882 -0.8361 -0.2118
 7706TIP3   OH244532   4.122   3.992  13.154  0.0417  0.2072  0.2926
 7706TIP3    H144533   4.105   3.914  13.100 -1.5362 -0.2984  1.4488
 7706TIP3    H244534   4.213   4.015  13.134  0.1831 -1.2362 -0.9478
 7707TIP3   OH244535   4.833   3.035   3.955 -0.5682 -0.0945  0.3783
 7707TIP3    H144536   4.918   3.080   3.960  0.2779 -1.6140  0.1268
 7707TIP3    H244537   4.823   3.013   3.863  0.1340 -2.3821  0.7850
 7708TIP3   OH244538   5.940   3.494   5.175  0.1448 -0.3546 -0.2415
 7708TIP3    H144539   5.974   3.493   5.085 -0.9432 -0.6954 -0.6672
 7708TIP3    H244540   6.018   3.496   5.230  0.8427 -0.7002 -1.1891
 7709TIP3   OH244541   4.768   0.752   3.817 -0.2402 -0.1323  0.6122
 7709TIP3    H144542   4.772   0.689   3.745  0.7726 -1.6872  1.9343
 7709TIP3    H244543   4.681   0.792   3.810 -1.3533 -2.4235  0.2686
 7710TIP3   OH244544   6.698   0.656   2.704  0.5626 -0.3241 -0.0203
 7710TIP3    H144545   6.738   0.709   2.774 -0.2542 -0.7888  0.8268
 7710TIP3    H244546   6.745   0.682   2.625 -0.9098  2.9595  0.0003
 7711TIP3   OH244547   0.306   4.530  11.823 -0.5550  0.3135  0.2719
 7711TIP3    H144548   0.374   4.593  11.845  2.4544 -2.1384 -1.1943
 7711TIP3    H244549   0.286   4.547  11.731 -1.2100  0.3736  0.4206
 7712TIP3   OH244550   2.725   1.718   0.802 -0.3118  0.1333 -0.3900
 7712TIP3    H144551   2.732   1.770   0.882  1.1933 -0.2744 -0.2304
 7712TIP3    H244552   2.721   1.783   0.732  1.0989  0.5022 -0.1635
 7713TIP3   OH244553   3.103   3.321   1.316 -0.2342 -0.5586 -0.4566
 7713TIP3    H144554   3.036   3.384   1.344 -0.0747 -0.4765 -0.2559
 7713TIP3    H244555   3.140   3.359   1.236  0.2053 -0.1468 -0.0657
 7714TIP3   OH244556   4.223   5.021   3.285 -0.0172 -0.2053  0.2512
 7714TIP3    H144557   4.175   5.055   3.360 -0.5363  0.0626 -0.1997
 7714TIP3    H244558   4.217   4.926   3.294  0.2020 -0.1785  0.7239
 7715TIP3   OH244559   6.202   6.582   1.238 -0.1760  0.1283  0.6325
 7715TIP3    H144560   6.120   6.554   1.279 -0.5072  0.2052  0.0334
 7715TIP3    H244561   6.178   6.659   1.186  0.2430  0.0591  0.3311
 7716TIP3   OH244562   5.160   4.726  14.368  0.1793 -0.5050 -0.1691
 7716TIP3    H144563   5.178   4.665  14.297  2.0783 -2.9698  2.2117
 7716TIP3    H244564   5.247   4.759  14.393 -0.3952  0.0479  1.1888
 7717TIP3   OH244565   0.934   6.375  16.204  0.5690  0.1599  0.1856
 7717TIP3    H144566   0.858   6.402  16.256  0.2960 -1.6081  0.8119
 7717TIP3    H244567   1.000   6.352  16.270  0.3108 -1.8587 -0.1741
 7718TIP3   OH244568   2.477   4.533  11.381 -0.0891  0.4255  0.3089
 7718TIP3    H144569   2.452   4.454  11.333 -0.6158  1.1791 -0.6671
 7718TIP3    H244570   2.560   4.560  11.342 -0.4709  0.9849 -0.1225
 7719TIP3   OH244571   5.326   2.130  10.384  0.5800 -0.4563 -0.9247
 7719TIP3    H144572   5.389   2.091  10.444 -0.9297 -0.0954  1.0052
 7719TIP3    H244573   5.379   2.169  10.315  2.5086  0.4384  0.9620
 7720TIP3   OH244574   0.789   2.237  16.365 -0.3860 -0.4238  0.1634
 7720TIP3    H144575   0.810   2.300  16.434 -1.3729 -0.9918  1.0213
 7720TIP3    H244576   0.702   2.203  16.389 -0.6457 -0.8162 -1.2361
 7721TIP3   OH244577   4.676   4.065  12.125 -0.7323 -0.1852  0.4221
 7721TIP3    H144578   4.599   4.016  12.096  0.5756 -1.2774 -1.4543
 7721TIP3    H244579   4.700   4.119  12.050  1.0252 -0.8076  0.4877
 7722TIP3   OH244580   3.835   6.190   5.515 -0.3467  0.1296  0.1168
 7722TIP3    H144581   3.877   6.137   5.582 -1.9078 -1.9163 -0.4287
 7722TIP3    H244582   3.908   6.225   5.463  0.7760 -2.1249  0.0625
 7723TIP3   OH244583   5.130   6.565   5.757 -0.0296 -0.0230  0.0028
 7723TIP3    H144584   5.147   6.650   5.717  0.1051 -0.0569 -0.0138
 7723TIP3    H244585   5.186   6.504   5.709 -2.1618 -0.6411 -1.8809
 7724TIP3   OH244586   5.753   3.348  10.910 -0.1541 -0.6913  0.4116
 7724TIP3    H144587   5.785   3.275  10.963 -0.6971 -0.3698  1.1911
 7724TIP3    H244588   5.668   3.370  10.947 -0.3596 -0.1828 -0.3304
 7725TIP3   OH244589   2.688   2.770  13.196  0.5875  0.7120  0.3426
 7725TIP3    H144590   2.593   2.772  13.198  0.6101  1.5490  2.1012
 7725TIP3    H244591   2.714   2.753  13.286  2.1095  0.7880 -0.0562
 7726TIP3   OH244592   0.840   3.747   3.704 -0.6679  0.9312 -0.6747
 7726TIP3    H144593   0.772   3.694   3.745  0.7315 -0.3015  0.1475
 7726TIP3    H244594   0.917   3.691   3.703  0.4469  2.3970 -1.2682
 7727TIP3   OH244595   3.205   1.991  15.189 -0.3637  0.3162  0.3709
 7727TIP3    H144596   3.111   1.989  15.211 -0.3723 -0.1714  0.2983
 7727TIP3    H244597   3.214   2.066  15.130 -0.7217  0.3268  0.3242
 7728TIP3   OH244598   1.933   5.723   4.412  0.0069  0.5013 -0.3867
 7728TIP3    H144599   1.863   5.786   4.429 -0.1371  0.4009 -0.5971
 7728TIP3    H244600   1.890   5.638   4.416  0.6705  0.1957  2.5212
 7729TIP3   OH244601   3.961   0.015   3.390 -0.4623  0.0065  0.6514
 7729TIP3    H144602   4.023   0.045   3.323 -0.8113  1.0509  0.7742
 7729TIP3    H244603   3.878   0.005   3.342 -0.5429  0.0666  0.7768
 7730TIP3   OH244604   2.477   5.626  13.833  0.0931  0.0012 -0.2571
 7730TIP3    H144605   2.435   5.705  13.800 -1.2439 -0.6649 -0.2165
 7730TIP3    H244606   2.415   5.556  13.814  0.1372 -0.6937  1.8715
 7731TIP3   OH244607   2.117   2.473  14.195  0.0622 -0.2542  0.0147
 7731TIP3    H144608   2.184   2.534  14.227 -1.7317  3.0585 -1.9885
 7731TIP3    H244609   2.041   2.491  14.250 -0.7595 -0.0016 -1.1675
 7732TIP3   OH244610   2.854   5.649   1.595 -0.3774 -0.2815  0.1319
 7732TIP3    H144611   2.868   5.658   1.689  0.1817  1.0946 -0.0555
 7732TIP3    H244612   2.871   5.557   1.577  0.1108 -0.4338  1.2844
 7733TIP3   OH244613   3.204   0.582   0.506 -0.5566 -0.5592 -0.8190
 7733TIP3    H144614   3.179   0.663   0.463  0.2790 -0.5479 -1.2995
 7733TIP3    H244615   3.243   0.609   0.589  1.4190 -0.3227 -1.7670
 7734TIP3   OH244616   3.319   0.880   1.706  0.1998 -0.6110 -0.6181
 7734TIP3    H144617   3.396   0.865   1.651 -0.0885 -1.1558 -0.8866
 7734TIP3    H244618   3.337   0.962   1.751  1.2305 -1.0620 -0.1767
 7735TIP3   OH244619   4.188   1.218  12.805 -0.3610  0.5083  0.3849
 7735TIP3    H144620   4.235   1.175  12.733 -2.4481 -1.4155  0.0737
 7735TIP3    H244621   4.156   1.147  12.859 -0.2152  1.8742  2.3865
 7736TIP3   OH244622   3.472   2.862   1.940 -0.5534  0.0820 -0.5118
 7736TIP3    H144623   3.446   2.892   2.027 -0.5428 -1.6788  0.1343
 7736TIP3    H244624   3.448   2.934   1.881 -0.3401  1.3939  0.9596
 7737TIP3   OH244625   3.490   2.170  15.393 -0.6458  0.0475 -0.3698
 7737TIP3    H144626   3.577   2.136  15.413 -0.0100  1.3032 -0.8875
 7737TIP3    H244627   3.497   2.203  15.303 -1.9809 -0.8143 -0.8353
 7738TIP3   OH244628   5.984   1.319  17.334 -0.4718  0.4618 -0.4118
 7738TIP3    H144629   6.031   1.396  17.363 -0.6341  0.1852  0.6132
 7738TIP3    H244630   6.035   1.287  17.259  0.6549  0.4865  0.3187
 7739TIP3   OH244631   6.025   6.419   2.413 -0.0290  0.0220  0.1259
 7739TIP3    H144632   6.048   6.503   2.453 -0.2951 -0.0141  0.3577
 7739TIP3    H244633   5.941   6.434   2.370 -0.0055 -0.0825  0.0430
 7740TIP3   OH244634   3.807   4.930   0.030 -0.4394  0.3359  0.4629
 7740TIP3    H144635   3.776   5.019   0.043  0.8551  0.6411  1.6564
 7740TIP3    H244636   3.902   4.939   0.018 -0.4134 -0.8014 -0.3297
 7741TIP3   OH244637   6.476   5.019  17.116  0.2654  0.3977  0.1158
 7741TIP3    H144638   6.557   5.057  17.083  0.7214 -1.4477 -1.0555
 7741TIP3    H244639   6.421   5.010  17.038 -0.5300  0.3700  0.6766
 7742TIP3   OH244640   0.897   2.274  14.559  0.4084 -0.2681 -0.1552
 7742TIP3    H144641   0.883   2.353  14.505  0.5297  0.9106  1.4635
 7742TIP3    H244642   0.809   2.244  14.581  0.3637  0.1181  0.1994
 7743TIP3   OH244643   3.030   6.649  11.952 -0.0436  0.6561 -0.9894
 7743TIP3    H144644   3.026   6.556  11.974 -0.3719  0.7752 -0.5238
 7743TIP3    H244645   3.040   6.651  11.857  2.0665  0.1057 -0.8305
 7744TIP3   OH244646   4.520   1.565   2.234  0.0526 -0.4263  0.6139
 7744TIP3    H144647   4.543   1.617   2.157 -3.4694  0.9802  0.3323
 7744TIP3    H244648   4.568   1.606   2.306  2.3317 -0.9221 -0.5085
 7745TIP3   OH244649   3.887   3.857   2.337  0.4946 -0.3230  0.3358
 7745TIP3    H144650   3.864   3.887   2.249 -0.3749 -0.4989  0.4905
 7745TIP3    H244651   3.977   3.886   2.349  1.0593 -1.3818 -1.0901
 7746TIP3   OH244652   6.752   5.532   0.852  0.0848  1.1641 -0.2389
 7746TIP3    H144653   6.845   5.513   0.865 -0.3064 -0.8087  0.0441
 7746TIP3    H244654   6.747   5.565   0.762  0.9056 -0.2880 -0.8681
 7747TIP3   OH244655   1.211   2.205   7.136 -0.6075  0.3225 -0.0134
 7747TIP3    H144656   1.185   2.132   7.080  0.8581 -1.1591  1.1285
 7747TIP3    H244657   1.307   2.207   7.130 -0.5147  1.0587  1.3017
 7748TIP3   OH244658   5.141   1.610  15.906 -0.8320  0.5056 -0.1259
 7748TIP3    H144659   5.206   1.658  15.957 -0.6406  0.1402 -0.0296
 7748TIP3    H244660   5.061   1.612  15.959 -0.4846 -0.3458  0.4381
 7749TIP3   OH244661   3.479   5.649   0.354  0.4599 -0.2405 -0.5729
 7749TIP3    H144662   3.418   5.653   0.281  0.4469 -0.7338 -0.5912
 7749TIP3    H244663   3.561   5.684   0.318 -0.2127  2.0139 -0.0957
 7750TIP3   OH244664   0.504   2.556  14.385 -0.6417  0.3483 -0.4059
 7750TIP3    H144665   0.563   2.519  14.319  0.2599 -0.6126  0.8855
 7750TIP3    H244666   0.447   2.615  14.336 -1.0598 -1.5134 -2.3326
 7751TIP3   OH244667   4.787   5.751  15.026 -1.3439  0.2276  0.7693
 7751TIP3    H144668   4.843   5.828  15.021  2.3365 -2.2586 -0.8987
 7751TIP3    H244669   4.760   5.746  15.118  2.0561  1.0990  1.9439
 7752TIP3   OH244670   0.237   2.061  12.545 -0.3920  0.2748 -0.3167
 7752TIP3    H144671   0.146   2.041  12.521 -0.4467 -0.7328  0.6391
 7752TIP3    H244672   0.233   2.080  12.639  0.1821  1.6914 -0.5485
 7753TIP3   OH244673   4.041   6.633  14.963 -0.2634 -0.0942 -0.2114
 7753TIP3    H144674   4.020   6.654  14.872  2.0663 -0.0739 -0.8097
 7753TIP3    H244675   4.030   6.715  15.010  0.3835  0.3767 -0.8590
 7754TIP3   OH244676   1.530   4.538  16.745  0.1775 -0.2232  0.6091
 7754TIP3    H144677   1.471   4.557  16.672 -0.4867 -0.2786  1.1159
 7754TIP3    H244678   1.615   4.523  16.704 -0.0857  0.1856 -0.1123
 7755TIP3   OH244679   3.473   2.023   1.731  0.2172 -0.3947 -0.1688
 7755TIP3    H144680   3.381   2.017   1.705 -0.5228  1.5441  1.6877
 7755TIP3    H244681   3.512   1.942   1.699 -2.2517 -1.5643 -0.4890
 7756TIP3   OH244682   1.561   3.390  16.136 -0.1394  0.3682 -0.0891
 7756TIP3    H144683   1.590   3.462  16.080  0.2150  1.4786  1.4516
 7756TIP3    H244684   1.642   3.349  16.166 -0.2038  1.2985  1.4702
 7757TIP3   OH244685   6.565   2.835  17.263  0.4720  0.0163 -0.4178
 7757TIP3    H144686   6.541   2.842  17.355  2.0142 -0.7400  0.0622
 7757TIP3    H244687   6.615   2.914  17.244  1.4025 -0.4987 -0.1867
 7758TIP3   OH244688   6.274   0.002  14.890  0.8205  0.2339  0.1931
 7758TIP3    H144689   6.331   0.038  14.957  0.7963  1.8701 -0.5964
 7758TIP3    H244690   6.187   0.037  14.912  0.1659 -1.8076  1.0895
 7759TIP3   OH244691   4.556   1.135   5.731 -0.2236 -0.3301  0.1755
 7759TIP3    H144692   4.622   1.202   5.717  1.2998 -2.0162 -1.1698
 7759TIP3    H244693   4.522   1.153   5.819 -0.0434  2.2793 -0.2327
 7760TIP3   OH244694   0.243   0.507   3.242  0.8555 -0.1121 -0.1102
 7760TIP3    H144695   0.216   0.420   3.211 -1.5292  0.2963  0.5768
 7760TIP3    H244696   0.233   0.503   3.337  0.9655  0.8347 -0.0462
 7761TIP3   OH244697   2.153   1.543   3.428 -0.0892 -0.3380  0.0577
 7761TIP3    H144698   2.218   1.613   3.413 -1.0162  1.0195  1.9297
 7761TIP3    H244699   2.205   1.463   3.432  1.2023  0.4207 -0.6636
 7762TIP3   OH244700   0.228   0.662   0.414 -0.5108  0.3405 -0.0149
 7762TIP3    H144701   0.283   0.603   0.364  1.3545  2.9042 -1.2139
 7762TIP3    H244702   0.227   0.626   0.503  1.7309 -0.6960 -0.3552
 7763TIP3   OH244703   6.395   6.671   2.579  0.0923 -0.1869  0.0174
 7763TIP3    H144704   6.442   6.754   2.574 -1.7116  0.8108 -1.4789
 7763TIP3    H244705   6.451   6.616   2.635  1.7887  1.6907  0.3117
 7764TIP3   OH244706   0.617   5.313   0.367 -0.2976  0.0636 -0.1378
 7764TIP3    H144707   0.533   5.358   0.377 -1.1400 -1.8768  2.9214
 7764TIP3    H244708   0.594   5.222   0.350  1.1077 -0.6619  1.5328
 7765TIP3   OH244709   5.707   5.826  11.440  0.2817  0.2843 -0.4249
 7765TIP3    H144710   5.627   5.837  11.492 -0.4804  0.9908 -1.7029
 7765TIP3    H244711   5.741   5.741  11.468  1.2027  1.6058  2.8993
 7766TIP3   OH244712   4.831   6.173   3.633 -0.3223 -0.3717  0.2741
 7766TIP3    H144713   4.872   6.092   3.662 -0.9331 -1.2206 -1.1326
 7766TIP3    H244714   4.800   6.215   3.713  1.2702 -0.8067  1.1512
 7767TIP3   OH244715   3.193   3.807   4.408  0.2656 -0.1598 -0.4052
 7767TIP3    H144716   3.159   3.835   4.493  0.7636  0.9778 -0.5586
 7767TIP3    H244717   3.262   3.745   4.429  1.8652  1.7077  0.1612
 7768TIP3   OH244718   5.720   2.542   4.918  0.4208  0.1320 -0.5418
 7768TIP3    H144719   5.784   2.511   4.982  0.3184  0.2576 -0.3796
 7768TIP3    H244720   5.686   2.623   4.955  0.2526  0.1274 -0.6853
 7769TIP3   OH244721   2.193   5.779   4.521 -0.3552 -0.5578  0.5716
 7769TIP3    H144722   2.116   5.749   4.472 -0.4628 -0.5087  0.7088
 7769TIP3    H244723   2.184   5.739   4.607 -1.8292  1.7911  1.6235
 7770TIP3   OH244724   1.783   5.329  12.645 -0.0603  0.5038 -0.5170
 7770TIP3    H144725   1.822   5.243  12.660 -1.3023 -0.1535 -0.9455
 7770TIP3    H244726   1.690   5.312  12.635 -0.3074  1.8887 -0.7804
 7771TIP3   OH244727   6.524   5.924   5.458  0.7176 -0.3160  0.1092
 7771TIP3    H144728   6.557   5.844   5.417  0.1527 -1.4486  1.7399
 7771TIP3    H244729   6.461   5.960   5.395  1.9675 -0.3987 -1.2203
 7772TIP3   OH244730   4.310   5.985  12.683  0.1331 -0.2777  0.2008
 7772TIP3    H144731   4.287   5.909  12.630 -0.2332 -0.3421  0.4483
 7772TIP3    H244732   4.255   5.978  12.761  0.2663  0.1131  0.3342
 7773TIP3   OH244733   0.602   1.232   1.631  0.3093 -0.1033 -0.1700
 7773TIP3    H144734   0.626   1.317   1.595  3.6556 -0.6892  0.2745
 7773TIP3    H244735   0.591   1.176   1.555 -0.4134  0.3691 -0.4224
 7774TIP3   OH244736   5.290   5.812   2.023 -0.2667  0.5122  0.1139
 7774TIP3    H144737   5.282   5.772   2.109  0.4882 -3.2809 -1.3704
 7774TIP3    H244738   5.373   5.860   2.027  0.0999 -0.1729  1.3292
 7775TIP3   OH244739   0.318   2.673   6.479  0.0609  0.0846  0.1185
 7775TIP3    H144740   0.352   2.760   6.502  0.1323 -0.4351  2.1264
 7775TIP3    H244741   0.244   2.660   6.538  1.0129 -1.8469  0.9842
 7776TIP3   OH244742   5.869   2.861  16.174 -0.3149  0.1796 -0.2808
 7776TIP3    H144743   5.943   2.853  16.234 -2.0337  1.0404  2.0909
 7776TIP3    H244744   5.852   2.771  16.145 -0.0212 -0.4183  1.3126
 7777TIP3   OH244745   3.996   5.748   4.480 -0.0832 -0.3423  0.4981
 7777TIP3    H144746   3.923   5.735   4.540 -0.2559 -0.2783  0.3054
 7777TIP3    H244747   4.037   5.829   4.509  0.3891 -0.7844  1.0881
 7778TIP3   OH244748   2.607   3.086  13.046 -1.1592  0.0449  0.1340
 7778TIP3    H144749   2.696   3.114  13.069 -0.4975 -0.7936 -1.2853
 7778TIP3    H244750   2.550   3.146  13.094  0.1466 -0.1736  2.0338
 7779TIP3   OH244751   6.256   2.956   4.418  0.7757  0.4722  0.0845
 7779TIP3    H144752   6.249   3.003   4.335  0.9424 -0.3207 -0.3835
 7779TIP3    H244753   6.278   3.024   4.482 -0.1830  1.2265 -0.3580
 7780TIP3   OH244754   4.783   2.169   3.018  0.3926 -0.1249  0.2802
 7780TIP3    H144755   4.853   2.228   2.990  0.6131 -0.3288  0.3983
 7780TIP3    H244756   4.823   2.082   3.015 -0.3722 -0.4589 -1.3781
 7781TIP3   OH244757   4.422   6.300   1.519 -0.3396 -0.5225  0.1754
 7781TIP3    H144758   4.410   6.300   1.424 -0.9074 -1.6887  0.2274
 7781TIP3    H244759   4.461   6.385   1.538 -2.3064  0.6987 -0.8502
 7782TIP3   OH244760   3.615   2.571   3.239 -0.4504  0.0357 -0.1228
 7782TIP3    H144761   3.522   2.553   3.227 -0.2261 -0.8250 -0.6716
 7782TIP3    H244762   3.653   2.558   3.152  0.5722 -2.1933  0.5690
 7783TIP3   OH244763   1.876   1.619   4.938  0.3953 -0.5862  0.1367
 7783TIP3    H144764   1.927   1.567   5.000  2.3650  0.8926 -0.1387
 7783TIP3    H244765   1.837   1.688   4.991 -0.7350 -1.2700  0.2215
 7784TIP3   OH244766   4.445   5.793   3.622 -0.0096  0.3103 -0.1421
 7784TIP3    H144767   4.374   5.824   3.566  1.4566  1.7027 -1.3141
 7784TIP3    H244768   4.518   5.852   3.604  1.9001 -1.8521 -0.0090
 7785TIP3   OH244769   0.466   2.927  11.447  0.7920  0.0527 -0.4665
 7785TIP3    H144770   0.488   3.001  11.390 -1.6889 -0.2715 -1.9879
 7785TIP3    H244771   0.371   2.931  11.456  0.9528 -0.7767  2.5710
 7786TIP3   OH244772   5.694   3.902  15.785 -0.6201  0.0892 -0.2204
 7786TIP3    H144773   5.683   3.932  15.695 -0.4480 -0.7470 -0.5284
 7786TIP3    H244774   5.605   3.878  15.813 -0.9421  1.8474  0.3989
 7787TIP3   OH244775   2.269   4.469  11.996  0.0069 -0.3624 -0.0791
 7787TIP3    H144776   2.258   4.376  11.977 -1.8098 -0.3262  0.6140
 7787TIP3    H244777   2.184   4.496  12.030  0.3170  1.7104 -0.8594
 7788TIP3   OH244778   5.170   2.497  15.931 -0.1465 -0.2126 -0.4123
 7788TIP3    H144779   5.219   2.537  15.859  1.8146 -1.7839 -0.0306
 7788TIP3    H244780   5.132   2.571  15.978  1.0764  1.0293 -1.2886
 7789TIP3   OH244781   2.136   4.877  12.657  0.4339 -0.4043  0.1958
 7789TIP3    H144782   2.192   4.801  12.671 -1.0664 -1.5550  0.2105
 7789TIP3    H244783   2.047   4.841  12.652 -0.1429  1.0925 -1.9952
 7790TIP3   OH244784   3.793   0.122   5.817 -0.1084 -0.1158  0.0720
 7790TIP3    H144785   3.843   0.190   5.862 -0.8936  0.6400 -0.1471
 7790TIP3    H244786   3.810   0.138   5.724 -0.6007  0.0391  0.0051
 7791TIP3   OH244787   4.761   4.620   4.072 -0.4647 -0.2362 -0.5478
 7791TIP3    H144788   4.718   4.595   4.154  0.0735 -0.6644 -0.3863
 7791TIP3    H244789   4.758   4.542   4.018 -0.3290 -0.1220 -0.7234
 7792TIP3   OH244790   0.002   5.650  16.237  0.2803 -0.0582 -0.4666
 7792TIP3    H144791   0.026   5.584  16.173  0.1707  0.8509 -1.4688
 7792TIP3    H244792   0.031   5.733  16.198  0.2654  0.5079  0.6803
 7793TIP3   OH244793   0.286   5.111   1.683  0.6173 -0.6731  0.2162
 7793TIP3    H144794   0.306   5.025   1.646 -1.2784 -0.3092 -1.8109
 7793TIP3    H244795   0.221   5.148   1.625  2.1714  2.6604  0.3652
 7794TIP3   OH244796   5.133   1.829   5.353 -0.0144 -0.4829  0.0069
 7794TIP3    H144797   5.117   1.902   5.413  0.7828 -1.2694  1.2129
 7794TIP3    H244798   5.203   1.778   5.395  0.5301 -1.0896 -1.5695
 7795TIP3   OH244799   5.837   2.140  13.714 -0.2963  0.2716 -0.4614
 7795TIP3    H144800   5.926   2.163  13.739  0.8127 -2.3848 -1.6134
 7795TIP3    H244801   5.812   2.070  13.774 -1.0110 -0.0584 -1.1174
 7796TIP3   OH244802   3.169   6.408  16.182 -0.0118 -0.4499  0.0444
 7796TIP3    H144803   3.123   6.378  16.103  0.1253 -1.7518  0.4364
 7796TIP3    H244804   3.189   6.500  16.164 -0.3012 -0.6233 -1.2907
 7797TIP3   OH244805   2.353   4.206   2.215 -0.6042  0.3812  0.1581
 7797TIP3    H144806   2.346   4.253   2.133  0.4728 -1.8834 -1.3359
 7797TIP3    H244807   2.447   4.207   2.235 -0.3343 -2.0799 -0.6189
 7798TIP3   OH244808   3.029   5.665   5.526 -0.6897  0.5599  0.1090
 7798TIP3    H144809   3.019   5.596   5.592 -2.5560  0.8953  0.2361
 7798TIP3    H244810   3.090   5.629   5.463  0.4243 -0.1449  1.5288
 7799TIP3   OH244811   5.576   6.554   1.787 -0.3057  0.0108 -0.1687
 7799TIP3    H144812   5.538   6.548   1.875  0.5278 -0.0527  0.1892
 7799TIP3    H244813   5.558   6.644   1.759 -0.2517  0.1404  0.2107
 7800TIP3   OH244814   0.620   5.217  14.504 -1.0878  0.0644 -0.3178
 7800TIP3    H144815   0.609   5.174  14.589  2.7763 -1.7223 -0.5224
 7800TIP3    H244816   0.628   5.310  14.524  1.1562 -0.4494  1.5358
 7801TIP3   OH244817   0.938   4.315   4.099 -0.3907 -0.5283 -0.6463
 7801TIP3    H144818   0.996   4.387   4.079  1.0091 -0.9136  1.6637
 7801TIP3    H244819   0.872   4.317   4.029  1.1550  1.2282 -2.1673
 7802TIP3   OH244820   2.669   1.858   0.582  0.1142  0.7259  0.0034
 7802TIP3    H144821   2.727   1.880   0.509  0.4113  0.4708  0.1622
 7802TIP3    H244822   2.644   1.943   0.619 -1.9785  1.0158 -1.8667
 7803TIP3   OH244823   2.681   5.408   2.971 -0.6325 -0.1518 -0.2495
 7803TIP3    H144824   2.774   5.398   2.991 -1.1935 -0.2979  2.7313
 7803TIP3    H244825   2.664   5.502   2.980 -0.5259  0.1156 -2.3577
 7804TIP3   OH244826   5.261   5.314  12.392  0.0282 -0.6502 -1.0504
 7804TIP3    H144827   5.237   5.236  12.342 -1.5779 -1.0101  0.1809
 7804TIP3    H244828   5.261   5.285  12.483  1.4070  0.3415 -0.6953
 7805TIP3   OH244829   0.161   4.175   4.005  0.2878 -0.1298  0.3432
 7805TIP3    H144830   0.190   4.085   3.991  1.1112  0.2123 -0.1832
 7805TIP3    H244831   0.093   4.189   3.939  1.5393  0.2630 -0.8907
 7806TIP3   OH244832   3.544   1.773  15.443  0.1504 -0.6950  0.5395
 7806TIP3    H144833   3.517   1.784  15.352  0.5576  1.6838  0.6248
 7806TIP3    H244834   3.465   1.794  15.494  0.0553 -1.5343  0.7460
 7807TIP3   OH244835   5.771   2.931   3.186  0.0086 -0.5206 -0.3625
 7807TIP3    H144836   5.780   2.998   3.254  2.2664 -0.9394 -0.1852
 7807TIP3    H244837   5.859   2.921   3.150 -1.0673 -0.5466 -3.1805
 7808TIP3   OH244838   1.070   1.040   5.510 -0.4763 -0.2529  0.4371
 7808TIP3    H144839   1.024   0.965   5.472 -0.2631 -1.0012  1.5951
 7808TIP3    H244840   1.148   1.051   5.455 -1.0923 -0.1476 -0.4248
 7809TIP3   OH244841   1.142   4.790  16.382 -0.0666 -0.2792 -0.2607
 7809TIP3    H144842   1.222   4.835  16.355  0.5248 -2.1081 -1.7261
 7809TIP3    H244843   1.119   4.735  16.307 -1.7824 -1.0417  0.7737
 7810TIP3   OH244844   2.772   4.527   2.903 -0.3407  0.2994  0.2696
 7810TIP3    H144845   2.725   4.486   2.975 -0.4771 -0.4890 -0.2610
 7810TIP3    H244846   2.862   4.494   2.910 -0.4151  0.0185 -0.0713
 7811TIP3   OH244847   5.210   0.216   0.566  0.1932 -0.1003 -0.0132
 7811TIP3    H144848   5.281   0.190   0.508  1.0327  1.4560  0.2593
 7811TIP3    H244849   5.133   0.220   0.510  0.2398 -1.9333 -0.2867
 7812TIP3   OH244850   3.220   3.957   5.385 -0.7243  0.6076  0.2123
 7812TIP3    H144851   3.228   3.930   5.476 -1.0513  0.9611  0.3492
 7812TIP3    H244852   3.293   4.017   5.371 -0.2491 -0.0039  0.0301
 7813TIP3   OH244853   0.467   4.351  13.500 -0.4216 -0.5747  0.3959
 7813TIP3    H144854   0.509   4.371  13.417 -2.9780 -0.6151 -0.9953
 7813TIP3    H244855   0.514   4.274  13.533  1.5521  0.3050 -0.2500
 7814TIP3   OH244856   3.049   5.160   1.386  0.0316  0.5072  0.3261
 7814TIP3    H144857   3.011   5.155   1.298 -0.3194 -2.1066  0.5302
 7814TIP3    H244858   3.143   5.157   1.371 -0.0359 -1.5084  0.0096
 7815TIP3   OH244859   5.157   6.192  13.569  0.2893 -0.2323 -0.5227
 7815TIP3    H144860   5.092   6.124  13.585 -2.0271  2.1220  0.7812
 7815TIP3    H244861   5.214   6.190  13.646 -1.8165  1.3397  1.2172
 7816TIP3   OH244862   1.572   6.205  13.066 -0.0280 -0.5113 -0.3049
 7816TIP3    H144863   1.607   6.136  13.122  0.7567  0.3183  0.2582
 7816TIP3    H244864   1.639   6.274  13.068 -1.3881  0.8522  0.2501
 7817TIP3   OH244865   2.941   4.625  14.363 -0.1904 -0.1706 -0.6217
 7817TIP3    H144866   2.874   4.640  14.430 -0.3652 -1.8934 -0.3750
 7817TIP3    H244867   3.020   4.603  14.413 -0.0361 -0.3929 -0.9640
 7818TIP3   OH244868   3.891   5.169   2.360 -0.3488  0.3839 -0.0696
 7818TIP3    H144869   3.818   5.212   2.404 -1.0593 -1.0478  0.2299
 7818TIP3    H244870   3.921   5.102   2.422  1.8072  1.4717  0.1723
 7819TIP3   OH244871   1.856   3.893  16.660  0.1578 -0.4406  0.0779
 7819TIP3    H144872   1.806   3.862  16.584 -0.4928  1.4056 -0.2855
 7819TIP3    H244873   1.818   3.846  16.734 -1.6429  0.3527 -0.2875
 7820TIP3   OH244874   2.314   2.380   5.475 -0.0311 -0.7411  0.6769
 7820TIP3    H144875   2.315   2.472   5.447  1.6493 -0.6934  0.7970
 7820TIP3    H244876   2.246   2.377   5.542 -1.1546  0.0739 -0.3715
 7821TIP3   OH244877   6.751   1.696   0.125  0.0592  0.0021 -0.5751
 7821TIP3    H144878   6.715   1.748   0.197  2.7764  3.2693 -1.3140
 7821TIP3    H244879   6.694   1.717   0.050 -0.0419  0.3261 -0.4097
 7822TIP3   OH244880   6.396   3.533  12.986 -0.9386  0.0999 -0.3024
 7822TIP3    H144881   6.419   3.623  13.008  0.1923 -0.0320 -0.9104
 7822TIP3    H244882   6.309   3.539  12.946 -1.4020  0.7646  0.7620
 7823TIP3   OH244883   2.366   2.211   4.299 -0.3818  0.1042 -0.1831
 7823TIP3    H144884   2.382   2.121   4.329 -0.2518 -0.3492 -1.5453
 7823TIP3    H244885   2.450   2.239   4.263 -0.4687  0.7160  0.0889
 7824TIP3   OH244886   0.558   1.206   1.912  0.4222 -0.2708 -0.3915
 7824TIP3    H144887   0.462   1.203   1.915  0.3090  1.6121 -0.8746
 7824TIP3    H244888   0.578   1.216   1.819  0.9701  1.1827 -0.1480
 7825TIP3   OH244889   2.662   3.679   1.309 -0.1440 -0.5738 -0.5734
 7825TIP3    H144890   2.583   3.677   1.362  0.7110 -1.1247  0.7343
 7825TIP3    H244891   2.645   3.746   1.243 -0.8630  0.9311  1.0460
 7826TIP3   OH244892   0.230   3.581   3.317 -0.6701 -0.8226  0.0746
 7826TIP3    H144893   0.318   3.574   3.279 -0.0909  1.5343  0.8106
 7826TIP3    H244894   0.177   3.622   3.248  0.0193  2.0642  1.1145
 7827TIP3   OH244895   4.776   0.344  12.912 -0.0153 -0.3636  0.0535
 7827TIP3    H144896   4.840   0.415  12.903  1.2433 -1.4940 -0.2286
 7827TIP3    H244897   4.794   0.307  12.999 -2.2813  1.1427  1.2550
 7828TIP3   OH244898   1.965   5.051  14.234 -0.2323  0.0292  0.0774
 7828TIP3    H144899   2.002   4.965  14.215 -2.6206 -1.2851  0.9520
 7828TIP3    H244900   2.005   5.076  14.318 -0.1916 -0.6680  0.2772
 7829TIP3   OH244901   4.195   2.146  14.703 -0.1988 -0.4092  0.0431
 7829TIP3    H144902   4.244   2.163  14.622  0.5436 -0.0427  0.5612
 7829TIP3    H244903   4.261   2.150  14.772 -0.7380 -1.2377  0.6213
 7830TIP3   OH244904   2.056   0.895  11.066 -0.1514 -0.2918 -0.2749
 7830TIP3    H144905   2.073   0.970  11.007 -0.4157 -1.2558 -1.6304
 7830TIP3    H244906   1.999   0.837  11.014 -0.2467 -1.2634  0.8907
 7831TIP3   OH244907   0.190   1.261   5.643  0.0943  0.2548 -0.0973
 7831TIP3    H144908   0.133   1.264   5.720 -0.0717 -1.1702 -0.1310
 7831TIP3    H244909   0.134   1.284   5.569  0.1656  1.2627  0.1521
 7832TIP3   OH244910   4.259   1.509  11.399  0.3223  0.1194  0.3414
 7832TIP3    H144911   4.191   1.548  11.344  0.6469  0.2917  0.0652
 7832TIP3    H244912   4.210   1.453  11.460  0.0444 -1.2018 -1.0317
 7833TIP3   OH244913   6.426   6.766   4.232  0.5605 -0.2850 -0.3867
 7833TIP3    H144914   6.461   6.721   4.155  1.8572  1.0993 -0.6461
 7833TIP3    H244915   6.425   6.699   4.301  3.5864 -0.4879 -0.4201
 7834TIP3   OH244916   5.647   0.431  13.314 -0.6081  0.2593 -0.3836
 7834TIP3    H144917   5.622   0.444  13.222 -0.2072  1.1846 -0.3754
 7834TIP3    H244918   5.645   0.519  13.352  0.8548  0.1243  0.0622
 7835TIP3   OH244919   0.269   1.204  16.654  0.0150  0.3919  0.2628
 7835TIP3    H144920   0.185   1.173  16.622  0.3363  2.0780 -2.6037
 7835TIP3    H244921   0.329   1.132  16.637 -0.4845 -0.0678  0.4265
 7836TIP3   OH244922   0.337   4.732  15.272 -0.9136  0.1478 -0.3960
 7836TIP3    H144923   0.365   4.683  15.350 -0.5547 -1.7283 -1.6405
 7836TIP3    H244924   0.242   4.724  15.273 -0.9274  0.3283 -0.0236
 7837TIP3   OH244925   4.999   0.980  16.033 -0.1596  0.2541 -0.4038
 7837TIP3    H144926   5.093   0.996  16.048 -0.1562 -0.5179  0.4828
 7837TIP3    H244927   4.996   0.920  15.959  0.0570  0.1327 -0.3154
 7838TIP3   OH244928   0.942   5.601   5.846  0.6229 -0.3982 -0.4314
 7838TIP3    H144929   1.023   5.621   5.799  0.5076  0.8353 -0.1451
 7838TIP3    H244930   0.872   5.618   5.783  0.4612  1.4004  0.1835
 7839TIP3   OH244931   0.673   2.145  13.503  0.0450 -0.0642  0.1291
 7839TIP3    H144932   0.768   2.152  13.495 -0.0023 -0.5293 -1.0985
 7839TIP3    H244933   0.642   2.236  13.502  0.4102  0.0608 -0.6650
 7840TIP3   OH244934   2.165   3.067   4.697 -0.2907  0.6197  0.0068
 7840TIP3    H144935   2.171   3.010   4.620 -1.0702  0.0071  0.3797
 7840TIP3    H244936   2.102   3.134   4.672  1.1527  1.7626 -0.6859
 7841TIP3   OH244937   3.126   2.149   3.023 -0.4171  0.3211 -0.3304
 7841TIP3    H144938   3.139   2.216   2.956  0.5044 -1.1907 -1.7414
 7841TIP3    H244939   3.206   2.152   3.076  1.7353 -2.4083 -3.0336
 7842TIP3   OH244940   2.884   1.564  16.838  0.1711  0.0600 -0.3862
 7842TIP3    H144941   2.822   1.491  16.836  0.9903 -0.6378 -1.4232
 7842TIP3    H244942   2.921   1.562  16.926  2.0080 -2.3735 -1.1304
 7843TIP3   OH244943   2.935   1.485  12.921  0.0445  0.6368 -0.2485
 7843TIP3    H144944   2.970   1.545  12.987 -0.9802 -0.1711  1.0879
 7843TIP3    H244945   3.005   1.477  12.856  2.3045 -0.6802  2.1486
 7844TIP3   OH244946   5.050   1.481   1.289  0.1404 -0.1457  0.7033
 7844TIP3    H144947   5.064   1.414   1.356  1.6807  1.1800  1.7935
 7844TIP3    H244948   5.067   1.436   1.206  1.1700 -1.1306  1.4106
 7845TIP3   OH244949   5.279   6.242  14.041 -0.1762 -0.1883 -0.3238
 7845TIP3    H144950   5.237   6.208  13.962 -0.7747  2.5113 -1.2790
 7845TIP3    H244951   5.369   6.210  14.037 -0.3404 -0.5235 -1.8241
 7846TIP3   OH244952   5.429   0.568  12.974 -0.3169 -0.4484  0.7245
 7846TIP3    H144953   5.455   0.496  12.918 -0.2195  0.1486 -0.0243
 7846TIP3    H244954   5.346   0.599  12.935  0.1594  0.4769  0.4200
 7847TIP3   OH244955   1.192   6.298  16.832 -0.7876  0.5880 -0.2769
 7847TIP3    H144956   1.110   6.279  16.786 -0.8574  0.9443 -0.3071
 7847TIP3    H244957   1.214   6.387  16.805 -1.5852  1.3549  1.4996
 7848TIP3   OH244958   6.595   2.933   6.259 -0.3151  0.1470 -0.0892
 7848TIP3    H144959   6.503   2.917   6.240 -0.5828  0.3274  1.0011
 7848TIP3    H244960   6.607   2.903   6.349  0.2829  1.6239  0.3666
 7849TIP3   OH244961   2.768   3.295   3.834  0.0400  0.0427 -0.5356
 7849TIP3    H144962   2.687   3.265   3.875  0.1468 -0.0663 -0.4048
 7849TIP3    H244963   2.799   3.366   3.891  0.0985  0.0047 -0.5194
 7850TIP3   OH244964   5.530   2.034  11.199  0.2869  0.7663  0.0258
 7850TIP3    H144965   5.445   2.021  11.241  1.1232  1.4410  2.0292
 7850TIP3    H244966   5.542   1.955  11.146 -1.5844  0.6759 -0.3614
 7851TIP3   OH244967   4.838   4.282   6.521  0.6581 -0.8128  0.5290
 7851TIP3    H144968   4.907   4.343   6.497 -0.1205 -0.6041 -1.3695
 7851TIP3    H244969   4.837   4.283   6.616  2.3257  0.2292  0.5742
 7852TIP3   OH244970   3.257   3.466   0.072 -0.1297  0.7116  0.1147
 7852TIP3    H144971   3.228   3.533   0.010  0.6804  0.4487 -0.5607
 7852TIP3    H244972   3.178   3.444   0.121 -0.3890  2.2388  0.4307
 7853TIP3   OH244973   2.682   0.879   0.014 -0.2124  0.4452  0.2575
 7853TIP3    H144974   2.590   0.854   0.005 -0.8448  2.8212 -0.4480
 7853TIP3    H244975   2.693   0.894   0.108 -1.1227  2.0877  0.1273
 7854TIP3   OH244976   5.713   5.651   2.239 -0.3229 -0.0700  0.1157
 7854TIP3    H144977   5.806   5.665   2.218 -0.2762  0.7765  0.8074
 7854TIP3    H244978   5.686   5.733   2.283 -1.0944 -0.7384  0.9299
 7855TIP3   OH244979   3.928   4.710  13.765  0.1331 -0.2711  0.2099
 7855TIP3    H144980   3.892   4.666  13.843 -0.7633 -0.3353 -0.2292
 7855TIP3    H244981   3.925   4.644  13.696  3.2502 -1.0331  0.6611
 7856TIP3   OH244982   1.814   3.508   4.996 -0.4606  0.4708 -0.0561
 7856TIP3    H144983   1.823   3.537   4.905 -0.4210 -1.6286 -0.7728
 7856TIP3    H244984   1.904   3.504   5.028 -0.5213  1.9851  0.3683
 7857TIP3   OH244985   3.412   1.147  11.262 -0.2027 -0.0598  0.2755
 7857TIP3    H144986   3.326   1.189  11.257 -1.0792 -1.8574 -1.7130
 7857TIP3    H244987   3.406   1.091  11.339 -1.1753 -0.7698 -0.2772
 7858TIP3   OH244988   5.357   6.551  16.195  0.5016 -0.2964 -0.4699
 7858TIP3    H144989   5.341   6.459  16.175  0.2613 -0.3797  0.1121
 7858TIP3    H244990   5.451   6.562  16.182  1.0896 -1.3297  2.2299
 7859TIP3   OH244991   1.253   2.776   4.627  0.3625  0.2589 -0.5187
 7859TIP3    H144992   1.336   2.807   4.663 -0.9806  1.4873  1.7670
 7859TIP3    H244993   1.244   2.687   4.661 -0.8497  1.3693  2.4472
 7860TIP3   OH244994   0.944   4.639  13.765  0.3952  0.3394 -0.1628
 7860TIP3    H144995   1.024   4.595  13.794  0.1150 -1.0866 -1.4117
 7860TIP3    H244996   0.875   4.573  13.775 -0.6312  1.5013  0.7607
 7861TIP3   OH244997   0.408   6.607   5.316  0.9608 -0.7482  0.5531
 7861TIP3    H144998   0.318   6.574   5.309 -1.0407  4.1533 -2.1116
 7861TIP3    H244999   0.410   6.655   5.399  0.3217  0.7064 -0.2227
 7862TIP3   OH245000   4.223   6.044   5.901 -0.1709  0.1840 -0.4259
 7862TIP3    H145001   4.289   6.004   5.958  0.0291  1.3337  0.1839
 7862TIP3    H245002   4.273   6.083   5.830 -0.3482 -0.4269 -0.8979
 7863TIP3   OH245003   3.968   1.224   3.581  0.5903  0.0408  0.4452
 7863TIP3    H145004   4.030   1.158   3.549  1.0080 -0.2252  1.7510
 7863TIP3    H245005   4.013   1.307   3.569 -0.0336  0.1640 -1.4390
 7864TIP3   OH245006   5.169   5.095   3.342  0.5421 -0.4472 -0.0639
 7864TIP3    H145007   5.253   5.068   3.306 -0.5770 -0.3966 -3.0998
 7864TIP3    H245008   5.120   5.014   3.354  0.3175 -0.3632 -0.3805
 7865TIP3   OH245009   5.215   0.897  11.240 -0.0878 -0.7289 -0.3933
 7865TIP3    H145010   5.134   0.863  11.278 -0.4628  0.0257 -0.4988
 7865TIP3    H245011   5.235   0.975  11.291 -0.0528 -0.2731 -1.0944
 7866TIP3   OH245012   5.070   0.811  13.074  0.1770 -0.5566 -0.0482
 7866TIP3    H145013   5.129   0.749  13.115 -0.1288 -0.6012  0.3226
 7866TIP3    H245014   5.072   0.788  12.981  0.2868 -0.9335  0.0463
 7867TIP3   OH245015   6.351   1.580  17.305 -0.0689  0.7855  0.1596
 7867TIP3    H145016   6.427   1.549  17.355 -1.4302  0.0258  1.8703
 7867TIP3    H245017   6.385   1.595  17.217  1.5677 -1.9105  0.2028
 7868TIP3   OH245018   1.597   5.853   4.894 -0.5363  0.3508 -0.1215
 7868TIP3    H145019   1.642   5.930   4.930 -3.1959  1.8541  0.2279
 7868TIP3    H245020   1.632   5.845   4.805  1.9055  0.1137  0.7771
 7869TIP3   OH245021   3.532   2.100  12.265  0.7045 -0.4623  0.0378
 7869TIP3    H145022   3.561   2.179  12.310  0.3089  0.5476 -1.3916
 7869TIP3    H245023   3.612   2.064  12.226  0.4573  1.3400 -2.4071
 7870TIP3   OH245024   5.356   0.863   3.441  0.4724  0.3116 -0.1048
 7870TIP3    H145025   5.307   0.938   3.405 -0.6020 -0.1224  0.4093
 7870TIP3    H245026   5.364   0.802   3.368 -2.1094 -0.7715  0.4226
 7871TIP3   OH245027   5.909   0.863  15.428  0.6191 -0.1500  0.1456
 7871TIP3    H145028   5.918   0.801  15.501 -0.8248 -1.9512 -1.1222
 7871TIP3    H245029   5.912   0.808  15.350 -0.1503  1.4655 -1.0711
 7872TIP3   OH245030   2.892   5.886  14.102  0.0315 -0.1917  0.3755
 7872TIP3    H145031   2.944   5.865  14.025 -3.3620 -0.4171 -2.1151
 7872TIP3    H245032   2.944   5.950  14.150  1.7259  1.1667 -2.9623
 7873TIP3   OH245033   2.147   1.988  12.063 -0.1502 -0.2255 -0.0588
 7873TIP3    H145034   2.236   1.967  12.035  0.2758  1.0277  0.3110
 7873TIP3    H245035   2.149   1.979  12.159 -0.5452 -0.6129 -0.0811
 7874TIP3   OH245036   6.636   5.492   5.086  0.5467  0.2140  0.6831
 7874TIP3    H145037   6.557   5.456   5.127 -0.5405  0.9078 -0.7231
 7874TIP3    H245038   6.608   5.517   4.998  2.0830  1.4157  0.4961
 7875TIP3   OH245039   1.340   3.695  13.835  0.4018 -0.3783 -0.4038
 7875TIP3    H145040   1.297   3.629  13.781 -0.3816 -0.7803  0.6738
 7875TIP3    H245041   1.317   3.778  13.794 -0.0800 -0.6834 -0.7557
 7876TIP3   OH245042   6.467   5.618   3.925  0.0468  0.6763  0.7324
 7876TIP3    H145043   6.553   5.579   3.939 -0.4128 -0.2650  1.0754
 7876TIP3    H245044   6.407   5.561   3.975 -0.7889  1.2067  0.3546
 7877TIP3   OH245045   4.681   4.774   2.205  0.2280 -0.3027 -0.0469
 7877TIP3    H145046   4.727   4.818   2.276 -1.7590  0.7444  0.6674
 7877TIP3    H245047   4.628   4.707   2.248  0.4698 -0.9785 -0.7638
 7878TIP3   OH245048   0.045   6.063  16.603 -0.7410  0.8025 -0.1353
 7878TIP3    H145049   0.040   5.993  16.538  0.2767  0.9154 -0.3509
 7878TIP3    H245050   0.102   6.129  16.563 -1.2183  1.4937  0.3072
 7879TIP3   OH245051   4.461   4.613   1.216 -0.6662  0.1396  0.2158
 7879TIP3    H145052   4.382   4.603   1.269  0.1362  0.6671  1.5545
 7879TIP3    H245053   4.459   4.704   1.186 -1.1467 -0.1705 -0.7672
 7880TIP3   OH245054   2.770   2.985   2.035  0.1145 -0.1275  0.4003
 7880TIP3    H145055   2.745   2.978   2.127  0.9286  0.0463  0.6456
 7880TIP3    H245056   2.834   3.056   2.033 -1.1612  1.0466 -0.5728
 7881TIP3   OH245057   1.516   2.290   3.518  0.1840  0.4118 -0.3678
 7881TIP3    H145058   1.437   2.321   3.562  0.6673  0.1716  0.7247
 7881TIP3    H245059   1.485   2.227   3.453 -0.5255  0.2513  0.1161
 7882TIP3   OH245060   3.793   1.499   0.541  0.6362  0.2399  0.2201
 7882TIP3    H145061   3.723   1.563   0.526  0.9944  0.3700 -0.9784
 7882TIP3    H245062   3.874   1.551   0.542  0.7436  0.1040  1.6840
 7883TIP3   OH245063   4.218   0.451   4.667 -0.3348 -0.1287  0.0619
 7883TIP3    H145064   4.235   0.399   4.589  1.0162  1.0021 -0.4424
 7883TIP3    H245065   4.286   0.518   4.667  0.2930 -0.6253  2.7099
 7884TIP3   OH245066   5.187   3.090  12.324 -0.2284  0.0416 -0.0809
 7884TIP3    H145067   5.268   3.139  12.313 -0.4184  1.1227  2.5424
 7884TIP3    H245068   5.123   3.134  12.268  0.8505 -0.5956 -1.8867
 7885TIP3   OH245069   6.245   4.096  11.604  0.2482  0.0998  0.6072
 7885TIP3    H145070   6.237   4.122  11.512  0.8084 -1.1738  0.1787
 7885TIP3    H245071   6.156   4.106  11.639 -0.1827 -0.3057 -0.3304
 7886TIP3   OH245072   4.014   2.020   0.334 -0.3891 -0.0550 -0.2159
 7886TIP3    H145073   4.083   1.955   0.346 -0.6960 -0.4226 -0.3900
 7886TIP3    H245074   4.023   2.048   0.243  1.3309  2.0184  0.5265
 7887TIP3   OH245075   5.396   1.186  12.379  0.5972 -0.5740  0.2549
 7887TIP3    H145076   5.343   1.225  12.448 -0.3544 -0.9785 -0.2265
 7887TIP3    H245077   5.356   1.216  12.297  1.2242 -0.7387 -0.1253
 7888TIP3   OH245078   3.454   4.586  14.302  0.1537 -0.1336 -0.1755
 7888TIP3    H145079   3.371   4.630  14.284 -0.4412 -1.6041 -1.1492
 7888TIP3    H245080   3.457   4.513  14.241  2.2958  0.0145 -0.3317
 7889TIP3   OH245081   1.350   0.778   2.635 -0.4330  0.2316 -0.1347
 7889TIP3    H145082   1.409   0.703   2.643  0.0659  0.5060 -1.0630
 7889TIP3    H245083   1.279   0.747   2.579 -0.2032  0.4582 -0.5567
 7890TIP3   OH245084   3.375   4.992  11.142 -0.5004 -0.2604 -0.2751
 7890TIP3    H145085   3.301   4.980  11.083  0.4274 -1.6941 -1.2127
 7890TIP3    H245086   3.435   5.049  11.094 -0.8407  0.6539  0.3587
 7891TIP3   OH245087   0.491   4.929   0.091  0.6407  0.2758  0.2122
 7891TIP3    H145088   0.583   4.941   0.068  0.2265  2.0427 -0.7453
 7891TIP3    H245089   0.443   4.981   0.026 -0.9886  0.0421  1.1631
 7892TIP3   OH245090   1.741   4.953  16.027  0.4332  0.2615 -0.2137
 7892TIP3    H145091   1.744   4.860  16.048 -0.2489  0.2829 -0.0024
 7892TIP3    H245092   1.711   4.995  16.108  0.6611  0.6609 -0.3301
 7893TIP3   OH245093   2.595   3.593  12.234 -1.1271  0.2132  0.3430
 7893TIP3    H145094   2.672   3.647  12.245 -0.8036 -0.0756 -0.4647
 7893TIP3    H245095   2.555   3.590  12.321 -0.7031  1.0611  0.5727
 7894TIP3   OH245096   3.651   5.255   4.406  0.3727  0.5313 -0.1427
 7894TIP3    H145097   3.564   5.218   4.394  0.1264  1.6631 -2.2157
 7894TIP3    H245098   3.636   5.348   4.425  1.1040  1.0970 -2.0904
 7895TIP3   OH245099   2.495   6.488   0.506  0.8010 -0.4052 -0.3422
 7895TIP3    H145100   2.523   6.579   0.515 -0.4757  0.0773 -1.1004
 7895TIP3    H245101   2.471   6.461   0.595  1.0851  0.0215 -0.1352
 7896TIP3   OH245102   3.500   1.652  17.246  0.4306  0.2353  0.0483
 7896TIP3    H145103   3.418   1.604  17.232  0.5974  0.1121 -0.5592
 7896TIP3    H245104   3.501   1.718  17.176  2.1259 -1.5011 -1.6909
 7897TIP3   OH245105   5.072   3.887  13.857  0.2650  0.3054  0.1165
 7897TIP3    H145106   5.006   3.946  13.821 -0.0957 -0.8451 -1.1985
 7897TIP3    H245107   5.095   3.926  13.941 -0.7671  1.7026 -0.2015
 7898TIP3   OH245108   0.372   4.721   0.250 -0.0950 -0.1278  0.2387
 7898TIP3    H145109   0.397   4.797   0.197 -5.2526  1.3023 -0.6862
 7898TIP3    H245110   0.355   4.652   0.187  0.4525 -0.7512  0.7462
 7899TIP3   OH245111   3.683   3.308   0.213  0.1756  0.0925  0.0577
 7899TIP3    H145112   3.646   3.296   0.126 -2.0275 -2.4388  1.2017
 7899TIP3    H245113   3.616   3.359   0.260 -0.2822 -1.4590  1.1626
 7900TIP3   OH245114   4.947   4.364  15.941 -0.1078 -0.3987  0.7891
 7900TIP3    H145115   4.990   4.303  15.881  0.8476 -0.2050  1.2545
 7900TIP3    H245116   4.962   4.326  16.028 -1.7159 -0.8233  0.9048
 7901TIP3   OH245117   3.820   2.004   2.475 -0.1254  0.2183 -0.1235
 7901TIP3    H145118   3.752   2.057   2.518 -0.8726 -1.9183  1.4548
 7901TIP3    H245119   3.826   1.925   2.527  3.1603  0.0050 -0.6310
 7902TIP3   OH245120   4.180   6.491  15.216  0.0206  0.1704 -0.3012
 7902TIP3    H145121   4.134   6.441  15.149 -0.1173  0.2270 -0.2488
 7902TIP3    H245122   4.166   6.583  15.192 -0.3295  0.1968  0.0072
 7903TIP3   OH245123   1.780   6.605  11.694  0.2451 -0.0751 -0.2188
 7903TIP3    H145124   1.864   6.600  11.650  0.5383 -0.4644  0.3761
 7903TIP3    H245125   1.798   6.650  11.777 -0.1214 -0.2110 -0.0622
 7904TIP3   OH245126   1.044   2.703   0.229 -0.0402  0.2969 -0.2429
 7904TIP3    H145127   1.059   2.737   0.317  1.5737 -0.4673 -0.1730
 7904TIP3    H245128   1.024   2.610   0.242  0.5068  0.1094 -0.6832
 7905TIP3   OH245129   1.716   4.935  12.895  0.3433 -0.2493 -0.4576
 7905TIP3    H145130   1.681   4.913  12.982 -0.0763 -2.0483 -1.0427
 7905TIP3    H245131   1.638   4.945  12.840  0.6424 -1.0773 -1.0510
 7906TIP3   OH245132   0.120   6.231  12.537 -0.0375  0.3837  0.2027
 7906TIP3    H145133   0.179   6.241  12.463  2.4904  1.6430  2.2209
 7906TIP3    H245134   0.037   6.270  12.507  1.0888  1.4401 -1.7403
 7907TIP3   OH245135   2.450   5.227   3.269 -0.1553 -0.1631  0.6313
 7907TIP3    H145136   2.437   5.321   3.258 -0.9320 -0.0669  2.0484
 7907TIP3    H245137   2.361   5.191   3.267  0.1771 -0.9602 -0.5106
 7908TIP3   OH245138   0.223   4.776   6.003 -0.5439  0.5038  0.1086
 7908TIP3    H145139   0.139   4.822   5.991  0.0996  1.1598 -2.7626
 7908TIP3    H245140   0.287   4.846   6.015  0.0126  0.2515 -1.1537
 7909TIP3   OH245141   1.547   1.297   2.974  0.1680 -0.1010  0.2944
 7909TIP3    H145142   1.469   1.260   2.932 -0.7970  0.5534  1.4191
 7909TIP3    H245143   1.602   1.222   2.993 -0.5029 -0.6613  0.0740
 7910TIP3   OH245144   1.490   1.812   2.101  0.2059 -0.2690  0.3289
 7910TIP3    H145145   1.435   1.749   2.054  0.9610  0.2116 -1.3021
 7910TIP3    H245146   1.572   1.766   2.115 -0.1258 -0.5183  1.5132
 7911TIP3   OH245147   0.680   1.752  15.720 -0.6967  0.2368  0.3790
 7911TIP3    H145148   0.671   1.676  15.777  0.4321 -0.1220  0.0998
 7911TIP3    H245149   0.624   1.732  15.644  1.2465 -1.3351 -0.7221
 7912TIP3   OH245150   0.907   4.511  16.148 -0.0270  0.1307 -0.1051
 7912TIP3    H145151   0.864   4.484  16.067 -0.5492 -0.9829  0.5224
 7912TIP3    H245152   0.973   4.574  16.120  0.5416 -1.0410 -1.5456
 7913TIP3   OH245153   6.140   4.828  14.974 -0.3224  0.2296  0.6140
 7913TIP3    H145154   6.084   4.899  15.004  1.0664  1.4693  0.4184
 7913TIP3    H245155   6.195   4.868  14.906  2.0963 -0.3593  2.0922
 7914TIP3   OH245156   2.815   6.599   2.985  0.0928 -0.2620  0.0964
 7914TIP3    H145157   2.832   6.693   2.986  2.2382 -0.5942 -1.1215
 7914TIP3    H245158   2.838   6.570   3.074  0.3185  0.2059  0.1929
 7915TIP3   OH245159   0.257   2.480   0.998  0.0072  0.0786 -0.4490
 7915TIP3    H145160   0.238   2.553   1.057  0.7082 -0.2523  0.1967
 7915TIP3    H245161   0.212   2.405   1.036  1.1249 -0.3184  0.1325
 7916TIP3   OH245162   3.981   5.511   1.099 -0.1357 -0.1472 -0.0862
 7916TIP3    H145163   3.976   5.415   1.100 -1.7727 -0.0918  0.5441
 7916TIP3    H245164   3.891   5.539   1.116  0.2464  1.5115 -0.6430
 7917TIP3   OH245165   3.114   3.642   2.649  0.0069 -0.1742 -0.5753
 7917TIP3    H145166   3.099   3.733   2.623 -0.1400 -0.2745 -0.8443
 7917TIP3    H245167   3.207   3.626   2.629  0.0986 -0.0078 -0.2913
 7918TIP3   OH245168   6.556   6.430  12.651 -0.5226  0.3095  0.1521
 7918TIP3    H145169   6.470   6.452  12.687  0.3138  1.2624  1.6510
 7918TIP3    H245170   6.537   6.369  12.579 -2.4206  0.3140  0.6051
 7919TIP3   OH245171   6.366   3.456  14.895  0.0280  0.8599  0.5922
 7919TIP3    H145172   6.360   3.381  14.954 -0.9391  0.2103 -0.2880
 7919TIP3    H245173   6.448   3.499  14.919  2.7283 -2.6694 -1.3630
 7920TIP3   OH245174   0.197   6.137  14.861  0.7701  0.6837 -0.2975
 7920TIP3    H145175   0.188   6.104  14.772  0.9726 -0.8009  0.1998
 7920TIP3    H245176   0.108   6.139  14.895  0.5613  2.3282 -0.8721
 7921TIP3   OH245177   0.307   4.947   5.468  0.1087  0.3866  0.0483
 7921TIP3    H145178   0.303   5.018   5.404 -1.1562  1.0733  0.8436
 7921TIP3    H245179   0.236   4.888   5.443 -0.2056  0.5070  0.6383
 7922TIP3   OH245180   2.991   4.700   1.643 -1.0476 -0.2148 -0.2743
 7922TIP3    H145181   2.999   4.771   1.707 -1.8106  0.2491 -0.6839
 7922TIP3    H245182   3.027   4.736   1.562  2.0761 -1.5481  0.3670
 7923TIP3   OH245183   2.011   5.143  14.483 -0.2905  0.6011  0.0580
 7923TIP3    H145184   2.095   5.102  14.501 -0.0091  1.4376  0.7152
 7923TIP3    H245185   1.994   5.199  14.559 -1.8154 -0.1353  0.2949
 7924TIP3   OH245186   0.906   0.300  11.479 -0.0779  0.5416  0.5725
 7924TIP3    H145187   0.932   0.217  11.519 -0.7497  0.7018  1.3417
 7924TIP3    H245188   0.849   0.274  11.406 -1.5734  0.3534  1.7535
 7925TIP3   OH245189   2.826   0.007  16.402  0.1165 -0.0506  0.1131
 7925TIP3    H145190   2.844   0.096  16.371 -2.9853  0.5733 -0.1999
 7925TIP3    H245191   2.815   0.017  16.497  1.4447 -0.4520  0.3260
 7926TIP3   OH245192   6.104   4.018   6.474  0.0059 -0.2591 -0.5151
 7926TIP3    H145193   6.109   3.942   6.531  0.0904 -1.7821 -2.4416
 7926TIP3    H245194   6.181   4.070   6.495  0.6820 -1.4056 -0.0820
 7927TIP3   OH245195   2.900   2.041   1.888  0.3794 -0.2940  0.2124
 7927TIP3    H145196   2.931   2.075   1.804  0.2274  0.0470  0.2917
 7927TIP3    H245197   2.968   1.981   1.917 -0.0245 -1.2012 -0.6394
 7928TIP3   OH245198   1.179   3.163   3.549 -0.1714  0.6873 -0.0902
 7928TIP3    H145199   1.230   3.103   3.494 -0.8770  0.1227 -0.1470
 7928TIP3    H245200   1.135   3.107   3.613 -1.1354  1.0885 -0.3687
 7929TIP3   OH245201   6.423   0.481   0.854  0.1478 -0.3331  0.9216
 7929TIP3    H145202   6.428   0.576   0.865 -0.5155  0.3278 -2.9413
 7929TIP3    H245203   6.513   0.451   0.865  0.5809  0.9244  1.0032
 7930TIP3   OH245204   6.217   5.347   3.360  0.0083 -0.3079  0.3701
 7930TIP3    H145205   6.190   5.296   3.283  0.0332 -0.7592  0.6570
 7930TIP3    H245206   6.293   5.299   3.394 -0.9431 -0.9874  1.5879
 7931TIP3   OH245207   0.146   3.968  12.996 -0.1176 -0.0381  0.1951
 7931TIP3    H145208   0.137   4.047  13.049 -1.6970 -0.8064  1.1625
 7931TIP3    H245209   0.221   3.922  13.033 -0.4658  0.0217  0.9962
 7932TIP3   OH245210   3.493   0.171   5.654 -0.7056  0.4274  0.0618
 7932TIP3    H145211   3.411   0.209   5.685 -0.4786 -0.2991  1.6411
 7932TIP3    H245212   3.466   0.097   5.599 -1.1071  0.6102  0.0128
 7933TIP3   OH245213   3.622   2.072   3.449  0.1784  0.0401 -0.2549
 7933TIP3    H145214   3.682   1.998   3.452 -0.4589 -0.4619  0.3957
 7933TIP3    H245215   3.649   2.122   3.372  0.0747 -1.3118 -1.2045
 7934TIP3   OH245216   2.797   1.087   6.084 -0.5316 -0.2349 -0.1085
 7934TIP3    H145217   2.815   1.156   6.147  1.7553 -0.1909 -0.7406
 7934TIP3    H245218   2.713   1.112   6.045  0.8011  3.0032 -1.2855
 7935TIP3   OH245219   0.088   4.350  17.256  0.4548 -0.1245  0.0194
 7935TIP3    H145220   0.026   4.310  17.195 -2.2552  1.0020  1.8299
 7935TIP3    H245221   0.144   4.404  17.201 -0.4922 -0.8053 -1.6829
 7936TIP3   OH245222   6.360   4.215   4.452 -0.2904 -0.3648  0.6698
 7936TIP3    H145223   6.302   4.264   4.394 -0.1996 -1.8016 -0.6925
 7936TIP3    H245224   6.416   4.282   4.492  0.3224  0.6322 -1.6753
 7937TIP3   OH245225   3.504   1.068   0.414 -0.2697  0.0770 -0.2148
 7937TIP3    H145226   3.429   1.112   0.455 -0.6931 -1.5860  0.8752
 7937TIP3    H245227   3.468   0.987   0.378  0.6503  0.1828 -1.4428
 7938TIP3   OH245228   0.610   2.219   6.052  0.3528 -0.5079  0.5271
 7938TIP3    H145229   0.629   2.297   6.001  1.0999 -0.0013  1.5421
 7938TIP3    H245230   0.619   2.147   5.990 -0.7262  0.2106 -0.5187
 7939TIP3   OH245231   6.551   5.424   0.509  0.0678  0.6126 -0.1160
 7939TIP3    H145232   6.644   5.404   0.512 -0.0004  0.3718  0.3548
 7939TIP3    H245233   6.547   5.520   0.518  0.2555  0.6048  0.0437
 7940TIP3   OH245234   6.695   2.572  13.631 -0.4287 -0.1486 -0.1460
 7940TIP3    H145235   6.624   2.631  13.658 -0.1545 -0.1670  0.6606
 7940TIP3    H245236   6.651   2.493  13.600 -0.8041  0.5269 -1.3642
 7941TIP3   OH245237   5.074   6.019   4.680  0.1977  0.1752 -0.2067
 7941TIP3    H145238   5.049   5.931   4.652  0.0232  0.2663 -0.3392
 7941TIP3    H245239   5.050   6.022   4.773 -0.4098  0.3006 -0.3600
 7942TIP3   OH245240   0.326   4.462   2.170  0.1553 -0.1677  0.6673
 7942TIP3    H145241   0.326   4.417   2.086 -1.3141  2.9563 -1.1532
 7942TIP3    H245242   0.317   4.391   2.234  1.8974 -2.7198 -1.6688
 7943TIP3   OH245243   6.621   3.090  12.520 -0.2605  0.1890  0.2667
 7943TIP3    H145244   6.537   3.124  12.551 -0.3782  0.0980  0.0499
 7943TIP3    H245245   6.626   3.117  12.429  0.5183  1.2786  0.6195
 7944TIP3   OH245246   2.162   3.160   3.177  0.4522 -0.5679 -0.0590
 7944TIP3    H145247   2.180   3.244   3.135 -0.1299 -0.4015  0.0190
 7944TIP3    H245248   2.210   3.163   3.259 -1.6989  0.8112  1.2447
 7945TIP3   OH245249   2.981   6.369   5.788 -0.1950 -0.1707  0.0672
 7945TIP3    H145250   2.975   6.465   5.790 -1.4371 -0.2308  1.6205
 7945TIP3    H245251   3.063   6.350   5.833 -0.1458  0.1596  0.1198
 7946TIP3   OH245252   1.475   0.337   0.106  0.5212  0.1232  0.2386
 7946TIP3    H145253   1.538   0.346   0.178  0.1926 -1.0819  0.7030
 7946TIP3    H245254   1.461   0.242   0.099 -0.7598  0.3380 -0.2754
 7947TIP3   OH245255   5.045   2.021  15.498  0.4413  1.0614 -0.1957
 7947TIP3    H145256   5.133   2.024  15.536  0.0433  2.5951  0.6959
 7947TIP3    H245257   5.039   2.101  15.446  0.2730 -0.0451 -1.9643
 7948TIP3   OH245258   2.970   2.857   3.382  0.1147  0.0811  0.6338
 7948TIP3    H145259   2.993   2.946   3.353  0.2507 -0.3443 -0.6439
 7948TIP3    H245260   2.950   2.867   3.475  0.5741  1.3679  0.6257
 7949TIP3   OH245261   0.077   5.765  15.773 -0.4746  0.5178 -0.3759
 7949TIP3    H145262   0.107   5.817  15.848  1.2239 -0.1839 -0.5463
 7949TIP3    H245263   0.021   5.698  15.811  0.3690  0.1720  0.2775
 7950TIP3   OH245264   5.890   2.697  15.937 -0.0762  0.6085 -0.2413
 7950TIP3    H145265   5.972   2.704  15.986 -0.4502 -0.0674  0.5145
 7950TIP3    H245266   5.852   2.614  15.967 -0.7073  0.5814 -1.0889
 7951TIP3   OH245267   6.136   6.767   0.641  0.0272 -0.1493 -0.2761
 7951TIP3    H145268   6.137   6.673   0.662 -0.3804  0.2944  1.9699
 7951TIP3    H245269   6.225   6.797   0.660  0.2432 -0.1034 -1.2840
 7952TIP3   OH245270   6.074   1.159  11.425 -0.5724 -0.0485  0.4565
 7952TIP3    H145271   6.071   1.130  11.516  2.6965  0.9126  0.9991
 7952TIP3    H245272   6.049   1.252  11.428  0.3723  0.2125  0.5395
 7953TIP3   OH245273   5.781   5.930  14.880 -0.3176 -1.0750 -0.3677
 7953TIP3    H145274   5.727   5.850  14.875 -1.9493 -0.0393 -0.1332
 7953TIP3    H245275   5.786   5.949  14.973  1.2581 -1.6371 -0.3084
 7954TIP3   OH245276   6.209   5.307  16.878  0.0471  0.3334 -0.2105
 7954TIP3    H145277   6.234   5.313  16.971 -0.3443 -1.2889  0.0263
 7954TIP3    H245278   6.176   5.394  16.857 -2.1337  0.1171  1.8761
 7955TIP3   OH245279   2.545   0.998   6.529 -0.4879 -0.4829 -0.9851
 7955TIP3    H145280   2.513   0.968   6.445 -0.8957  0.8162 -1.3243
 7955TIP3    H245281   2.470   0.992   6.588 -0.4801 -0.4411 -0.9707
 7956TIP3   OH245282   6.010   0.186  16.855  0.3154  0.1370 -0.3410
 7956TIP3    H145283   5.944   0.217  16.917 -0.4165  1.1221 -1.5492
 7956TIP3    H245284   6.048   0.109  16.896 -0.4722  0.4854  1.1033
 7957TIP3   OH245285   5.835   1.525   6.421  0.2457 -0.0505  0.3090
 7957TIP3    H145286   5.781   1.476   6.358 -1.0567  0.5248  0.9632
 7957TIP3    H245287   5.813   1.488   6.506 -2.9172  3.3685  1.2305
 7958TIP3   OH245288   2.100   1.424  15.442  0.1057  0.6116 -0.6997
 7958TIP3    H145289   2.126   1.500  15.493  2.2065 -1.7185  2.0708
 7958TIP3    H245290   2.033   1.381  15.495 -0.0254 -0.2326 -1.5072
 7959TIP3   OH245291   6.694   5.240  16.575 -0.3012  0.1339 -0.2521
 7959TIP3    H145292   6.743   5.236  16.492 -0.3575  0.9644 -0.3363
 7959TIP3    H245293   6.616   5.291  16.554  0.0983  1.0945  0.4984
 7960TIP3   OH245294   6.665   6.146   0.841 -0.1408  0.6389  0.2540
 7960TIP3    H145295   6.760   6.154   0.849 -0.2195  1.1279  0.8152
 7960TIP3    H245296   6.631   6.195   0.916 -0.8213 -0.0903  0.4324
 7961TIP3   OH245297   4.199   2.370   4.098 -0.4337 -0.1245 -0.7133
 7961TIP3    H145298   4.254   2.441   4.132  0.2084 -0.5001 -0.9400
 7961TIP3    H245299   4.147   2.341   4.173 -1.5585  1.3486 -0.8888
 7962TIP3   OH245300   0.945   4.350   2.106 -0.5200  0.0286  0.0637
 7962TIP3    H145301   0.895   4.268   2.107 -0.6229 -0.0318 -2.6536
 7962TIP3    H245302   0.899   4.405   2.042 -1.2176  2.8180  2.7051
 7963TIP3   OH245303   0.666   4.683   4.542 -0.0246 -0.4497  0.1166
 7963TIP3    H145304   0.670   4.690   4.637  1.5046 -1.3696  0.1558
 7963TIP3    H245305   0.741   4.628   4.519 -0.8682 -0.9797 -1.5438
 7964TIP3   OH245306   0.772   6.579  15.985 -0.5646  0.0206 -0.7095
 7964TIP3    H145307   0.833   6.543  16.050  0.4271  1.1740 -0.9574
 7964TIP3    H245308   0.723   6.646  16.033 -0.3834  0.3280 -0.9532
 7965TIP3   OH245309   4.079   1.129   2.282 -0.2729 -0.0594  0.0138
 7965TIP3    H145310   4.108   1.124   2.373 -2.0208  0.3521  0.6398
 7965TIP3    H245311   4.075   1.223   2.264  1.4318 -0.1319 -1.0043
 7966TIP3   OH245312   0.077   0.415  15.997  0.6226 -0.0169 -0.1416
 7966TIP3    H145313   0.058   0.508  15.983 -1.3262 -0.5037 -1.1378
 7966TIP3    H245314   0.055   0.373  15.914  0.8194 -1.4668  0.5016
 7967TIP3   OH245315   3.624   3.119  14.704 -0.1406  0.2715 -0.2713
 7967TIP3    H145316   3.704   3.079  14.736  0.9556  2.3869 -0.1584
 7967TIP3    H245317   3.573   3.137  14.782 -0.4762 -0.5578 -0.2950
 7968TIP3   OH245318   5.913   0.109   2.644 -0.0308  0.3934  0.2217
 7968TIP3    H145319   5.952   0.104   2.557 -0.5773  2.2457 -0.1659
 7968TIP3    H245320   5.981   0.149   2.699 -0.0890  0.2498  0.4022
 7969TIP3   OH245321   3.205   5.781   1.300  0.4521 -0.1989 -0.6352
 7969TIP3    H145322   3.220   5.873   1.275  0.0879 -0.5649 -2.3382
 7969TIP3    H245323   3.243   5.730   1.228  1.1356 -1.4177  0.5524
 7970TIP3   OH245324   4.825   5.365   5.251 -0.2933 -0.0530 -0.2942
 7970TIP3    H145325   4.778   5.437   5.293 -1.1958 -0.7481 -0.0859
 7970TIP3    H245326   4.776   5.348   5.170  1.0484  0.8321 -1.3430
 7971TIP3   OH245327   6.723   3.662   2.647 -0.1962  0.3350  0.4372
 7971TIP3    H145328   6.720   3.745   2.600  1.4754  0.0453 -0.2444
 7971TIP3    H245329   6.631   3.636   2.656 -0.8035  2.5219  1.2092
 7972TIP3   OH245330   5.283   4.526  12.969  0.5317 -0.3182 -0.3068
 7972TIP3    H145331   5.373   4.521  13.001  0.0113 -0.4306  1.2080
 7972TIP3    H245332   5.230   4.487  13.039 -0.8395  1.0082 -0.5509
 7973TIP3   OH245333   2.369   1.402  17.033 -0.4472  0.5414 -0.4039
 7973TIP3    H145334   2.394   1.403  16.940 -1.9505  2.1471 -0.8417
 7973TIP3    H245335   2.285   1.355  17.035  0.4970 -1.2201  0.4689
 7974TIP3   OH245336   5.007   0.043   3.404  0.2968 -0.0542 -0.1185
 7974TIP3    H145337   4.946   0.037   3.477  0.0337  0.6323 -0.2733
 7974TIP3    H245338   5.017   0.137   3.388  0.3150 -0.1913 -0.9923
 7975TIP3   OH245339   1.084   1.148  15.863  0.1338  0.3216  0.5210
 7975TIP3    H145340   1.167   1.193  15.845 -0.0494 -0.3139 -2.2144
 7975TIP3    H245341   1.093   1.063  15.821 -2.8542  1.2072 -2.2682
 7976TIP3   OH245342   1.247   5.140  17.347 -0.4411  0.4236  0.6053
 7976TIP3    H145343   1.269   5.154  17.439  0.7347  0.4618  0.3370
 7976TIP3    H245344   1.294   5.060  17.323 -0.5825  0.5207 -0.0050
 7977TIP3   OH245345   2.609   0.412  12.769  0.0188  0.2028 -0.2331
 7977TIP3    H145346   2.559   0.488  12.739  0.2668 -0.3423 -2.1832
 7977TIP3    H245347   2.576   0.394  12.857 -0.7429  1.9437 -0.1262
 7978TIP3   OH245348   4.388   3.144  11.439 -0.2853  0.0712  0.4049
 7978TIP3    H145349   4.393   3.050  11.451 -2.3224 -0.1719 -0.2920
 7978TIP3    H245350   4.457   3.179  11.495  1.5476 -1.8903 -0.4997
 7979TIP3   OH245351   4.119   6.234  16.036  0.6364  0.3728 -0.6035
 7979TIP3    H145352   4.182   6.277  16.095 -0.5647  1.4636 -0.0415
 7979TIP3    H245353   4.058   6.304  16.012 -0.7281 -0.7731 -0.6123
 7980TIP3   OH245354   2.104   3.887  15.667  0.2108 -0.0297  0.7562
 7980TIP3    H145355   2.180   3.877  15.609 -0.9254 -1.1292 -0.6279
 7980TIP3    H245356   2.126   3.837  15.745  1.1587  0.1936  0.6401
 7981TIP3   OH245357   0.050   0.764  13.589 -0.2369 -0.3120  0.4006
 7981TIP3    H145358   0.093   0.726  13.512 -0.6670 -0.4130  0.2091
 7981TIP3    H245359   0.106   0.739  13.662 -0.1021 -0.6516  0.1833
 7982TIP3   OH245360   1.075   3.594  16.404 -1.2247 -0.2070 -0.5101
 7982TIP3    H145361   1.147   3.531  16.400  1.3970  2.6155 -0.7488
 7982TIP3    H245362   1.041   3.586  16.493 -0.6695 -1.5779 -0.3943
 7983TIP3   OH245363   0.080   5.046   2.020 -0.0018 -0.0819  0.2373
 7983TIP3    H145364   0.057   5.041   1.927  1.6118 -1.8107 -0.1337
 7983TIP3    H245365   0.013   4.994   2.064 -0.5294  0.3917  0.0107
 7984TIP3   OH245366   5.301   3.176  13.833  0.3277 -0.1585 -0.3905
 7984TIP3    H145367   5.249   3.252  13.807  0.2282  0.0941  0.5090
 7984TIP3    H245368   5.237   3.113  13.866  0.3413 -0.9111 -1.7221
 7985TIP3   OH245369   6.418   6.440   1.116 -0.3351 -0.0283 -0.3586
 7985TIP3    H145370   6.355   6.480   1.177  0.2388  0.0728  0.1710
 7985TIP3    H245371   6.367   6.375   1.068 -0.5982 -0.7038  0.8210
 7986TIP3   OH245372   6.363   6.734  12.106  0.0943  0.2697 -0.1875
 7986TIP3    H145373   6.297   6.803  12.097  0.6739  0.7063 -1.3160
 7986TIP3    H245374   6.337   6.668  12.041 -1.4828 -1.4985  2.0672
 7987TIP3   OH245375   2.571   3.389  13.600 -0.1229  0.0514  0.7499
 7987TIP3    H145376   2.614   3.344  13.673 -1.0333 -0.8454  0.7639
 7987TIP3    H245377   2.499   3.331  13.576 -0.8410  1.1368  0.2212
 7988TIP3   OH245378   0.402   1.587  10.422 -0.2312 -0.3554  0.0315
 7988TIP3    H145379   0.321   1.539  10.402 -1.0596  1.8246 -2.4203
 7988TIP3    H245380   0.471   1.527  10.396 -1.0950 -1.5315  0.3442
 7989TIP3   OH245381   6.273   6.686  15.355 -0.6790 -0.2402 -0.2526
 7989TIP3    H145382   6.345   6.708  15.415 -1.5874  1.5730  0.2749
 7989TIP3    H245383   6.315   6.642  15.282  0.6682 -1.1965  1.0393
 7990TIP3   OH245384   5.888   5.037   4.191  0.3916  0.1919 -1.2018
 7990TIP3    H145385   5.829   4.967   4.219  0.5111  0.6892  0.4323
 7990TIP3    H245386   5.974   5.011   4.227  0.8758  0.1822 -2.3277
 7991TIP3   OH245387   4.617   4.114  12.538  0.2374 -0.2634 -0.7620
 7991TIP3    H145388   4.523   4.128  12.551  0.5920  0.6062  1.2203
 7991TIP3    H245389   4.657   4.140  12.621  2.1647 -1.5338 -1.2281
 7992TIP3   OH245390   6.553   6.681   1.216 -0.0127 -0.2355  0.2473
 7992TIP3    H145391   6.647   6.663   1.208 -0.1919 -1.7759  1.1552
 7992TIP3    H245392   6.513   6.630   1.145 -0.2135 -0.0368  0.2165
 7993TIP3   OH245393   3.762   5.462   2.025  0.3914  0.5734 -0.2694
 7993TIP3    H145394   3.793   5.371   2.026  0.2051  0.5071  0.6036
 7993TIP3    H245395   3.783   5.495   2.112 -0.7780  0.9442 -0.1159
 7994TIP3   OH245396   0.578   6.012   0.741  0.2787  0.1824 -0.2365
 7994TIP3    H145397   0.609   6.000   0.651  0.6706 -0.0833 -0.0652
 7994TIP3    H245398   0.490   5.974   0.741  0.4326 -0.1744 -0.4049
 7995TIP3   OH245399   4.351   2.751   2.399 -0.3771  0.0806  0.5268
 7995TIP3    H145400   4.308   2.686   2.343 -1.9971  1.4963  0.0558
 7995TIP3    H245401   4.297   2.829   2.392 -0.3393  0.5268  3.6351
 7996TIP3   OH245402   6.679   1.155   3.600 -0.6408  1.0119 -0.2776
 7996TIP3    H145403   6.718   1.179   3.684 -0.9656  0.7556 -0.0511
 7996TIP3    H245404   6.729   1.079   3.571  0.7256  2.2045 -1.2392
 7997TIP3   OH245405   4.360   6.406   4.203 -0.0724 -0.3653 -0.2566
 7997TIP3    H145406   4.420   6.332   4.212 -0.3838 -0.8072 -1.6604
 7997TIP3    H245407   4.281   6.368   4.164  0.1644  0.8890 -2.0505
 7998TIP3   OH245408   0.517   1.025   4.013 -0.1151  0.1036  0.5404
 7998TIP3    H145409   0.518   0.930   4.021  1.9514  0.2376  3.0871
 7998TIP3    H245410   0.434   1.051   4.054 -0.1464 -0.5122  0.8732
 7999TIP3   OH245411   5.646   0.216   1.548  0.3063 -0.0360  0.1134
 7999TIP3    H145412   5.700   0.268   1.489  1.4526 -0.0964  1.0724
 7999TIP3    H245413   5.622   0.138   1.497 -0.6041  0.9251 -0.9979
 8000TIP3   OH245414   2.674   0.988  12.237 -0.0151 -0.4606  0.7063
 8000TIP3    H145415   2.622   1.033  12.170  0.4537 -0.3912  0.3813
 8000TIP3    H245416   2.647   1.028  12.319  0.5295  0.5790  0.4016
 8001TIP3   OH245417   4.514   4.392  16.666  0.5885  0.6029  0.1203
 8001TIP3    H145418   4.579   4.345  16.615  1.0708  1.1921  0.1778
 8001TIP3    H245419   4.506   4.342  16.748 -3.0710 -2.6846 -1.8981
 8002TIP3   OH245420   2.037   2.476  13.508  0.3605  0.5455  0.1723
 8002TIP3    H145421   2.104   2.434  13.562  0.0808  0.5563  0.5285
 8002TIP3    H245422   2.001   2.406  13.455  1.8481  0.8205 -1.3034
 8003TIP3   OH245423   6.612   4.616  12.459 -0.0822  0.1910 -0.2698
 8003TIP3    H145424   6.541   4.664  12.414 -0.7561 -0.6664 -0.1451
 8003TIP3    H245425   6.626   4.539  12.405  0.7010  0.3061 -0.2322
 8004TIP3   OH245426   0.193   1.459   3.462 -0.5681 -0.0850 -0.6557
 8004TIP3    H145427   0.210   1.446   3.555 -4.1635 -0.1589  0.1185
 8004TIP3    H245428   0.227   1.546   3.443 -0.8419  0.4224  1.0440
 8005TIP3   OH245429   0.684   0.002  15.799 -0.1757 -0.3439 -0.8811
 8005TIP3    H145430   0.621   0.060  15.841  0.2177  0.0284 -0.7980
 8005TIP3    H245431   0.643  -0.084  15.802 -0.4215 -0.2128 -0.2903
 8006TIP3   OH245432   4.336   2.591  12.266 -0.5565  0.7926 -0.3132
 8006TIP3    H145433   4.382   2.594  12.350  0.0761  3.1331 -0.6534
 8006TIP3    H245434   4.278   2.667  12.269 -0.7115  0.7619 -1.8897
 8007TIP3   OH245435   1.757   6.369   1.487  0.6364 -0.2590 -0.2295
 8007TIP3    H145436   1.791   6.317   1.414  0.8095  0.3641 -0.6001
 8007TIP3    H245437   1.835   6.399   1.534  0.6176  0.9830 -0.9490
 8008TIP3   OH245438   3.513   1.346   2.016 -0.0291  0.4409 -0.0575
 8008TIP3    H145439   3.592   1.303   1.981 -0.8879 -0.1666 -1.3250
 8008TIP3    H245440   3.477   1.283   2.078 -0.0561  0.2829 -0.2306
 8009TIP3   OH245441   1.347   0.736  11.406  0.2399  0.3174 -0.2987
 8009TIP3    H145442   1.367   0.689  11.486 -1.4035  0.0445 -0.0018
 8009TIP3    H245443   1.392   0.687  11.337  0.0052 -0.6479  0.2228
 8010TIP3   OH245444   4.842   3.328  15.047  0.2861 -0.2604 -0.0390
 8010TIP3    H145445   4.912   3.357  14.989  0.5275  1.9371  1.2553
 8010TIP3    H245446   4.880   3.255  15.096  2.3723  1.8885  1.7992
 8011TIP3   OH245447   4.500   3.883  15.483  0.1632 -0.4230 -0.6572
 8011TIP3    H145448   4.502   3.819  15.412 -1.1077  0.1996 -1.2889
 8011TIP3    H245449   4.407   3.902  15.496  0.5154  1.8502 -1.0070
 8012TIP3   OH245450   4.842   3.298  16.281 -0.5139 -0.3539  0.5662
 8012TIP3    H145451   4.875   3.376  16.325  0.2887  0.2589 -1.0327
 8012TIP3    H245452   4.858   3.226  16.342 -1.0816  0.6747  1.9829
 8013TIP3   OH245453   4.826   6.056   1.345 -0.0328  0.5362 -0.8075
 8013TIP3    H145454   4.756   6.107   1.305  0.0977 -0.2709 -2.1136
 8013TIP3    H245455   4.783   6.006   1.414 -0.8891 -0.4694 -2.0433
 8014TIP3   OH245456   2.286   2.476  16.226  0.4900  0.6251  0.2553
 8014TIP3    H145457   2.220   2.454  16.292 -0.0171  0.1938 -0.3885
 8014TIP3    H245458   2.242   2.462  16.142  1.4629  0.1328 -0.1902
 8015TIP3   OH245459   4.291   3.540  16.327 -0.2774 -0.2343  0.4929
 8015TIP3    H145460   4.375   3.518  16.287 -1.1569  0.0443 -1.6458
 8015TIP3    H245461   4.242   3.583  16.257 -1.7382  0.7870  2.0756
 8016TIP3   OH245462   5.677   0.357  15.732 -0.3735 -0.0920 -0.0125
 8016TIP3    H145463   5.603   0.408  15.700 -0.0168 -0.3618 -1.2902
 8016TIP3    H245464   5.743   0.422  15.754 -0.4604  0.0692 -0.2278
 8017TIP3   OH245465   6.706   4.576   1.226  0.1154  0.1992 -0.1873
 8017TIP3    H145466   6.692   4.585   1.132 -1.2822  0.8295  0.0466
 8017TIP3    H245467   6.703   4.666   1.259  2.5708  0.1760  0.2360
 8018TIP3   OH245468   5.447   4.811   4.717  0.4299 -0.1307 -0.6586
 8018TIP3    H145469   5.428   4.810   4.811 -1.1994 -0.3562 -0.9539
 8018TIP3    H245470   5.504   4.735   4.703 -2.1021 -2.2486 -0.3179
 8019TIP3   OH245471   3.075   5.114  17.039  0.0105 -0.3078  0.3209
 8019TIP3    H145472   3.067   5.196  16.990 -0.3278 -1.3752 -1.5295
 8019TIP3    H245473   3.104   5.141  17.126  0.3105  1.7377 -0.3460
 8020TIP3   OH245474   4.901   3.769  12.503  0.0969 -0.8070  0.1367
 8020TIP3    H145475   4.860   3.833  12.444  1.8867 -1.4628 -1.9366
 8020TIP3    H245476   4.836   3.699  12.511 -1.1704  0.4024  1.0387
 8021TIP3   OH245477   1.827   1.701   3.716  0.0761 -0.3463 -0.5993
 8021TIP3    H145478   1.819   1.606   3.723 -1.0755 -0.3669 -1.7047
 8021TIP3    H245479   1.829   1.718   3.621 -1.9703  0.8407 -0.5025
 8022TIP3   OH245480   6.191   6.433  12.204 -0.2855  0.0351  0.1023
 8022TIP3    H145481   6.201   6.446  12.299  0.7725 -0.9427  0.1399
 8022TIP3    H245482   6.259   6.370  12.181 -0.5274  0.2651 -1.3213
 8023TIP3   OH245483   2.697   4.886   4.691  0.2766 -0.1324  0.7856
 8023TIP3    H145484   2.675   4.946   4.762 -1.0690  0.3354  0.0130
 8023TIP3    H245485   2.730   4.943   4.621  1.3821 -0.5680  0.9295
 8024TIP3   OH245486   5.320   2.766   2.680  0.1578 -0.6347  0.2150
 8024TIP3    H145487   5.254   2.738   2.744  0.0550 -0.6668  0.0952
 8024TIP3    H245488   5.370   2.687   2.662 -1.5507 -1.3571 -1.8451
 8025TIP3   OH245489   3.095   3.833  10.616  0.2511 -0.0078  0.4391
 8025TIP3    H145490   3.173   3.887  10.605  0.1898  0.3086  1.4840
 8025TIP3    H245491   3.022   3.893  10.600  0.1973  0.0231  0.8037
 8026TIP3   OH245492   2.322   3.825  11.808 -0.3919  0.8976 -0.1736
 8026TIP3    H145493   2.392   3.881  11.774  1.2949 -1.6756 -1.2568
 8026TIP3    H245494   2.367   3.760  11.862 -2.0369 -0.2995 -0.1615
 8027TIP3   OH245495   5.910   1.714   1.867 -0.1685 -0.0094 -0.0060
 8027TIP3    H145496   5.974   1.765   1.917  0.2602 -0.3397 -0.2091
 8027TIP3    H245497   5.874   1.652   1.931  0.3666 -0.4188 -0.0952
 8028TIP3   OH245498   6.278   4.783  15.251  0.4233 -0.4067  0.2517
 8028TIP3    H145499   6.270   4.858  15.310 -0.2342 -1.1033  1.0812
 8028TIP3    H245500   6.239   4.813  15.169  0.7444  0.3577  0.3645
 8029TIP3   OH245501   4.184   0.579   1.488  0.0193 -0.0667 -0.7214
 8029TIP3    H145502   4.216   0.533   1.410 -1.8127 -0.5894 -1.1954
 8029TIP3    H245503   4.106   0.531   1.515  1.3171 -0.7693  2.2987
 8030TIP3   OH245504   2.202   6.441   2.985  0.6817  0.9902  0.3178
 8030TIP3    H145505   2.220   6.520   2.935 -0.1788  0.5536 -0.7081
 8030TIP3    H245506   2.214   6.369   2.922 -2.2335  0.5329  0.1712
 8031TIP3   OH245507   6.117   3.848  15.131  0.6938  0.4686 -0.7296
 8031TIP3    H145508   6.118   3.765  15.085  0.8348 -0.0783  0.2431
 8031TIP3    H245509   6.027   3.857  15.163  1.1568 -0.2823  0.8655
 8032TIP3   OH245510   0.035   3.535   1.231 -0.5765 -0.8751 -0.6898
 8032TIP3    H145511  -0.029   3.566   1.167  0.0057  0.0151 -0.8611
 8032TIP3    H245512  -0.007   3.551   1.316 -0.8731 -0.9880 -0.8108
 8033TIP3   OH245513   3.768   5.661  16.475 -0.0922  0.1314  0.1559
 8033TIP3    H145514   3.705   5.614  16.421  0.3304  0.4470 -0.6390
 8033TIP3    H245515   3.789   5.601  16.546 -0.0139 -0.6389 -0.5086
 8034TIP3   OH245516   2.579   5.474  10.309 -0.1202  0.1139 -0.4420
 8034TIP3    H145517   2.583   5.461  10.404  0.3854  0.2343 -0.4456
 8034TIP3    H245518   2.602   5.388  10.272  0.5950  0.3040 -0.4549
 8035TIP3   OH245519   3.476   3.751  14.415 -0.7438  0.0275 -0.0620
 8035TIP3    H145520   3.518   3.753  14.329 -0.7869 -1.3202 -0.1327
 8035TIP3    H245521   3.390   3.790  14.400 -0.0780  1.4983 -0.2169
 8036TIP3   OH245522   0.210   6.715   3.748  0.8447  0.4999 -0.2724
 8036TIP3    H145523   0.290   6.684   3.704  0.3657  0.8510 -1.4231
 8036TIP3    H245524   0.232   6.712   3.841  1.1891 -2.2451 -0.3723
 8037TIP3   OH245525   2.453   1.199   4.442 -0.0010 -0.0642 -0.1551
 8037TIP3    H145526   2.382   1.257   4.415 -0.1178  0.4275  1.1245
 8037TIP3    H245527   2.512   1.256   4.491  1.5695 -0.3537 -1.6413
 8038TIP3   OH245528   3.515   6.173   1.921  0.2745 -0.4208  0.3360
 8038TIP3    H145529   3.540   6.097   1.868 -1.4814 -0.1352 -0.9875
 8038TIP3    H245530   3.598   6.217   1.940  1.3012 -2.4017  0.8008
 8039TIP3   OH245531   5.707   1.081  11.124  0.0080  0.3159  0.4747
 8039TIP3    H145532   5.720   1.175  11.109  1.6256  0.0373 -0.0541
 8039TIP3    H245533   5.667   1.050  11.043  1.6337  0.1801 -0.3342
 8040TIP3   OH245534   1.257   4.558   3.806 -0.0032 -0.2486  0.5484
 8040TIP3    H145535   1.279   4.594   3.720  1.3342  1.7845  1.6501
 8040TIP3    H245536   1.332   4.501   3.827 -1.1874 -2.2543 -0.3365
 8041TIP3   OH245537   6.128   3.436   5.550  0.2613 -0.1970 -0.4232
 8041TIP3    H145538   6.192   3.446   5.620 -0.9035 -1.2478  0.8439
 8041TIP3    H245539   6.058   3.497   5.572  1.0597  1.4667 -2.1778
 8042TIP3   OH245540   2.200   4.137  17.351 -0.1243 -0.1569 -0.1970
 8042TIP3    H145541   2.259   4.212  17.341  0.3049 -0.7618 -3.1146
 8042TIP3    H245542   2.218   4.104  17.439  1.0139  2.0244  0.4609
 8043TIP3   OH245543   0.521   1.872  17.302  0.3892 -0.4963 -0.4447
 8043TIP3    H145544   0.451   1.828  17.351 -0.0724 -2.4372 -2.6704
 8043TIP3    H245545   0.602   1.832  17.334  0.3441  0.2514  0.6516
 8044TIP3   OH245546   5.846   0.641  17.175  0.1726 -0.0499  0.2860
 8044TIP3    H145547   5.927   0.618  17.130  0.0850  1.7787 -0.9370
 8044TIP3    H245548   5.872   0.661  17.265  1.1018  0.4800 -0.0888
 8045TIP3   OH245549   3.772   5.534   4.235 -0.2165  0.0150 -1.0068
 8045TIP3    H145550   3.841   5.519   4.300 -0.3707  0.8377 -0.6378
 8045TIP3    H245551   3.691   5.530   4.285 -0.2484  4.9755 -0.1020
 8046TIP3   OH245552   0.471   3.341   0.539  0.2429  0.0314  0.0625
 8046TIP3    H145553   0.440   3.431   0.550 -2.2504 -0.8497  0.9327
 8046TIP3    H245554   0.438   3.315   0.453  0.3607 -0.2898  0.1144
 8047TIP3   OH245555   1.556   1.691   0.938 -0.8654 -0.1174 -0.0945
 8047TIP3    H145556   1.485   1.687   0.874 -0.0966 -0.3741 -0.9514
 8047TIP3    H245557   1.538   1.620   1.000 -2.5808  1.2126  1.0431
 8048TIP3   OH245558   3.725   2.914   1.306 -0.0695  0.3431 -0.4252
 8048TIP3    H145559   3.634   2.942   1.320 -1.0386 -2.8473  0.3659
 8048TIP3    H245560   3.725   2.876   1.219  0.3837 -0.0918 -0.2388
 8049TIP3   OH245561   2.854   4.037   4.305 -0.1022  0.1633  0.3453
 8049TIP3    H145562   2.831   3.944   4.309 -0.7400  0.3499  1.7118
 8049TIP3    H245563   2.924   4.042   4.240 -2.3540 -0.7616 -2.3203
 8050TIP3   OH245564   2.673   6.071   3.520 -0.4779 -0.1499  0.1497
 8050TIP3    H145565   2.696   5.994   3.469 -1.6764  0.0698 -0.7639
 8050TIP3    H245566   2.755   6.097   3.562  1.0271  0.6854 -3.0151
 8051TIP3   OH245567   2.121   5.855  12.571 -0.0134  0.0695 -0.3227
 8051TIP3    H145568   2.104   5.783  12.631  0.5994 -1.2989 -1.7250
 8051TIP3    H245569   2.216   5.866  12.573  0.0660 -0.3269 -1.3797
 8052TIP3   OH245570   2.744   2.723   1.102  0.0532 -0.0167 -0.0006
 8052TIP3    H145571   2.776   2.811   1.082 -1.2114  0.3365 -0.5270
 8052TIP3    H245572   2.821   2.678   1.139  0.0070  2.1718  3.1862
 8053TIP3   OH245573   6.583   2.187  16.632 -0.5454  0.4760 -0.7647
 8053TIP3    H145574   6.678   2.194  16.635 -0.4512 -0.6076 -0.8272
 8053TIP3    H245575   6.566   2.104  16.588 -1.5250  0.7311 -0.8987
 8054TIP3   OH245576   3.093   6.748   5.521 -0.8026  0.3924  0.0254
 8054TIP3    H145577   3.129   6.797   5.447 -0.9767  1.5253  0.6630
 8054TIP3    H245578   3.106   6.656   5.498 -1.3323  0.7020 -1.6506
 8055TIP3   OH245579   1.408   5.470  15.529 -0.2890 -0.7597 -0.1070
 8055TIP3    H145580   1.499   5.496  15.544 -0.3134 -0.1856 -0.9104
 8055TIP3    H245581   1.378   5.440  15.615  0.4480 -0.3172  0.3223
 8056TIP3   OH245582   6.749   4.228  17.006 -0.0131  0.3505 -0.8571
 8056TIP3    H145583   6.700   4.160  16.959 -0.8686  0.5276 -0.2405
 8056TIP3    H245584   6.838   4.219  16.973  0.0475 -1.4906 -0.3515
 8057TIP3   OH245585   4.129   3.983   0.256 -0.4397 -0.3450  0.6410
 8057TIP3    H145586   4.164   3.915   0.199  0.2599  1.3536 -1.0870
 8057TIP3    H245587   4.200   4.000   0.319 -0.4040 -0.8456  0.7354
 8058TIP3   OH245588   2.109   2.686  13.316 -0.2402 -0.3553  0.5634
 8058TIP3    H145589   2.103   2.644  13.402  0.6006  1.5592  1.6157
 8058TIP3    H245590   2.035   2.746  13.312 -0.5391 -0.7594 -0.2606
 8059TIP3   OH245591   4.531   5.713   5.137  0.5710 -0.1053 -0.0898
 8059TIP3    H145592   4.533   5.739   5.045  0.3825 -1.2416 -0.4438
 8059TIP3    H245593   4.438   5.705   5.157  0.5726  1.3519  0.5849
 8060TIP3   OH245594   4.641   3.011   1.491  0.0958  0.0520 -0.3093
 8060TIP3    H145595   4.623   3.091   1.539 -1.9408 -0.5955  0.1166
 8060TIP3    H245596   4.618   2.941   1.553 -0.4247 -0.8129 -1.4473
 8061TIP3   OH245597   6.741   0.265  13.104 -0.2553  0.0889 -0.2915
 8061TIP3    H145598   6.703   0.353  13.111 -1.5388 -0.2655 -2.1631
 8061TIP3    H245599   6.745   0.234  13.195 -3.8596  0.4533  0.1338
 8062TIP3   OH245600   6.704   1.533  11.633 -0.0088  0.0084 -0.2975
 8062TIP3    H145601   6.625   1.517  11.581  0.6562  0.9037 -1.6156
 8062TIP3    H245602   6.673   1.586  11.707 -0.6896  0.1346 -0.6646
 8063TIP3   OH245603   4.802   5.733  11.568 -0.0204 -0.3211 -0.6393
 8063TIP3    H145604   4.727   5.692  11.525  0.9854 -1.3985 -1.4587
 8063TIP3    H245605   4.874   5.722  11.506  0.9866  0.0565  0.4132
 8064TIP3   OH245606   6.601   3.542  14.059 -0.1870 -0.2661 -0.2030
 8064TIP3    H145607   6.632   3.522  13.971 -0.4359 -0.9649 -0.1354
 8064TIP3    H245608   6.630   3.469  14.112 -0.8073 -0.2871  0.1176
 8065TIP3   OH245609   4.620   4.163  13.708  0.4048  0.2966  0.2782
 8065TIP3    H145610   4.676   4.104  13.657  1.5558 -0.1747  1.9846
 8065TIP3    H245611   4.666   4.247  13.707 -1.0463  1.1592 -1.8344
 8066TIP3   OH245612   4.087   0.036   4.280 -0.0894  0.0931 -0.0975
 8066TIP3    H145613   4.116   0.064   4.193 -1.2232  1.1320 -0.1684
 8066TIP3    H245614   4.047  -0.050   4.265 -1.1078  0.6709 -0.7745
 8067TIP3   OH245615   2.197   1.843  15.125 -0.8082 -0.7790  1.0950
 8067TIP3    H145616   2.128   1.865  15.062 -0.0618  1.9552  1.0782
 8067TIP3    H245617   2.180   1.900  15.200  2.0923  1.0359  0.5479
 8068TIP3   OH245618   5.880   1.375   4.257 -0.0949 -0.3676  0.5010
 8068TIP3    H145619   5.848   1.340   4.174  0.2255 -0.4763  0.4254
 8068TIP3    H245620   5.973   1.391   4.243 -0.5061  1.9710  0.0272
 8069TIP3   OH245621   5.308   1.789  13.259 -0.5892  0.3182  0.4018
 8069TIP3    H145622   5.359   1.708  13.262  0.0760  0.7477  1.3574
 8069TIP3    H245623   5.228   1.769  13.308 -0.7131  0.0481  0.0872
 8070TIP3   OH245624   5.105   3.476   2.450  0.4271  0.1699 -0.0192
 8070TIP3    H145625   5.104   3.513   2.538  0.9317 -2.3907  1.1516
 8070TIP3    H245626   5.189   3.428   2.445  0.1089 -0.2814 -1.6331
 8071TIP3   OH245627   1.347   1.203   4.649  0.0145  0.8575 -0.2938
 8071TIP3    H145628   1.428   1.192   4.598 -1.0333  1.8504 -2.3164
 8071TIP3    H245629   1.373   1.185   4.739  2.4047  0.7522 -0.9207
 8072TIP3   OH245630   6.724   0.387   2.827  0.2871  0.1352 -0.3093
 8072TIP3    H145631   6.718   0.479   2.854 -0.7084 -0.0082  0.0004
 8072TIP3    H245632   6.792   0.386   2.760  0.3223  1.0938 -0.3031
 8073TIP3   OH245633   2.042   0.425  15.208 -0.2750 -0.2402 -0.7394
 8073TIP3    H145634   1.988   0.360  15.253 -0.8969 -0.3695 -1.6417
 8073TIP3    H245635   2.014   0.420  15.117  0.1108  0.8691 -0.9301
 8074TIP3   OH245636   4.232   6.509   2.766  0.6936 -0.0858  0.8646
 8074TIP3    H145637   4.283   6.543   2.692 -1.0423 -0.7522 -0.6905
 8074TIP3    H245638   4.239   6.414   2.758 -0.8195 -0.1916  0.5790
 8075TIP3   OH245639   4.160   2.935  12.072 -0.3369  0.1306  0.3395
 8075TIP3    H145640   4.094   2.984  12.120 -1.1428  0.0557 -0.6812
 8075TIP3    H245641   4.229   2.918  12.137 -0.9834  0.8217  1.2222
 8076TIP3   OH245642   1.454   1.281  10.526  0.4185  0.6569 -0.1304
 8076TIP3    H145643   1.433   1.336  10.450 -0.3251 -1.3360 -1.4626
 8076TIP3    H245644   1.390   1.307  10.593 -1.3996 -0.0553 -1.5034
 8077TIP3   OH245645   6.683   3.574   1.474  0.2167 -0.4547  0.3916
 8077TIP3    H145646   6.705   3.583   1.567 -1.6040  1.5275  0.7270
 8077TIP3    H245647   6.591   3.547   1.474 -0.0238  0.3034 -0.7988
 8078TIP3   OH245648   1.678   5.000   1.614 -0.5028  0.3503  0.4437
 8078TIP3    H145649   1.678   5.094   1.634  0.1141  0.3142  0.6345
 8078TIP3    H245650   1.594   4.968   1.648  0.0876  0.4804  2.1154
 8079TIP3   OH245651   0.849   2.625  13.558 -0.5083  0.4053 -0.3530
 8079TIP3    H145652   0.856   2.717  13.585  2.3319 -0.1559  1.1903
 8079TIP3    H245653   0.825   2.578  13.638  2.6339 -0.6516  0.1034
 8080TIP3   OH245654   5.416   2.795   3.102  0.1235 -0.0228  0.4624
 8080TIP3    H145655   5.410   2.805   3.197 -0.9768  1.3352  0.2783
 8080TIP3    H245656   5.470   2.868   3.073  0.3909 -0.3866  0.0132
 8081TIP3   OH245657   0.558   1.101   1.093  0.0964  0.0452 -0.4937
 8081TIP3    H145658   0.476   1.092   1.045 -0.8438 -0.2185  1.1076
 8081TIP3    H245659   0.565   1.194   1.113 -0.0658 -0.0038 -0.2055
 8082TIP3   OH245660   2.446   0.730   3.617  0.0349 -0.2521  0.0248
 8082TIP3    H145661   2.378   0.798   3.608 -0.5905 -0.9314 -0.4998
 8082TIP3    H245662   2.402   0.650   3.590  0.5561 -0.9964  1.3175
 8083TIP3   OH245663   2.305   5.914  13.408 -0.1046  0.5201 -0.0553
 8083TIP3    H145664   2.247   5.984  13.379 -1.4350 -0.0870  1.0509
 8083TIP3    H245665   2.377   5.915  13.344 -0.2818  2.6040 -0.2877
 8084TIP3   OH245666   5.481   0.095  16.225  0.3095  0.2489 -0.2222
 8084TIP3    H145667   5.540   0.150  16.277  0.5583 -0.3872  0.1916
 8084TIP3    H245668   5.400   0.145  16.219  0.3975  0.4888  0.4805
 8085TIP3   OH245669   1.731   1.300  13.246  0.2551 -0.6244  0.2837
 8085TIP3    H145670   1.804   1.250  13.285  0.7693  0.9957  1.4962
 8085TIP3    H245671   1.655   1.242  13.256  1.1089 -1.7921  0.2305
 8086TIP3   OH245672   5.231   4.149   2.316  0.3221 -0.2546 -0.1124
 8086TIP3    H145673   5.318   4.182   2.294  1.6309 -2.4638  1.2876
 8086TIP3    H245674   5.213   4.183   2.403 -1.2193  1.8437 -1.1515
 8087TIP3   OH245675   0.160   6.025  10.731 -0.0881  0.4972  0.3924
 8087TIP3    H145676   0.223   5.953  10.728 -1.9101 -1.2554  1.7482
 8087TIP3    H245677   0.122   6.027  10.643  0.0444 -0.1416  0.3174
 8088TIP3   OH245678   5.769   3.768   6.692  0.1964 -0.7366  0.2075
 8088TIP3    H145679   5.824   3.738   6.764  1.3556  0.4080 -0.1635
 8088TIP3    H245680   5.813   3.735   6.613 -0.3168 -0.8256 -0.0449
 8089TIP3   OH245681   5.537   5.241  16.603  0.0212 -0.3943  0.5133
 8089TIP3    H145682   5.552   5.239  16.508 -3.4767  2.2676 -0.2883
 8089TIP3    H245683   5.576   5.324  16.631 -0.2278 -0.4800  1.1166
 8090TIP3   OH245684   0.324   2.635   5.759  0.9922 -0.4602 -0.0645
 8090TIP3    H145685   0.405   2.669   5.722  1.1369 -0.4418  0.2628
 8090TIP3    H245686   0.344   2.623   5.852 -0.3357  2.6105  0.7274
 8091TIP3   OH245687   6.700   6.551  15.301  0.2411  0.4251 -0.2433
 8091TIP3    H145688   6.622   6.518  15.346  0.1395 -1.1939 -1.5336
 8091TIP3    H245689   6.773   6.518  15.353  0.1084  0.8355  0.2190
 8092TIP3   OH245690   5.801   1.272   3.221  0.5587 -0.1491 -0.1896
 8092TIP3    H145691   5.733   1.257   3.286  1.4162  0.0556  0.7759
 8092TIP3    H245692   5.804   1.191   3.170  2.4657 -1.9342  2.4699
 8093TIP3   OH245693   6.422   3.414   4.285 -0.2268  0.5545 -0.8699
 8093TIP3    H145694   6.448   3.377   4.370 -1.1713 -0.7822 -1.1325
 8093TIP3    H245695   6.333   3.446   4.300  0.7586  3.4069 -0.4831
 8094TIP3   OH245696   3.159   1.551  12.162 -0.2329 -0.8300  0.0415
 8094TIP3    H145697   3.202   1.624  12.117 -0.6631 -1.2691 -1.1385
 8094TIP3    H245698   3.181   1.563  12.254 -0.6482  1.0405 -0.0529
 8095TIP3   OH245699   3.622   2.875  13.863  0.2500  0.0881  0.1665
 8095TIP3    H145700   3.529   2.856  13.878  0.2270 -1.3403 -1.4171
 8095TIP3    H245701   3.667   2.797  13.893  0.8278  0.2914 -0.1684
 8096TIP3   OH245702   5.058   6.021   3.365  0.1431 -0.1249 -0.0133
 8096TIP3    H145703   5.133   6.049   3.417  0.4496  1.1349 -1.0744
 8096TIP3    H245704   4.997   6.095   3.370 -0.3970 -0.5349 -0.3652
 8097TIP3   OH245705   5.459   5.003  11.453  0.2304  0.1469  0.5223
 8097TIP3    H145706   5.527   4.944  11.486  1.1142  0.4196 -0.7524
 8097TIP3    H245707   5.402   4.948  11.400 -1.1557 -0.2783  2.3299
 8098TIP3   OH245708   2.938   0.954   1.936 -0.5662 -0.0200  0.3613
 8098TIP3    H145709   2.927   1.039   1.978  0.1028  0.3500 -0.2127
 8098TIP3    H245710   3.025   0.956   1.898 -0.8679 -0.6436 -0.3879
 8099TIP3   OH245711   4.823   4.087  14.496  0.2983  0.2828  0.2032
 8099TIP3    H145712   4.743   4.131  14.523  0.3567  2.8599 -3.1900
 8099TIP3    H245713   4.797   3.996  14.481 -2.1213  1.1169 -1.1114
 8100TIP3   OH245714   1.735   2.180  14.658 -0.0354 -0.2661  0.4959
 8100TIP3    H145715   1.674   2.191  14.730 -0.6313  0.7964 -0.1508
 8100TIP3    H245716   1.692   2.117  14.599 -0.1541 -0.1129  0.4187
 8101TIP3   OH245717   2.872   2.329  16.240 -0.0610 -0.2323 -0.6891
 8101TIP3    H145718   2.887   2.407  16.292 -0.2546 -0.8639  0.3359
 8101TIP3    H245719   2.789   2.345  16.195  0.0266  0.2476 -0.6782
 8102TIP3   OH245720   4.054   0.989  12.416 -0.4706 -0.1233  0.1541
 8102TIP3    H145721   4.043   0.894  12.406 -2.6054 -0.3381  3.0470
 8102TIP3    H245722   3.986   1.027  12.361 -0.9402 -0.4011  0.5319
 8103TIP3   OH245723   0.647   2.490  12.348  0.4494  0.1380 -0.4776
 8103TIP3    H145724   0.640   2.452  12.436 -1.6292 -0.1039 -0.6879
 8103TIP3    H245725   0.559   2.525  12.331  1.5148  2.5630 -1.4186
 8104TIP3   OH245726   3.764   1.830   5.307 -0.3272 -0.0665 -0.2094
 8104TIP3    H145727   3.806   1.771   5.246 -0.0217 -0.5747  0.4764
 8104TIP3    H245728   3.713   1.890   5.252  0.3132 -0.2116 -0.9729
 8105TIP3   OH245729   2.481   3.228   6.646 -0.0340 -0.0631 -0.2119
 8105TIP3    H145730   2.517   3.140   6.640  1.4782  0.5169  0.0977
 8105TIP3    H245731   2.556   3.285   6.661 -1.2155  0.9982  2.4805
 8106TIP3   OH245732   4.963   1.126  13.426  0.0903 -0.5458  0.1724
 8106TIP3    H145733   4.912   1.206  13.438 -0.7032 -0.9738 -0.2760
 8106TIP3    H245734   5.007   1.114  13.511 -0.9217 -0.4160  0.7356
 8107TIP3   OH245735   1.246   5.463   1.070  0.2399 -0.1726  0.3109
 8107TIP3    H145736   1.186   5.504   1.132  0.5407 -0.1046  0.5606
 8107TIP3    H245737   1.194   5.398   1.025 -0.9866  2.1283 -1.8742
 8108TIP3   OH245738   5.948   1.203   1.794 -0.0870  0.1746  0.1496
 8108TIP3    H145739   5.855   1.193   1.775  0.1155  0.2295 -1.0027
 8108TIP3    H245740   5.968   1.293   1.767  0.3065  0.1543  0.3625
 8109TIP3   OH245741   3.841   5.475  16.230 -0.4112  0.2586 -0.0068
 8109TIP3    H145742   3.756   5.487  16.273 -1.1850 -1.6796 -0.8490
 8109TIP3    H245743   3.819   5.446  16.142  0.9973 -3.1824  0.5899
 8110TIP3   OH245744   6.041   3.715   4.003  0.9436 -0.5145 -0.1525
 8110TIP3    H145745   6.089   3.655   3.946  1.4712 -0.5895  0.3643
 8110TIP3    H245746   5.965   3.664   4.032  1.7163 -1.1830  0.7912
 8111TIP3   OH245747   5.936   5.302   4.114 -0.6083 -0.2008  0.2259
 8111TIP3    H145748   5.934   5.217   4.157 -1.5284  0.1981  1.0145
 8111TIP3    H245749   5.847   5.314   4.081  0.0689 -0.5066 -1.8693
 8112TIP3   OH245750   2.278   4.196   0.953  0.3833 -0.5958  0.0459
 8112TIP3    H145751   2.294   4.286   0.926  0.9047 -0.6189  0.2766
 8112TIP3    H245752   2.335   4.143   0.897  0.8697 -0.7022  0.6368
 8113TIP3   OH245753   0.730   6.046  12.142  0.6198  0.2693 -0.2338
 8113TIP3    H145754   0.671   6.059  12.067  1.9586 -2.1689 -1.8505
 8113TIP3    H245755   0.679   5.992  12.203  0.5345 -0.2913 -0.7889
 8114TIP3   OH245756   4.402   5.969  12.189 -0.2119  0.6783 -0.2806
 8114TIP3    H145757   4.436   5.933  12.106 -0.3673 -1.2423  0.4428
 8114TIP3    H245758   4.332   5.910  12.214 -0.8133  1.7928  0.7586
 8115TIP3   OH245759   2.376   3.111  16.823  0.7454  0.1422  0.1712
 8115TIP3    H145760   2.456   3.114  16.771  0.0948  0.0225 -0.8753
 8115TIP3    H245761   2.359   3.202  16.847  1.5797  0.0808  1.0277
 8116TIP3   OH245762   3.855   3.966   1.536  0.0240 -0.5766  0.0392
 8116TIP3    H145763   3.774   3.968   1.485 -0.7730 -2.0625  1.1803
 8116TIP3    H245764   3.923   3.993   1.473 -1.4189  1.6029 -0.6963
 8117TIP3   OH245765   3.428   5.578  14.635  0.0873  0.2894 -0.1324
 8117TIP3    H145766   3.346   5.602  14.678  1.6502  0.5136  2.9670
 8117TIP3    H245767   3.455   5.657  14.588 -1.5536  0.1069 -1.4921
 8118TIP3   OH245768   5.723   4.612  12.410  0.5276  0.2749  0.1827
 8118TIP3    H145769   5.747   4.628  12.501  0.6522 -0.3461  0.2669
 8118TIP3    H245770   5.804   4.625  12.361  0.3071  1.2648  0.0748
 8119TIP3   OH245771   3.878   6.579  14.185 -1.1206  0.0477  0.4913
 8119TIP3    H145772   3.894   6.534  14.267 -1.0582 -1.6725 -0.4254
 8119TIP3    H245773   3.805   6.638  14.203 -0.8733 -0.0471  1.8604
 8120TIP3   OH245774   1.956   0.806  14.049  0.2539 -0.0835  0.6253
 8120TIP3    H145775   1.955   0.740  13.979  1.0033  1.9845 -1.4485
 8120TIP3    H245776   2.045   0.802  14.084  0.5176  0.3193  0.0042
 8121TIP3   OH245777   2.597   3.443   4.898 -0.5508 -0.2527  0.1141
 8121TIP3    H145778   2.557   3.490   4.824  2.6784  0.2370 -1.5412
 8121TIP3    H245779   2.619   3.512   4.961 -0.3467 -0.1933 -0.0181
 8122TIP3   OH245780   3.578   5.277  14.533  0.1680 -0.0170 -0.0419
 8122TIP3    H145781   3.550   5.204  14.588  0.1614 -0.0575 -0.0989
 8122TIP3    H245782   3.546   5.355  14.579  0.1212 -0.0530 -0.0129
 8123TIP3   OH245783   1.330   1.847  13.661 -0.2930 -0.3333  0.2365
 8123TIP3    H145784   1.406   1.857  13.603 -0.2656  0.2072  0.3553
 8123TIP3    H245785   1.337   1.920  13.722 -1.1932  0.0441 -0.0881
 8124TIP3   OH245786   3.422   4.622   5.465  0.3944  0.1463 -0.3637
 8124TIP3    H145787   3.414   4.702   5.516 -0.8581  0.7786 -1.4954
 8124TIP3    H245788   3.470   4.561   5.522 -0.2507  1.0796  1.2174
 8125TIP3   OH245789   4.157   4.865  13.788 -0.0027 -0.0770  0.0253
 8125TIP3    H145790   4.072   4.824  13.772  0.1883 -1.4961  2.1256
 8125TIP3    H245791   4.220   4.793  13.779  0.7180  0.4560  0.6689
 8126TIP3   OH245792   4.521   4.707   4.553 -0.2341  0.2029 -0.2897
 8126TIP3    H145793   4.543   4.737   4.641 -0.4874 -0.4610  0.0053
 8126TIP3    H245794   4.446   4.649   4.565 -0.0684 -0.1512 -0.9058
 8127TIP3   OH245795   5.408   3.732  11.168 -0.2480  0.0572  0.0569
 8127TIP3    H145796   5.386   3.785  11.245  0.1387  0.6685 -0.2444
 8127TIP3    H245797   5.426   3.645  11.204  3.1134  1.0342  1.1388
 8128TIP3   OH245798   1.366   2.705   0.526  0.2569  0.0552 -0.1300
 8128TIP3    H145799   1.433   2.687   0.460  0.9906 -3.5289  1.3971
 8128TIP3    H245800   1.413   2.746   0.598 -0.0611  1.4523 -0.6749
 8129TIP3   OH245801   3.708   0.415  13.083 -0.2147 -0.0060  0.2046
 8129TIP3    H145802   3.630   0.429  13.137  0.8832 -0.2725  1.9675
 8129TIP3    H245803   3.759   0.496  13.092  0.3072 -0.3167  0.1453
 8130TIP3   OH245804   1.214   3.168  17.222  0.0170  0.5455 -0.0982
 8130TIP3    H145805   1.267   3.127  17.153  0.3212  0.3698  0.2349
 8130TIP3    H245806   1.124   3.140  17.203  0.3079 -1.0104  0.6066
 8131TIP3   OH245807   0.306   4.745   0.643  0.4150  0.7308  0.4277
 8131TIP3    H145808   0.349   4.674   0.595 -0.8827 -1.0429  1.6983
 8131TIP3    H245809   0.376   4.804   0.668  1.3273  0.8968 -2.2179
 8132TIP3   OH245810   2.803   0.645  14.313  0.3675 -0.4152  0.2149
 8132TIP3    H145811   2.712   0.636  14.284 -0.6665 -1.3104  3.2951
 8132TIP3    H245812   2.844   0.699  14.246 -2.6954  0.8623 -0.8397
 8133TIP3   OH245813   0.026   3.589  16.362  0.4026 -0.4783  0.1046
 8133TIP3    H145814  -0.051   3.597  16.306  0.6493  0.4283 -0.1233
 8133TIP3    H245815   0.089   3.651  16.325  1.3263 -1.3384  0.1639
 8134TIP3   OH245816   1.385   6.585   0.300  0.7636 -0.3171  0.7954
 8134TIP3    H145817   1.378   6.594   0.205 -2.1135  0.3434  0.9815
 8134TIP3    H245818   1.298   6.559   0.328  1.3522  0.1879  3.3550
 8135TIP3   OH245819   4.464   5.317  11.179  0.1509 -0.1975  0.6651
 8135TIP3    H145820   4.450   5.264  11.101  1.3970 -0.6105  0.7048
 8135TIP3    H245821   4.558   5.333  11.181  0.1328 -0.1377  2.0458
 8136TIP3   OH245822   3.676   6.007  12.498 -0.4621  0.9921  0.1333
 8136TIP3    H145823   3.738   5.959  12.443 -2.3694 -0.8675 -0.5448
 8136TIP3    H245824   3.730   6.064  12.552  1.7264  0.2659 -1.1839
 8137TIP3   OH245825   2.224   2.828   2.271 -0.1332 -0.1855 -0.1934
 8137TIP3    H145826   2.136   2.836   2.308 -0.3345 -0.2133 -0.6601
 8137TIP3    H245827   2.268   2.765   2.327 -0.6226 -0.6624 -0.3413
 8138TIP3   OH245828   6.212   2.484  14.665 -0.6048  0.4326 -0.0317
 8138TIP3    H145829   6.153   2.551  14.629  1.5855  1.5861 -1.6857
 8138TIP3    H245830   6.298   2.526  14.668  0.6532 -1.9486 -0.0435
 8139TIP3   OH245831   1.550   2.240   4.798 -0.3496 -0.0207 -0.3628
 8139TIP3    H145832   1.623   2.194   4.757 -1.7339 -1.8366 -0.9266
 8139TIP3    H245833   1.587   2.276   4.879  1.0697 -1.1876 -0.4505
 8140TIP3   OH245834   3.582   0.686  17.127  0.0018 -0.0815 -0.0418
 8140TIP3    H145835   3.678   0.683  17.127  0.1157  1.8030  1.4595
 8140TIP3    H245836   3.559   0.704  17.036  1.2593  2.1241  0.0031
 8141TIP3   OH245837   5.426   3.851  13.288  0.2688 -0.0013  0.0482
 8141TIP3    H145838   5.498   3.909  13.262  0.4531 -0.4287 -0.4186
 8141TIP3    H245839   5.431   3.847  13.383  1.2511 -0.5001 -0.0064
 8142TIP3   OH245840   4.443   6.681  12.753  0.0433 -0.2528 -0.3643
 8142TIP3    H145841   4.386   6.755  12.773  2.1358  0.9366  1.6718
 8142TIP3    H245842   4.404   6.608  12.801 -0.1838  0.3577  0.3991
 8143TIP3   OH245843   2.518   2.228   5.599 -0.5472  0.2129  0.0896
 8143TIP3    H145844   2.469   2.287   5.542  0.2623  0.4419 -0.3942
 8143TIP3    H245845   2.452   2.172   5.639 -1.4695  2.2334  1.5141
 8144TIP3   OH245846   4.824   6.510   6.458 -0.5664 -0.1967 -0.1399
 8144TIP3    H145847   4.832   6.422   6.419 -1.9048 -0.6387  0.5272
 8144TIP3    H245848   4.729   6.526   6.461 -0.3260  1.4503 -0.6174
 8145TIP3   OH245849   6.015   0.761   2.423 -0.4081 -0.7374 -0.2194
 8145TIP3    H145850   6.071   0.687   2.448 -1.5932 -1.2350  1.1633
 8145TIP3    H245851   6.052   0.835   2.471 -1.4206 -1.2594  1.4684
 8146TIP3   OH245852   4.513   5.456  16.126 -1.4057  0.2553 -0.2979
 8146TIP3    H145853   4.421   5.478  16.143 -2.6295 -3.5333 -0.9831
 8146TIP3    H245854   4.547   5.428  16.210 -1.1120  0.7898 -0.2299
 8147TIP3   OH245855   6.588   4.376   1.377 -0.1859 -0.1009 -0.0389
 8147TIP3    H145856   6.601   4.291   1.334  1.5903 -0.7388  1.6325
 8147TIP3    H245857   6.612   4.440   1.310  0.6652 -1.0056 -0.6301
 8148TIP3   OH245858   5.070   3.964  15.588  0.4565  0.5931  0.4391
 8148TIP3    H145859   5.131   3.891  15.577  0.2522  0.4958 -0.0855
 8148TIP3    H245860   5.040   3.983  15.499 -0.2931  0.6280  0.6947
 8149TIP3   OH245861   1.415   3.516  15.496  0.3712  0.1195  0.4636
 8149TIP3    H145862   1.357   3.569  15.551  1.0131  1.0704  0.2516
 8149TIP3    H245863   1.433   3.438  15.548 -1.9306 -0.7350  0.1214
 8150TIP3   OH245864   2.145   6.144   3.534  0.7002 -0.1088 -0.2382
 8150TIP3    H145865   2.240   6.138   3.538  0.7858  0.4539 -1.1050
 8150TIP3    H245866   2.127   6.238   3.527  0.0109 -0.1108  1.1465
 8151TIP3   OH245867   4.382   4.952  15.526 -0.0054  0.2313  0.4426
 8151TIP3    H145868   4.306   4.903  15.494  0.5477 -0.9297  0.8540
 8151TIP3    H245869   4.349   5.040  15.540 -0.9499  0.0854 -0.6616
 8152TIP3   OH245870   4.751   3.638   2.838  0.8336 -0.4841 -0.1868
 8152TIP3    H145871   4.798   3.720   2.823 -2.0883  1.3691 -0.0786
 8152TIP3    H245872   4.726   3.642   2.930  0.0016 -1.1253 -0.3784
 8153TIP3   OH245873   0.673   2.479   2.205  0.3844  0.9759 -0.6615
 8153TIP3    H145874   0.626   2.556   2.173 -0.7939 -0.2683 -2.0928
 8153TIP3    H245875   0.735   2.458   2.134  1.0287  0.8763 -0.0768
 8154TIP3   OH245876   1.391   5.770  15.838 -0.0611  0.1033  0.0647
 8154TIP3    H145877   1.359   5.854  15.805  2.6819  1.1871 -0.1741
 8154TIP3    H245878   1.401   5.784  15.932 -0.2044 -0.1706  0.1196
 8155TIP3   OH245879   4.174   4.073   5.191 -0.1770 -0.1907 -0.6440
 8155TIP3    H145880   4.186   3.979   5.185  3.7327  0.1714 -1.4093
 8155TIP3    H245881   4.198   4.094   5.282 -0.2870  0.1308 -0.6894
 8156TIP3   OH245882   2.077   1.626  10.650  0.0059  0.4666  0.3262
 8156TIP3    H145883   2.098   1.708  10.694 -0.4341  1.5214 -1.3198
 8156TIP3    H245884   1.982   1.619  10.658 -0.0850  0.6878 -0.4163
 8157TIP3   OH245885   2.184   0.708  14.770 -0.4645  0.3941  0.6518
 8157TIP3    H145886   2.247   0.651  14.726  0.7921  1.3411  1.1357
 8157TIP3    H245887   2.104   0.656  14.777  0.2664 -0.8576  0.0341
 8158TIP3   OH245888   0.796   0.976   3.952 -0.2052 -0.0160  0.4084
 8158TIP3    H145889   0.849   1.055   3.962 -2.1909  1.6094 -0.9428
 8158TIP3    H245890   0.717   0.994   4.004 -0.0030 -1.8608  1.4408
 8159TIP3   OH245891   2.414   6.184  12.867 -0.5833 -0.7337  0.3968
 8159TIP3    H145892   2.381   6.271  12.845  0.0913 -0.1502  1.5873
 8159TIP3    H245893   2.352   6.123  12.827 -0.8547  0.2878 -0.7658
 8160TIP3   OH245894   2.677   1.394  15.175 -0.1088  0.2906  0.1965
 8160TIP3    H145895   2.631   1.354  15.101  1.1326  2.5015 -1.9047
 8160TIP3    H245896   2.625   1.473  15.195  0.8864  1.0054  0.0223
 8161TIP3   OH245897   1.252   4.573  14.760  0.6340 -0.3828  0.0237
 8161TIP3    H145898   1.300   4.522  14.694 -1.4068 -0.9946 -1.0701
 8161TIP3    H245899   1.190   4.511  14.797  0.9675  0.2642  1.7553
 8162TIP3   OH245900   6.518   2.594  15.757 -0.1728 -0.5663  0.4547
 8162TIP3    H145901   6.503   2.650  15.680  0.1009 -0.1705  0.6881
 8162TIP3    H245902   6.607   2.561  15.745  0.1815  0.1620  1.0201
 8163TIP3   OH245903   4.708   0.088  16.000 -0.1138  0.1349 -0.4560
 8163TIP3    H145904   4.692   0.082  16.095  2.8256  2.1371  0.3090
 8163TIP3    H245905   4.643   0.151  15.969 -0.1452  0.6195  0.5489
 8164TIP3   OH245906   5.581   6.088  11.860 -0.3974  0.0226  0.3110
 8164TIP3    H145907   5.547   6.020  11.918  3.0180 -0.3214  2.1530
 8164TIP3    H245908   5.568   6.169  11.908  0.1876  0.0314  0.4623
 8165TIP3   OH245909   3.515   1.561  15.813  0.3884  0.1952  0.0705
 8165TIP3    H145910   3.436   1.555  15.868  1.5341  0.9175  1.9029
 8165TIP3    H245911   3.574   1.495  15.850  1.6444  1.5291  0.5660
 8166TIP3   OH245912   3.490   2.787   6.371  0.0737  0.1704  0.3084
 8166TIP3    H145913   3.535   2.734   6.306  0.1945 -0.5542  0.9652
 8166TIP3    H245914   3.451   2.858   6.321  1.3003  0.3898 -0.3662
 8167TIP3   OH245915   4.557   6.687  15.344  0.2117 -0.0502 -0.2391
 8167TIP3    H145916   4.643   6.722  15.363  1.0532 -1.7477 -0.6798
 8167TIP3    H245917   4.499   6.763  15.343  2.1169  1.5296 -2.4393
 8168TIP3   OH245918   0.393   0.871  12.704  0.0132 -0.3595  0.1744
 8168TIP3    H145919   0.432   0.810  12.642  0.2813 -0.7593  0.7313
 8168TIP3    H245920   0.303   0.882  12.673 -0.0167 -0.9835  0.0336
 8169TIP3   OH245921   1.860   2.532  15.705  0.5314  0.7223  0.4165
 8169TIP3    H145922   1.834   2.517  15.796  0.4355  0.6403  0.3753
 8169TIP3    H245923   1.850   2.627  15.693  0.0008  0.6577  0.3247
 8170TIP3   OH245924   3.696   4.750   2.392 -0.5080  0.2616  0.0047
 8170TIP3    H145925   3.680   4.842   2.413 -1.6123  0.0749  0.0327
 8170TIP3    H245926   3.771   4.751   2.332 -0.2202  1.1362  0.3682
 8171TIP3   OH245927   0.371   4.224  15.561 -0.3333 -0.1003  0.6608
 8171TIP3    H145928   0.438   4.163  15.590  0.5303 -0.0694 -1.1364
 8171TIP3    H245929   0.414   4.310  15.564 -0.8327  0.1435  1.0668
 8172TIP3   OH245930   6.665   2.178   6.575  0.0498  0.3952 -0.3513
 8172TIP3    H145931   6.694   2.129   6.498  0.5246 -2.9103  1.7239
 8172TIP3    H245932   6.739   2.235   6.595  0.5235  0.2249 -1.4879
 8173TIP3   OH245933   2.425   5.509  11.029  0.3321  0.1912  0.3410
 8173TIP3    H145934   2.370   5.521  10.951  0.4455  0.3106  0.2804
 8173TIP3    H245935   2.469   5.593  11.040  1.2670 -0.2206 -0.1966
 8174TIP3   OH245936   6.064   5.415   1.744  0.1582  0.0807  0.1893
 8174TIP3    H145937   6.062   5.506   1.774  0.6002  0.5748 -1.1954
 8174TIP3    H245938   5.974   5.385   1.755 -0.0216  0.7247  0.5575
 8175TIP3   OH245939   5.206   5.642   1.348  0.2360  0.2761  0.0505
 8175TIP3    H145940   5.138   5.710   1.351 -0.7333 -0.6704  0.0812
 8175TIP3    H245941   5.247   5.646   1.435 -0.6901 -0.0305  0.5189
 8176TIP3   OH245942   3.967   6.439  13.603  0.2599  0.1375  0.0454
 8176TIP3    H145943   3.896   6.434  13.667 -0.6539 -0.6229 -1.0031
 8176TIP3    H245944   4.020   6.362  13.620 -1.2366 -1.3287 -1.5002
 8177TIP3   OH245945   1.189   1.681   3.847 -0.1822  0.3705  0.3330
 8177TIP3    H145946   1.172   1.721   3.932 -0.6142 -0.3791  0.6098
 8177TIP3    H245947   1.200   1.588   3.866 -0.0701  0.2280 -0.4013
 8178TIP3   OH245948   3.832   4.587  15.509 -0.4160 -0.2745 -0.4871
 8178TIP3    H145949   3.754   4.533  15.520  0.0368 -0.6865  0.8703
 8178TIP3    H245950   3.899   4.527  15.477 -0.1972 -0.2996  0.0099
 8179TIP3   OH245951   5.158   6.464   1.019  0.0398  0.6785 -0.0089
 8179TIP3    H145952   5.218   6.508   1.079  0.4776  1.6574 -1.1295
 8179TIP3    H245953   5.148   6.524   0.945 -2.3945  0.5842  0.1525
 8180TIP3   OH245954   6.267   2.710  14.313  0.0825  0.5815  0.0608
 8180TIP3    H145955   6.250   2.804  14.318 -0.0048  0.5602  0.1591
 8180TIP3    H245956   6.182   2.671  14.294  0.1647  0.5448 -0.2512
 8181TIP3   OH245957   2.836   4.779   4.260  0.3477  0.2232 -0.4545
 8181TIP3    H145958   2.834   4.683   4.258  1.0825  0.2085 -0.9643
 8181TIP3    H245959   2.765   4.805   4.201  0.1724 -0.0037 -0.3471
 8182TIP3   OH245960   4.962   5.951   4.916  0.3513  0.1951  0.0489
 8182TIP3    H145961   4.955   5.856   4.911  1.4661  0.1357 -0.5642
 8182TIP3    H245962   4.932   5.972   5.005  0.6387 -0.7836  0.3882
 8183TIP3   OH245963   6.122   1.223   1.355 -0.1381 -0.2686  0.0144
 8183TIP3    H145964   6.138   1.314   1.332  0.3473  0.0486  1.4546
 8183TIP3    H245965   6.134   1.174   1.274  1.7246  0.7170 -0.3522
 8184TIP3   OH245966   4.449   0.431  15.221  0.4132 -0.3505 -0.2069
 8184TIP3    H145967   4.461   0.500  15.286  0.1514 -0.5055  0.0116
 8184TIP3    H245968   4.355   0.410  15.226  0.7596 -1.8370  0.8891
 8185TIP3   OH245969   1.864   3.507  16.136 -0.4067 -0.6875 -0.6067
 8185TIP3    H145970   1.810   3.520  16.059  0.9171 -2.0752 -1.8200
 8185TIP3    H245971   1.952   3.533  16.109 -0.3512  1.3110  1.2543
 8186TIP3   OH245972   1.270   5.780  14.696 -0.4525 -0.1524  0.2979
 8186TIP3    H145973   1.339   5.722  14.665 -1.2804 -2.7757  2.8942
 8186TIP3    H245974   1.188   5.738  14.669 -1.0906  0.9325  0.4487
 8187TIP3   OH245975   6.425   6.664  13.688  0.4899 -0.0457 -0.0098
 8187TIP3    H145976   6.399   6.756  13.684  0.4773 -0.0402  0.1798
 8187TIP3    H245977   6.342   6.616  13.693  0.4441 -0.1481 -1.4585
 8188TIP3   OH245978   1.559   1.224   5.480 -0.5464 -0.3266  0.0003
 8188TIP3    H145979   1.585   1.179   5.560 -0.1748 -0.4521 -0.1874
 8188TIP3    H245980   1.465   1.241   5.491 -0.2154  0.9319  1.0720
 8189TIP3   OH245981   5.342   0.729  15.131  0.4885 -0.2501  0.5068
 8189TIP3    H145982   5.391   0.709  15.051  0.0614 -0.9974  0.4207
 8189TIP3    H245983   5.402   0.706  15.202  0.6031 -0.2690  0.4050
 8190TIP3   OH245984   0.515   4.159   2.168 -0.4046  0.0033 -0.8060
 8190TIP3    H145985   0.474   4.216   2.234 -0.3433  0.3395 -1.0543
 8190TIP3    H245986   0.450   4.091   2.151 -0.8622  0.5231 -1.1842
 8191TIP3   OH245987   6.245   5.853   5.331  0.0490  0.2720 -0.3736
 8191TIP3    H145988   6.235   5.761   5.356  2.2646  0.3055  0.9205
 8191TIP3    H245989   6.171   5.898   5.373  0.3999 -0.5725  1.2394
 8192TIP3   OH245990   0.225   4.092   1.802 -0.4249 -0.4613 -0.3990
 8192TIP3    H145991   0.286   4.072   1.730  0.1388 -0.3151  0.0262
 8192TIP3    H245992   0.230   4.015   1.859 -1.1642 -0.7428 -0.7116
 8193TIP3   OH245993   2.920   3.187   0.729  0.2198  0.0541  0.1928
 8193TIP3    H145994   2.852   3.163   0.667  0.9198  0.5390 -0.7888
 8193TIP3    H245995   2.886   3.161   0.814 -0.8520 -0.4158 -0.3717
 8194TIP3   OH245996   6.632   1.440  16.385 -0.1107  0.1477  0.2048
 8194TIP3    H145997   6.553   1.487  16.361  0.1020  0.8708  0.8888
 8194TIP3    H245998   6.681   1.500  16.441 -0.2422 -1.1591  1.8367
 8195TIP3   OH245999   1.729   5.909  12.355  0.2374 -0.2099  0.0533
 8195TIP3    H146000   1.756   5.818  12.370  1.2082 -0.0026 -0.3467
 8195TIP3    H246001   1.810   5.959  12.364 -0.2643  0.5969  0.1075
 8196TIP3   OH246002   2.096   1.883  10.738  0.1921  0.0900 -0.0547
 8196TIP3    H146003   2.062   1.915  10.654  0.5224 -0.3415 -0.3568
 8196TIP3    H246004   2.017   1.860  10.788 -0.0030  0.1848 -0.3145
 8197TIP3   OH246005   0.929   4.222   2.554  0.1602 -0.0298  0.2158
 8197TIP3    H146006   1.012   4.260   2.524 -0.8496  0.6214 -1.9668
 8197TIP3    H246007   0.937   4.129   2.535  0.4587  0.0035  0.1711
 8198TIP3   OH246008   6.717   1.234  11.584  0.1345  0.0051  0.0990
 8198TIP3    H146009   6.726   1.328  11.600 -1.3168  0.3205 -0.8144
 8198TIP3    H246010   6.623   1.218  11.580  0.3442 -1.5247  0.3415
 8199TIP3   OH246011   5.814   0.369   1.376  0.0389  0.3728  0.3055
 8199TIP3    H146012   5.849   0.419   1.303 -0.2846 -1.8012 -1.4533
 8199TIP3    H246013   5.868   0.393   1.451  0.9906  1.9679 -0.8497
 8200TIP3   OH246014   3.254   1.762  16.972  0.5294 -0.0840  0.4226
 8200TIP3    H146015   3.294   1.834  17.021  0.6768 -0.0549  0.2593
 8200TIP3    H246016   3.181   1.803  16.925 -0.4884 -0.3689  1.7102
 8201TIP3   OH246017   2.865   0.681  11.106  0.2782 -0.1421  0.6708
 8201TIP3    H146018   2.772   0.698  11.121  0.4806 -0.2007  2.1689
 8201TIP3    H246019   2.906   0.768  11.109  0.5064 -0.2655  2.0790
 8202TIP3   OH246020   5.182   0.073  14.243  0.0421 -0.3229 -0.3092
 8202TIP3    H146021   5.169   0.047  14.152  1.0118  0.6581 -0.7656
 8202TIP3    H246022   5.278   0.076  14.253 -0.0550  0.3279  0.5033
 8203TIP3   OH246023   5.667   4.408   2.132 -0.3323 -0.2098  0.3683
 8203TIP3    H146024   5.610   4.471   2.088 -1.1711 -0.7977  0.5816
 8203TIP3    H246025   5.750   4.453   2.142 -0.8277  0.7436  0.2362
 8204TIP3   OH246026   2.955   3.567   0.722 -0.5109  0.7439 -0.8490
 8204TIP3    H146027   2.990   3.637   0.777 -0.8153  1.1668 -1.1892
 8204TIP3    H246028   3.033   3.527   0.683 -0.1436 -0.7127  1.2220
 8205TIP3   OH246029   4.889   2.208  15.728  0.2658  0.0424  0.4997
 8205TIP3    H146030   4.874   2.150  15.653  0.5498  1.2766 -0.5582
 8205TIP3    H246031   4.807   2.204  15.777  0.2859 -1.2437  0.4599
 8206TIP3   OH246032   3.129   2.652   0.648 -0.2605  0.3061  0.7019
 8206TIP3    H146033   3.148   2.736   0.689 -1.2186  0.1358  1.5305
 8206TIP3    H246034   3.124   2.671   0.554  1.2351  0.8337  0.7078
 8207TIP3   OH246035   6.223   0.692   2.069  0.2387  0.2368  0.2528
 8207TIP3    H146036   6.153   0.727   2.014 -1.0316  0.9848  2.2332
 8207TIP3    H246037   6.279   0.767   2.088 -0.1232  0.3126  1.0780
 8208TIP3   OH246038   2.140   1.954   1.117  0.7008 -0.1609 -0.4004
 8208TIP3    H146039   2.095   1.949   1.032 -1.0753  1.7455  0.3372
 8208TIP3    H246040   2.202   2.026   1.107  0.7993 -0.2199 -0.2218
 8209TIP3   OH246041   3.277   1.212  13.452  0.4796  0.0505  0.1546
 8209TIP3    H146042   3.256   1.121  13.434  2.4229 -0.5139  0.5220
 8209TIP3    H246043   3.358   1.229  13.404  0.8833  1.1726  1.1633
 8210TIP3   OH246044   6.344   4.560   1.831  0.0268 -0.1853  0.3740
 8210TIP3    H146045   6.402   4.530   1.761  2.2707  2.2825  0.9908
 8210TIP3    H246046   6.285   4.623   1.788  0.6719  0.5043  0.4879
 8211TIP3   OH246047   4.039   3.614   2.083  0.4815 -0.0800 -0.1595
 8211TIP3    H146048   4.050   3.522   2.107 -2.6870 -0.2177  1.2690
 8211TIP3    H246049   4.088   3.662   2.149  2.8397 -0.6601 -1.3769
 8212TIP3   OH246050   1.018   0.131  15.797  0.2224  0.4822 -0.4892
 8212TIP3    H146051   0.935   0.163  15.762  0.6671 -0.0885 -2.1767
 8212TIP3    H246052   1.044   0.198  15.861 -0.6180  1.6363 -1.3030
 8213TIP3   OH246053   1.412   5.016   1.670 -0.1741 -0.0184 -0.5914
 8213TIP3    H146054   1.413   5.102   1.712  0.7597 -0.3147  0.0385
 8213TIP3    H246055   1.364   5.029   1.589 -1.9160  0.6190  0.4871
 8214TIP3   OH246056   4.751   1.027   0.431  0.1576  0.1432  0.1335
 8214TIP3    H146057   4.695   0.988   0.499  1.5676 -3.2985 -0.4411
 8214TIP3    H246058   4.788   1.105   0.472 -1.1824 -0.2504  2.2938
 8215TIP3   OH246059   5.318   1.168   4.427 -0.2368 -0.4766  0.7384
 8215TIP3    H146060   5.331   1.210   4.512  1.1087  0.5875  0.0345
 8215TIP3    H246061   5.369   1.087   4.432  1.0074  0.2717  0.4710
 8216TIP3   OH246062   1.696   4.025   5.982 -0.7526 -0.1825  0.1193
 8216TIP3    H146063   1.790   4.020   5.999 -0.7109 -0.4372 -0.1776
 8216TIP3    H246064   1.658   4.061   6.062 -0.1647  1.9423 -0.4924
 8217TIP3   OH246065   0.174   0.978  10.268  0.4808  0.0137 -0.3438
 8217TIP3    H146066   0.254   0.929  10.251  0.6783  0.0156  0.5607
 8217TIP3    H246067   0.203   1.065  10.297  0.1398  0.3614 -1.0073
 8218TIP3   OH246068   6.281   4.447  14.689  0.2425  0.7382  0.2049
 8218TIP3    H146069   6.233   4.501  14.751 -1.5824 -0.7908  0.1896
 8218TIP3    H246070   6.242   4.360  14.696  0.9095  0.1713 -2.0779
 8219TIP3   OH246071   5.281   4.565   2.879 -0.0074  0.1508 -0.2981
 8219TIP3    H146072   5.243   4.490   2.832 -0.8590 -0.0803  0.7412
 8219TIP3    H246073   5.332   4.526   2.949 -0.0174  0.5398 -0.0738
 8220TIP3   OH246074   2.853   0.159   5.552 -0.2228 -0.2283 -0.2120
 8220TIP3    H146075   2.938   0.166   5.508  0.2338 -2.1140  0.2757
 8220TIP3    H246076   2.830   0.067   5.546 -1.5798  0.0021  0.8816
 8221TIP3   OH246077   0.235   0.707  16.276 -0.4174  0.4652 -0.1218
 8221TIP3    H146078   0.240   0.631  16.218 -0.5735  0.2426  0.1568
 8221TIP3    H246079   0.287   0.774  16.232 -0.0782  0.1214 -0.2495
 8222TIP3   OH246080   2.848   3.538  15.428 -0.0951  0.6596  0.2054
 8222TIP3    H146081   2.936   3.568  15.450 -0.4403  1.0613  1.1103
 8222TIP3    H246082   2.839   3.455  15.475 -0.4636  1.0063  0.7717
 8223TIP3   OH246083   3.450   0.134   4.782 -0.6691  0.4218 -0.7641
 8223TIP3    H146084   3.401   0.116   4.862  2.3991 -2.1359  0.7849
 8223TIP3    H246085   3.490   0.220   4.797 -1.8838  0.9706 -0.5645
 8224TIP3   OH246086   1.741   5.278  16.063 -0.0800  0.7254  0.1213
 8224TIP3    H146087   1.669   5.223  16.033 -0.2432 -0.1436  1.9560
 8224TIP3    H246088   1.810   5.266  15.998 -0.4457 -0.9772 -0.0004
 8225TIP3   OH246089   1.352   2.927   3.740  0.2293  0.1458  0.2281
 8225TIP3    H146090   1.284   2.860   3.740  1.0384 -1.0310 -4.4461
 8225TIP3    H246091   1.434   2.878   3.736  0.8821  1.2630 -2.2345
 8226TIP3   OH246092   4.421   5.869   5.967 -0.2505  0.6411  0.0579
 8226TIP3    H146093   4.492   5.929   5.946  0.4951 -0.3368 -0.2953
 8226TIP3    H246094   4.463   5.798   6.016 -0.8599 -0.2667 -0.6966
 8227TIP3   OH246095   5.290   5.893   0.546 -0.3765 -0.5084 -0.5808
 8227TIP3    H146096   5.377   5.900   0.506  0.4673  0.0482  1.2220
 8227TIP3    H246097   5.266   5.801   0.535  2.1984 -1.6958  2.1254
 8228TIP3   OH246098   3.610   3.837  14.165  0.2163 -0.1386 -0.4309
 8228TIP3    H146099   3.564   3.918  14.186 -0.6502 -0.4070 -1.2013
 8228TIP3    H246100   3.560   3.799  14.092  0.7552 -1.2289 -0.2614
 8229TIP3   OH246101   1.074   5.338   0.116  0.3463 -0.3964 -0.5874
 8229TIP3    H146102   1.064   5.245   0.094 -1.2012 -0.5529  0.6567
 8229TIP3    H246103   1.149   5.341   0.175  0.7856 -0.7495 -1.1116
 8230TIP3   OH246104   3.747   6.545   2.734 -0.1794 -0.4416 -0.2451
 8230TIP3    H146105   3.804   6.530   2.809 -1.8146 -1.2423  0.8977
 8230TIP3    H246106   3.744   6.640   2.725  0.2323 -0.3487  0.5435
 8231TIP3   OH246107   2.623   4.428   5.397 -0.3223 -0.5526 -0.3194
 8231TIP3    H146108   2.580   4.499   5.444  0.8190  0.1992 -0.3793
 8231TIP3    H246109   2.610   4.351   5.453 -1.1996 -0.2132 -0.0457
 8232TIP3   OH246110   4.037   3.349  15.551  0.1005 -0.3443  0.6628
 8232TIP3    H146111   4.128   3.372  15.571 -0.4078  1.6187  0.8725
 8232TIP3    H246112   4.025   3.377  15.460  0.2227 -2.3964 -0.0464
 8233TIP3   OH246113   5.894   1.267  15.777  1.0140  0.0663 -0.1082
 8233TIP3    H146114   5.966   1.329  15.770  1.0562  0.0398  0.0789
 8233TIP3    H246115   5.927   1.187  15.735  0.1864  0.8219 -2.3101
 8234TIP3   OH246116   2.816   2.044   3.120 -0.1760  0.0025 -0.0145
 8234TIP3    H146117   2.794   1.952   3.103  0.1311  0.2461 -1.9485
 8234TIP3    H246118   2.911   2.047   3.118 -0.1754  0.3217  0.3578
 8235TIP3   OH246119   2.703   4.956   0.970  0.0806 -0.5069 -0.4541
 8235TIP3    H146120   2.653   4.916   1.041 -0.3551  0.4337 -0.2134
 8235TIP3    H246121   2.636   4.997   0.915  0.5985  1.1239  0.0904
 8236TIP3   OH246122   2.051   1.148  12.067  0.0461  0.4520 -0.3272
 8236TIP3    H146123   2.005   1.095  12.001 -1.1958  0.9622  0.0942
 8236TIP3    H246124   2.089   1.084  12.127  1.6543 -0.0419 -1.7975
 8237TIP3   OH246125   1.868   6.164  10.771  0.8944 -0.3762 -0.0008
 8237TIP3    H146126   1.788   6.203  10.736  2.4638  1.0722 -2.1850
 8237TIP3    H246127   1.902   6.110  10.700  2.5979  0.2134  0.3256
 8238TIP3   OH246128   2.919   3.175  16.726 -0.1878  0.3899  0.0479
 8238TIP3    H146129   2.914   3.270  16.740 -1.6107  0.7137 -2.0505
 8238TIP3    H246130   2.894   3.164  16.634 -3.0655 -2.2570  1.0043
 8239TIP3   OH246131   1.633   1.851  14.143  0.1960 -0.4095 -0.1505
 8239TIP3    H146132   1.655   1.885  14.056 -2.3659  0.9886 -0.3523
 8239TIP3    H246133   1.604   1.761  14.127 -0.0553 -0.2324 -0.7266
 8240TIP3   OH246134   0.808   0.241  15.696  0.2839 -0.1023  0.0293
 8240TIP3    H146135   0.760   0.158  15.695  1.2923 -0.7366  1.4465
 8240TIP3    H246136   0.742   0.307  15.674 -1.1759 -0.9868  1.5667
 8241TIP3   OH246137   2.374   5.946  16.018  0.0789 -0.6047 -0.4602
 8241TIP3    H146138   2.435   5.983  15.955  0.2254 -0.4431 -0.2257
 8241TIP3    H246139   2.332   5.874  15.972  0.4766 -0.7414 -0.6107
 8242TIP3   OH246140   5.793   2.561  16.702 -0.0476  0.5263 -0.5141
 8242TIP3    H146141   5.720   2.500  16.693  0.0619 -0.0879  2.1850
 8242TIP3    H246142   5.768   2.636  16.647 -2.7199  0.3304  0.3152
 8243TIP3   OH246143   0.907   6.363  13.996  0.0358 -0.4065  0.3770
 8243TIP3    H146144   0.852   6.301  14.044  0.8351 -1.6251 -0.2419
 8243TIP3    H246145   0.957   6.408  14.064  1.3507 -2.3015  0.7248
 8244TIP3   OH246146   3.246   1.912   1.366 -0.3284  0.2411  0.2336
 8244TIP3    H146147   3.279   1.832   1.325 -0.1186 -1.4620  3.4556
 8244TIP3    H246148   3.170   1.936   1.312  0.2463 -1.4601 -1.4439
 8245TIP3   OH246149   4.655   6.213  11.734  0.5900 -0.0921  0.3631
 8245TIP3    H146150   4.677   6.279  11.668  0.7083 -1.4017 -0.9531
 8245TIP3    H246151   4.655   6.130  11.687 -1.8564 -0.8199  1.4452
 8246TIP3   OH246152   2.232   4.707   4.031 -0.5684 -0.0175 -0.2426
 8246TIP3    H146153   2.299   4.671   4.088  0.7352  1.7108 -0.5753
 8246TIP3    H246154   2.200   4.785   4.077 -0.1611  0.8756 -1.4191
 8247TIP3   OH246155   0.637   4.210  12.994 -0.4418  0.6458  0.3627
 8247TIP3    H146156   0.572   4.204  13.063  0.2226 -1.5081  0.8850
 8247TIP3    H246157   0.717   4.173  13.032  0.4283  1.0027 -1.0155
 8248TIP3   OH246158   5.117   0.738   0.899 -0.1115 -0.7126  0.5527
 8248TIP3    H146159   5.112   0.653   0.943  2.1142 -1.5681 -0.7234
 8248TIP3    H246160   5.115   0.717   0.806 -2.2528  0.9008  0.1499
 8249TIP3   OH246161   6.073   3.582   4.442  0.3942 -0.0197 -0.6505
 8249TIP3    H146162   5.985   3.546   4.455  0.7209 -0.1201  1.7654
 8249TIP3    H246163   6.125   3.507   4.413  0.2877 -0.7094  0.8315
 8250TIP3   OH246164   3.599   1.676   0.436  0.3680  0.2903  0.3061
 8250TIP3    H146165   3.564   1.765   0.439 -1.2689 -0.3444  0.5304
 8250TIP3    H246166   3.596   1.652   0.343 -3.5916 -1.1582  0.6440
 8251TIP3   OH246167   6.505   6.330  16.927 -0.4689 -0.2035  0.5735
 8251TIP3    H146168   6.568   6.374  16.984  0.6549  0.7873 -1.3217
 8251TIP3    H246169   6.544   6.245  16.909 -0.7262 -0.4363  1.0996
 8252TIP3   OH246170   1.634   4.141  13.068 -0.9884 -0.0307  0.4701
 8252TIP3    H146171   1.596   4.054  13.074  0.2051 -0.5622  0.6345
 8252TIP3    H246172   1.728   4.126  13.061 -0.8404  1.2056 -0.7338
 8253TIP3   OH246173   4.930   4.173   4.581  0.1045 -0.6662  0.7268
 8253TIP3    H146174   4.966   4.091   4.616 -0.3389 -0.1874  2.3936
 8253TIP3    H246175   4.952   4.239   4.646 -2.6501 -0.1142  1.2206
 8254TIP3   OH246176   5.499   1.340   3.050 -0.0084 -0.2572  0.1277
 8254TIP3    H146177   5.591   1.356   3.071 -0.2823  0.2925  0.9585
 8254TIP3    H246178   5.502   1.278   2.976  1.0072 -1.8766  1.4398
 8255TIP3   OH246179   2.279   0.186   1.810 -0.3511 -0.3411  0.3261
 8255TIP3    H146180   2.216   0.254   1.832  0.8723  1.4159 -1.3187
 8255TIP3    H246181   2.303   0.148   1.895  0.1840  2.4758  1.5705
 8256TIP3   OH246182   5.048   3.241   4.894 -0.2426 -0.6354  0.2539
 8256TIP3    H146183   5.090   3.272   4.813 -1.4868 -1.2169 -0.6453
 8256TIP3    H246184   5.048   3.318   4.951  1.5017 -0.4645  0.0863
 8257TIP3   OH246185   0.332   6.025   5.462  0.3737  0.7556  0.0829
 8257TIP3    H146186   0.396   5.956   5.445  0.8359  1.4210 -0.9038
 8257TIP3    H246187   0.311   6.060   5.376 -0.4537  1.3235  0.5079
 8258TIP3   OH246188   2.988   3.686  15.734 -0.4834 -0.0466 -0.3865
 8258TIP3    H146189   3.018   3.601  15.701  0.5093  0.0682  0.1760
 8258TIP3    H246190   3.014   3.686  15.826 -2.1238  0.1308  0.1000
 8259TIP3   OH246191   2.792   0.693  16.946  0.3029  0.8308  0.0461
 8259TIP3    H146192   2.879   0.665  16.919  0.0156  0.1088 -0.1591
 8259TIP3    H246193   2.801   0.713  17.039  0.7710  1.1209 -0.0614
 8260TIP3   OH246194   4.969   0.835   5.489  0.0222  0.1225 -0.3378
 8260TIP3    H146195   5.048   0.815   5.439  0.9871 -0.3877  1.2809
 8260TIP3    H246196   4.995   0.819   5.580 -1.9023  0.1385  0.2492
 8261TIP3   OH246197   2.032   5.397  14.980 -0.2378  0.0013 -0.0690
 8261TIP3    H146198   2.036   5.339  14.904 -0.5767 -0.3513  0.1783
 8261TIP3    H246199   2.045   5.340  15.055  0.8151  0.4536  0.1126
 8262TIP3   OH246200   0.244   6.562   4.970 -0.3034  0.2040  0.1157
 8262TIP3    H146201   0.259   6.641   4.918 -2.2753  0.1628 -0.6023
 8262TIP3    H246202   0.313   6.563   5.036  0.7564  1.5932 -0.9493
 8263TIP3   OH246203   6.028   1.610   4.558 -0.1493 -0.4839 -0.0483
 8263TIP3    H146204   5.938   1.641   4.551 -0.6371 -1.3992  1.6031
 8263TIP3    H246205   6.044   1.607   4.653  1.1189 -1.7224 -0.2813
 8264TIP3   OH246206   4.648   6.339  13.134  0.1540 -0.7515 -0.4199
 8264TIP3    H146207   4.734   6.373  13.158 -0.3291  0.7700 -0.7048
 8264TIP3    H246208   4.588   6.411  13.155 -0.8683 -1.2630 -1.4919
 8265TIP3   OH246209   5.263   1.964  11.240  0.0413 -0.3512  0.0417
 8265TIP3    H146210   5.297   1.883  11.279  0.1798 -0.4061 -0.1893
 8265TIP3    H246211   5.212   1.934  11.164  1.6984 -0.1214 -1.2085
 8266TIP3   OH246212   3.099   4.138   2.396  0.4944 -0.1221  0.1240
 8266TIP3    H146213   3.032   4.082   2.435  0.1523  0.6281  0.6235
 8266TIP3    H246214   3.115   4.100   2.310 -0.6098 -0.2748 -0.0193
 8267TIP3   OH246215   4.019   3.612  16.643  0.5633  0.2865 -0.3872
 8267TIP3    H146216   4.021   3.615  16.547  3.6634  1.0608 -0.4278
 8267TIP3    H246217   4.025   3.519  16.664 -0.6529  0.0761 -0.9219
 8268TIP3   OH246218   2.100   5.870   0.172 -0.0867  0.3278  0.1453
 8268TIP3    H146219   2.113   5.911   0.257  0.1038  0.6232 -0.0248
 8268TIP3    H246220   2.167   5.909   0.115 -0.5879  0.5635 -0.2894
 8269TIP3   OH246221   3.319   6.539  11.315  0.3925  1.0473 -0.4160
 8269TIP3    H146222   3.279   6.621  11.344 -1.0397 -0.0818  1.0061
 8269TIP3    H246223   3.284   6.525  11.227 -1.0441  0.9601  0.1343
 8270TIP3   OH246224   6.670   5.240   4.160  0.3793 -0.4648 -0.5978
 8270TIP3    H146225   6.575   5.248   4.154  0.3678 -0.3979 -0.3584
 8270TIP3    H246226   6.698   5.211   4.073  0.2606  0.6445 -1.0199
 8271TIP3   OH246227   5.442   5.348   0.762 -0.0206 -0.3489  0.1799
 8271TIP3    H146228   5.518   5.291   0.746  0.4634  0.5086 -0.6569
 8271TIP3    H246229   5.478   5.437   0.762 -0.6837 -0.0442  1.9928
 8272TIP3   OH246230   6.671   3.261  15.002  0.2005  0.4506 -0.4200
 8272TIP3    H146231   6.733   3.260  14.928 -0.1905 -1.4451 -0.7703
 8272TIP3    H246232   6.642   3.352  15.007  2.9396  1.4319 -0.2848
 8273TIP3   OH246233   4.695   2.467   5.582 -0.4847  0.2833 -0.6704
 8273TIP3    H146234   4.692   2.563   5.575 -1.6409  0.2852 -0.3295
 8273TIP3    H246235   4.714   2.438   5.494  0.4535  0.8404 -0.6705
 8274TIP3   OH246236   4.158   2.205  13.749 -0.0700  0.0079  0.2418
 8274TIP3    H146237   4.118   2.173  13.668 -0.5031  0.4397  0.2818
 8274TIP3    H246238   4.177   2.297  13.731 -1.3207  0.4477  1.0507
 8275TIP3   OH246239   2.504   0.040  16.785  0.3003 -0.2408 -0.3604
 8275TIP3    H146240   2.568  -0.014  16.738  0.9951  0.3507 -0.1050
 8275TIP3    H246241   2.541   0.051  16.872 -0.9814 -1.3425  0.3808
 8276TIP3   OH246242   6.687   1.519  14.294 -0.1701  0.5465 -0.2251
 8276TIP3    H146243   6.669   1.457  14.224 -0.8388  0.0588  0.3634
 8276TIP3    H246244   6.736   1.469  14.360 -1.0091  0.5316  0.4069
 8277TIP3   OH246245   4.755   3.368   5.016 -0.1645  0.2333  0.4199
 8277TIP3    H146246   4.818   3.338   5.081  1.8082 -1.1397 -1.9711
 8277TIP3    H246247   4.670   3.343   5.052  0.7426  0.4626  2.8995
 8278TIP3   OH246248   6.144   3.388  15.383 -0.4507 -0.0232 -0.8312
 8278TIP3    H146249   6.106   3.474  15.401 -0.1459  0.1186 -0.8684
 8278TIP3    H246250   6.068   3.332  15.365 -0.7596 -0.1736  0.8623
 8279TIP3   OH246251   0.940   3.988  14.577  0.4909 -0.4282 -0.1266
 8279TIP3    H146252   0.992   3.939  14.513  0.3185 -1.3185  0.4020
 8279TIP3    H246253   0.916   3.923  14.644 -1.8720 -0.2296 -0.6828
 8280TIP3   OH246254   5.328   5.941  12.611 -1.0182  0.3253  0.4548
 8280TIP3    H146255   5.349   5.853  12.580 -0.7871  0.6504 -0.3129
 8280TIP3    H246256   5.277   5.926  12.691 -0.4559 -0.4973  0.6687
 8281TIP3   OH246257   6.169   5.064   1.246 -0.0340 -0.0289  0.0824
 8281TIP3    H146258   6.128   5.029   1.167 -1.2833  0.8269  0.3401
 8281TIP3    H246259   6.097   5.099   1.298  0.6635 -1.1066  1.9069
 8282TIP3   OH246260   5.204   0.652  12.854  0.7407  0.2104  0.6437
 8282TIP3    H146261   5.129   0.615  12.809 -0.4225 -0.0299  2.6708
 8282TIP3    H246262   5.206   0.744  12.827 -0.2707  0.2131  0.5541
 8283TIP3   OH246263   1.407   3.799  15.374 -0.4826 -0.0632  0.4643
 8283TIP3    H146264   1.423   3.796  15.279 -0.1988 -1.2738  0.5405
 8283TIP3    H246265   1.412   3.708  15.402  0.6926  0.3930  1.8582
 8284TIP3   OH246266   5.474   5.129  15.973 -0.6392 -0.4651 -0.2890
 8284TIP3    H146267   5.462   5.216  16.013  0.9947 -0.7556  0.9513
 8284TIP3    H246268   5.453   5.068  16.043 -0.0530 -1.0246 -0.5907
 8285TIP3   OH246269   5.155   3.055   3.695 -0.2256 -0.2029  0.4546
 8285TIP3    H146270   5.182   2.995   3.764  0.4636 -1.4306 -0.8297
 8285TIP3    H246271   5.092   3.006   3.643 -2.5542  1.5135  1.5085
 8286TIP3   OH246272   3.529   1.812  13.923 -0.1202  0.9082  0.1750
 8286TIP3    H146273   3.480   1.764  13.856  1.5348 -1.2482  0.3983
 8286TIP3    H246274   3.472   1.885  13.947 -0.4805  2.3041 -4.1275
 8287TIP3   OH246275   6.296   2.655  13.131  0.0169 -0.0639  0.3885
 8287TIP3    H146276   6.274   2.657  13.224  1.6239  1.5574  0.7985
 8287TIP3    H246277   6.291   2.747  13.104 -0.9485 -0.5635 -1.2977
 8288TIP3   OH246278   4.699   2.857  15.911 -0.3791 -0.3288  0.2982
 8288TIP3    H146279   4.662   2.773  15.939  2.1097 -1.6993 -0.1785
 8288TIP3    H246280   4.781   2.833  15.867 -0.7195  2.2060 -1.9838
 8289TIP3   OH246281   5.413   1.849   1.302  0.1359 -0.2091  0.0726
 8289TIP3    H146282   5.381   1.875   1.215  3.8533  2.8727 -0.6902
 8289TIP3    H246283   5.363   1.902   1.363 -1.6636 -1.5009 -0.2113
 8290TIP3   OH246284   5.355   6.049   3.014  0.7970 -0.0969 -0.0597
 8290TIP3    H146285   5.343   6.144   3.006  1.0541 -0.0689 -0.1257
 8290TIP3    H246286   5.268   6.016   3.039  0.4958  0.0642 -0.8370
 8291TIP3   OH246287   0.063   2.987  12.297  0.4575 -0.3127  0.1304
 8291TIP3    H146288  -0.005   2.959  12.235 -0.8648 -1.0558  1.8204
 8291TIP3    H246289   0.046   2.934  12.375  1.8185  0.8672  1.2647
 8292TIP3   OH246290   6.452   0.410   4.601 -0.3908  0.1449  0.2691
 8292TIP3    H146291   6.517   0.346   4.632  2.1879  3.2815  1.9290
 8292TIP3    H246292   6.490   0.445   4.520 -1.2535  0.3657 -0.0518
 8293TIP3   OH246293   0.637   4.941  14.670 -0.1343  0.2580  0.5806
 8293TIP3    H146294   0.558   4.989  14.696 -0.4068 -0.0007  0.2420
 8293TIP3    H246295   0.708   4.985  14.716 -0.5135  0.3063  1.1308
 8294TIP3   OH246296   5.317   0.206   2.293  0.2653 -0.1415  0.0273
 8294TIP3    H146297   5.298   0.296   2.321  1.4229 -0.1105  0.7762
 8294TIP3    H246298   5.279   0.151   2.361 -1.2561 -0.2753 -0.9026
 8295TIP3   OH246299   1.107   1.608  12.953  0.0409  0.3279 -0.0600
 8295TIP3    H146300   1.121   1.699  12.924  2.5737  0.1841  0.4604
 8295TIP3    H246301   1.024   1.611  13.000  0.3873  2.5617  0.5642
 8296TIP3   OH246302   4.876   2.776  14.966  0.2203 -0.3775 -0.1862
 8296TIP3    H146303   4.786   2.802  14.987 -0.6113 -1.0244 -2.6491
 8296TIP3    H246304   4.870   2.682  14.948  1.2265 -0.2596 -1.1934
 8297TIP3   OH246305   1.889   5.493   3.674  0.8196 -0.3936  0.1019
 8297TIP3    H146306   1.939   5.457   3.601  1.5893 -2.8964  1.7067
 8297TIP3    H246307   1.798   5.472   3.654  0.9858 -0.7131 -0.3332
 8298TIP3   OH246308   0.727   5.585  12.064 -0.1971  0.2749  0.3595
 8298TIP3    H146309   0.646   5.540  12.040  0.6808 -0.1045 -2.1791
 8298TIP3    H246310   0.723   5.668  12.017 -0.9127  2.2198  3.4813
 8299TIP3   OH246311   4.514   3.731  14.920 -0.4414  0.1048 -0.0359
 8299TIP3    H146312   4.441   3.708  14.978 -0.5025 -0.6247 -0.3940
 8299TIP3    H246313   4.592   3.716  14.974 -0.5464  3.3490  1.2563
 8300TIP3   OH246314   2.347   5.739   4.120  1.1278  0.0062  0.7646
 8300TIP3    H146315   2.437   5.755   4.092  1.3980 -0.5862  1.2847
 8300TIP3    H246316   2.303   5.706   4.041  1.3725  0.2536  0.5223
 8301TIP3   OH246317   1.465   3.449  16.728 -0.2451  0.3783 -0.2207
 8301TIP3    H146318   1.540   3.508  16.740 -2.0525  2.8672 -0.3476
 8301TIP3    H246319   1.478   3.411  16.641  0.4671  1.4154 -0.5879
 8302TIP3   OH246320   0.095   4.572  12.178 -0.6448 -0.3515 -0.6267
 8302TIP3    H146321   0.067   4.521  12.102 -0.4587 -0.4544 -0.6231
 8302TIP3    H246322   0.068   4.662  12.157  1.1630 -0.0228 -1.6872
 8303TIP3   OH246323   5.663   2.209  13.181  0.3786  0.2658 -0.0410
 8303TIP3    H146324   5.595   2.276  13.171 -1.0422 -1.1819 -0.4295
 8303TIP3    H246325   5.670   2.196  13.275 -2.2456 -1.8073 -0.0196
 8304TIP3   OH246326   1.360   1.698   3.599  0.2282 -0.0242 -0.2684
 8304TIP3    H146327   1.292   1.671   3.661  0.3295  0.5742  0.1215
 8304TIP3    H246328   1.430   1.635   3.611 -0.7973 -1.4849 -1.6728
 8305TIP3   OH246329   3.195   2.880  15.372  0.1034  0.0884  0.3573
 8305TIP3    H146330   3.216   2.964  15.332  0.4510 -1.1657 -2.3486
 8305TIP3    H246331   3.205   2.817  15.301 -0.8214 -2.1706  2.1067
 8306TIP3   OH246332   0.113   5.643   6.134  0.2572  0.2884  0.0662
 8306TIP3    H146333   0.035   5.628   6.081  0.8544  1.8407 -1.3540
 8306TIP3    H246334   0.096   5.725   6.179  1.5841  1.4322 -1.3984
 8307TIP3   OH246335   4.169   2.829  14.999  0.1877 -0.0014  0.6046
 8307TIP3    H146336   4.119   2.774  15.059  1.7358 -0.9359  1.0997
 8307TIP3    H246337   4.260   2.801  15.011  0.6795  0.6238 -1.3148
 8308TIP3   OH246338   4.358   1.654   5.287 -0.1821 -0.3214  0.7521
 8308TIP3    H146339   4.446   1.683   5.312 -0.8537  1.7890  0.8908
 8308TIP3    H246340   4.366   1.624   5.197  0.5539  0.5236  0.5320
 8309TIP3   OH246341   6.615   0.718  10.459  0.2431 -0.2093  0.2085
 8309TIP3    H146342   6.558   0.690  10.387  0.1176  0.5990 -0.0217
 8309TIP3    H246343   6.554   0.747  10.527  0.2204 -3.6819  1.9003
 8310TIP3   OH246344   4.170   3.913  11.171 -0.6214  0.2619  0.1748
 8310TIP3    H146345   4.078   3.935  11.162 -1.0241 -1.2152  0.5244
 8310TIP3    H246346   4.185   3.843  11.108  0.1563  0.1849  0.4280
 8311TIP3   OH246347   2.385   1.179   3.766  0.2277  0.6320 -0.0253
 8311TIP3    H146348   2.415   1.270   3.763  0.8207  0.4201 -0.6148
 8311TIP3    H246349   2.290   1.186   3.772  0.2769  1.2932  0.1052
 8312TIP3   OH246350   1.545   6.068   2.676  0.2312  0.2214  0.4927
 8312TIP3    H146351   1.482   6.090   2.744 -0.3120  0.9400 -0.2224
 8312TIP3    H246352   1.625   6.046   2.724 -0.1783  0.5721  1.3606
 8313TIP3   OH246353   1.589   6.522  15.952  0.1248 -0.2562  0.3122
 8313TIP3    H146354   1.572   6.452  15.888 -0.8796 -0.7710  1.1071
 8313TIP3    H246355   1.568   6.603  15.905 -0.8220 -0.6404  0.0417
 8314TIP3   OH246356   3.035   6.376  15.264 -0.5155 -0.3515 -0.4883
 8314TIP3    H146357   3.107   6.410  15.211 -1.3126 -0.6048 -1.7810
 8314TIP3    H246358   3.073   6.363  15.351  0.7622  0.3251 -0.9215
 8315TIP3   OH246359   2.782   4.418   2.615 -0.4932 -0.0093 -0.1725
 8315TIP3    H146360   2.780   4.501   2.566  2.4938  0.2079 -0.1385
 8315TIP3    H246361   2.758   4.442   2.704  2.0692  1.2751  0.2621
 8316TIP3   OH246362   4.266   1.860  16.790 -0.4760 -0.0204 -0.1750
 8316TIP3    H146363   4.302   1.799  16.854  0.6091  0.5451 -0.2168
 8316TIP3    H246364   4.199   1.909  16.838  0.2025  0.2766  0.4945
 8317TIP3   OH246365   2.257   4.752  12.918 -0.2324 -0.2101  0.5293
 8317TIP3    H146366   2.168   4.788  12.916 -0.4186 -0.6849  0.1513
 8317TIP3    H246367   2.311   4.822  12.883 -0.1855  0.7852  2.4385
 8318TIP3   OH246368   1.844   5.889   0.021 -0.0269  0.1440  0.1905
 8318TIP3    H146369   1.919   5.941   0.050 -0.6505  0.0813  2.0403
 8318TIP3    H246370   1.784   5.890   0.095 -1.6769 -0.1820 -1.0947
 8319TIP3   OH246371   6.243   0.480  11.557  0.5134 -1.0993 -0.3396
 8319TIP3    H146372   6.260   0.541  11.485  0.7605 -0.7054  0.0503
 8319TIP3    H246373   6.152   0.453  11.545  0.6762 -1.3591 -1.0436
 8320TIP3   OH246374   0.759   6.695   5.660 -0.4986  0.2832 -0.4072
 8320TIP3    H146375   0.745   6.786   5.636  0.6597  0.6523  0.2578
 8320TIP3    H246376   0.780   6.651   5.577 -3.3336  0.0995 -1.1243
 8321TIP3   OH246377   3.011   6.662   1.890 -0.1816 -0.4297 -0.2481
 8321TIP3    H146378   3.022   6.683   1.797  0.3500 -2.3569 -0.6712
 8321TIP3    H246379   2.940   6.597   1.892  0.4946 -1.1761  0.5505
 8322TIP3   OH246380   5.371   1.770   0.141  0.3883  0.2875 -0.1660
 8322TIP3    H146381   5.432   1.703   0.108 -0.2139 -0.7148  0.6788
 8322TIP3    H246382   5.427   1.844   0.163  1.3641 -0.6967  0.8426
 8323TIP3   OH246383   0.691   2.407  15.272  0.5420 -0.0274  0.1808
 8323TIP3    H146384   0.742   2.476  15.315  2.5148 -0.5517 -1.1880
 8323TIP3    H246385   0.600   2.432  15.287  1.1485  3.1125 -0.5711
 8324TIP3   OH246386   4.406   3.170   6.339 -0.0537 -0.2646 -0.3667
 8324TIP3    H146387   4.319   3.191   6.374 -0.2375 -0.3762 -0.7547
 8324TIP3    H246388   4.407   3.208   6.251  0.7173  0.7590  0.0609
 8325TIP3   OH246389   0.378   5.474  12.388  0.0650 -0.4315  0.2160
 8325TIP3    H146390   0.426   5.418  12.327  2.3522 -0.5580  2.0205
 8325TIP3    H246391   0.363   5.419  12.465 -0.4450  0.4919  0.7906
 8326TIP3   OH246392   2.312   0.003  16.292 -0.0520  0.0040  0.2100
 8326TIP3    H146393   2.348   0.028  16.207 -1.1617  1.3870  0.1127
 8326TIP3    H246394   2.389  -0.020  16.345  0.6004 -1.5996 -1.3529
 8327TIP3   OH246395   4.082   3.313   4.855 -0.4989  0.3940  0.9106
 8327TIP3    H146396   4.011   3.327   4.918 -0.6489 -0.9238  1.0656
 8327TIP3    H246397   4.081   3.391   4.800 -1.1298  1.0406  1.8101
 8328TIP3   OH246398   5.408   1.084   6.156 -0.1008  0.3103 -0.7903
 8328TIP3    H146399   5.379   1.018   6.219  0.0899 -0.2620 -1.2770
 8328TIP3    H246400   5.444   1.155   6.209  1.3130 -0.7537 -0.2613
 8329TIP3   OH246401   5.116   2.323   0.306 -0.4523 -0.5287  0.0617
 8329TIP3    H146402   5.075   2.305   0.222  0.1885 -1.6531 -0.0301
 8329TIP3    H246403   5.163   2.405   0.293 -0.3715 -0.6865 -0.6793
 8330TIP3   OH246404   0.478   4.950   0.636 -0.1853 -0.2140  0.0297
 8330TIP3    H146405   0.491   4.930   0.544  2.9584  1.4762 -0.0495
 8330TIP3    H246406   0.447   5.040   0.638 -0.5722 -0.3520  0.6113
 8331TIP3   OH246407   5.925   2.016   5.077  0.0205 -0.3160  0.4615
 8331TIP3    H146408   6.000   1.966   5.044 -1.3585 -1.9412 -0.3150
 8331TIP3    H246409   5.867   2.026   5.002  0.2510  2.6045  0.5599
 8332TIP3   OH246410   5.239   0.757  12.273 -0.5360  0.9727 -0.5017
 8332TIP3    H146411   5.202   0.836  12.313 -0.9668  0.5141  0.0213
 8332TIP3    H246412   5.263   0.784  12.184 -1.6514  1.4134 -0.6833
 8333TIP3   OH246413   0.698   3.285   6.016 -0.2945 -0.4745  0.3919
 8333TIP3    H146414   0.657   3.199   6.026 -1.6859  0.1025 -0.0896
 8333TIP3    H246415   0.701   3.320   6.105 -2.3876  0.1089  0.3004
 8334TIP3   OH246416   6.698   5.414  14.478  0.2966 -0.0208  0.0933
 8334TIP3    H146417   6.668   5.334  14.521  2.9481 -0.5020  1.2455
 8334TIP3    H246418   6.790   5.398  14.459  0.3358  1.9554 -1.6959
 8335TIP3   OH246419   4.454   0.662  16.144  0.2989 -0.1989 -0.6706
 8335TIP3    H146420   4.382   0.617  16.187  0.4698 -0.3574 -0.5518
 8335TIP3    H246421   4.414   0.702  16.066 -0.0192  0.1388 -0.3365
 8336TIP3   OH246422   5.182   1.035   0.389 -0.6542  0.3069  0.5714
 8336TIP3    H146423   5.206   1.035   0.296 -0.0395  1.0342  0.7211
 8336TIP3    H246424   5.102   1.087   0.393  0.0109  1.3579  0.6028
 8337TIP3   OH246425   2.364   0.985   4.619 -0.3348  0.5379  0.0099
 8337TIP3    H146426   2.300   0.961   4.551  1.1223 -0.3877 -1.1234
 8337TIP3    H246427   2.400   1.068   4.590 -1.0700  1.1017  0.6929
 8338TIP3   OH246428   6.595   2.573  17.173  1.0781  0.7792 -0.1753
 8338TIP3    H146429   6.584   2.667  17.192  0.4612  0.2745  2.4431
 8338TIP3    H246430   6.645   2.540  17.248 -1.3649 -1.4829  0.6168
 8339TIP3   OH246431   4.182   0.727   5.376 -0.2810 -0.3130 -0.4273
 8339TIP3    H146432   4.168   0.646   5.425 -1.5972  0.0519 -0.1637
 8339TIP3    H246433   4.126   0.792   5.420  0.9647  0.8252 -0.4382
 8340TIP3   OH246434   2.484   6.529  15.119  0.2853 -0.1951  0.3640
 8340TIP3    H146435   2.523   6.615  15.133 -2.6613  1.8886 -2.7114
 8340TIP3    H246436   2.394   6.539  15.149 -0.6637 -1.5308 -1.8482
 8341TIP3   OH246437   6.068   3.976   4.031 -0.7140  0.1395  0.0074
 8341TIP3    H146438   6.095   4.027   3.955  2.2030  2.1688  2.1859
 8341TIP3    H246439   6.099   3.887   4.012 -1.1780  0.3021 -1.6535
 8342TIP3   OH246440   6.700   3.466  16.823 -0.6195 -0.0029 -0.3179
 8342TIP3    H146441   6.708   3.457  16.918  1.8459 -3.4623 -0.6774
 8342TIP3    H246442   6.746   3.547  16.803 -0.5187  0.3938  1.3558
 8343TIP3   OH246443   6.207   3.119   1.567  0.0664 -0.0823 -0.5351
 8343TIP3    H146444   6.117   3.100   1.541  0.1961  0.1430 -1.1722
 8343TIP3    H246445   6.254   3.129   1.484  1.1400 -2.2327 -0.2442
 8344TIP3   OH246446   1.197   1.218  15.425  0.6017 -0.2053 -0.8037
 8344TIP3    H146447   1.139   1.246  15.496  0.9132  0.6585 -0.8667
 8344TIP3    H246448   1.150   1.240  15.345  1.8040  2.4819 -0.8936
 8345TIP3   OH246449   4.571   6.688   3.976  0.4748  0.5793 -0.3377
 8345TIP3    H146450   4.584   6.741   3.897  1.2298  1.4060  0.3188
 8345TIP3    H246451   4.660   6.665   4.003  0.1733 -2.9061 -1.8138
 8346TIP3   OH246452   0.785   0.371  16.357 -0.0549 -0.2436 -0.3328
 8346TIP3    H146453   0.790   0.397  16.449 -0.2459 -0.4611 -0.2591
 8346TIP3    H246454   0.811   0.279  16.357  0.9359  0.0255 -0.6374
 8347TIP3   OH246455   4.003   1.991   1.369 -0.3160 -0.3729 -0.8620
 8347TIP3    H146456   4.056   2.041   1.307  0.1449 -1.3061 -1.2561
 8347TIP3    H246457   4.016   1.900   1.342  0.3524 -0.8588  0.9307
 8348TIP3   OH246458   1.747   2.736  10.687 -0.2816 -0.2517  0.2478
 8348TIP3    H146459   1.702   2.781  10.759 -0.1192  1.9341 -0.9574
 8348TIP3    H246460   1.680   2.727  10.619  0.1962 -0.0632 -0.2551
 8349TIP3   OH246461   6.159   6.344   1.776 -0.3546  0.2810 -0.1947
 8349TIP3    H146462   6.093   6.407   1.748  0.1780  0.3845 -1.2625
 8349TIP3    H246463   6.121   6.259   1.754  0.2839  0.3835 -1.7762
 8350TIP3   OH246464   6.207   5.292   3.878  0.3499 -0.4173 -0.1515
 8350TIP3    H146465   6.113   5.285   3.893  0.2875 -1.4750 -0.8918
 8350TIP3    H246466   6.217   5.276   3.784  1.4603 -2.7485  0.3049
 8351TIP3   OH246467   5.660   4.630  16.518  0.0242  0.0570  0.2243
 8351TIP3    H146468   5.580   4.684  16.524  0.3689  0.4155  2.5318
 8351TIP3    H246469   5.723   4.676  16.573  0.9667 -1.6566  0.6191
 8352TIP3   OH246470   3.330   2.684   2.341 -0.0780 -0.0542 -0.3008
 8352TIP3    H146471   3.381   2.614   2.299 -0.3340 -0.2141 -0.3436
 8352TIP3    H246472   3.273   2.639   2.402  0.3695  0.1874  0.3028
 8353TIP3   OH246473   3.896   6.563   6.773 -0.6599  0.4076 -0.7612
 8353TIP3    H146474   3.986   6.536   6.751 -1.2507 -0.8204 -1.7582
 8353TIP3    H246475   3.891   6.555   6.868 -0.3410 -1.6273 -0.8724
 8354TIP3   OH246476   3.931   2.394   2.401  0.2883 -0.1087 -0.8749
 8354TIP3    H146477   3.947   2.300   2.388  2.1266  0.2298 -1.3400
 8354TIP3    H246478   3.912   2.427   2.313  1.1563  0.2070 -0.9479
 8355TIP3   OH246479   0.736   0.838   5.851  0.1405 -0.0681 -0.0642
 8355TIP3    H146480   0.796   0.821   5.778  0.6891 -0.4774  0.4642
 8355TIP3    H246481   0.782   0.803   5.927 -0.2028  0.8097  0.5526
 8356TIP3   OH246482   5.842   0.204  13.877  0.0574 -0.4876  0.5110
 8356TIP3    H146483   5.819   0.201  13.784 -0.3975 -0.2010  0.6096
 8356TIP3    H246484   5.770   0.159  13.921 -0.0845 -0.0032  0.7836
 8357TIP3   OH246485   2.093   3.927   5.062  0.3809 -0.5817 -0.6094
 8357TIP3    H146486   2.171   3.965   5.103  0.2504  0.3944 -1.2320
 8357TIP3    H246487   2.020   3.958   5.116  0.4417 -2.0450  0.3763
 8358TIP3   OH246488   0.705   3.104  11.256  0.3001 -0.1527  0.1942
 8358TIP3    H146489   0.719   3.037  11.189  2.4975  1.0395 -0.6337
 8358TIP3    H246490   0.675   3.181  11.208  0.0593  0.1623  0.8303
 8359TIP3   OH246491   4.922   3.651   1.305 -0.4209 -0.3492 -0.8856
 8359TIP3    H146492   4.948   3.664   1.396 -1.0031  0.2382 -0.7865
 8359TIP3    H246493   4.839   3.603   1.310 -0.5608 -0.1349 -1.0971
 8360TIP3   OH246494   5.137   3.106  15.947 -0.1862  0.5193 -0.5667
 8360TIP3    H146495   5.146   3.157  16.027 -0.3174  1.0584 -0.8926
 8360TIP3    H246496   5.048   3.125  15.916  0.9970  3.0821 -2.6954
 8361TIP3   OH246497   6.428   0.553  12.423 -0.1214 -0.0672 -0.0900
 8361TIP3    H146498   6.481   0.474  12.413 -1.4696 -0.9205 -0.8218
 8361TIP3    H246499   6.483   0.612  12.474  1.8667 -0.5614 -1.5282
 8362TIP3   OH246500   2.501   6.046   1.251 -0.3653  0.2205  0.8540
 8362TIP3    H146501   2.563   5.980   1.282 -0.4313 -0.0699  0.3780
 8362TIP3    H246502   2.429   6.043   1.315 -0.6206 -0.5515  0.5410
 8363TIP3   OH246503   3.790   2.890   6.508  0.1527  0.1258  0.1658
 8363TIP3    H146504   3.806   2.813   6.453 -3.6367  0.6239 -1.9105
 8363TIP3    H246505   3.748   2.855   6.586 -0.4343 -0.0393 -0.2184
 8364TIP3   OH246506   2.053   2.546  14.920 -0.3279  0.2318  0.8118
 8364TIP3    H146507   2.143   2.541  14.889 -1.1728 -0.5685 -1.7443
 8364TIP3    H246508   2.060   2.538  15.015  2.1316 -2.0302  0.5574
 8365TIP3   OH246509   1.127   6.512   0.396  0.1332 -0.0096  0.4123
 8365TIP3    H146510   1.068   6.529   0.323  1.0028 -0.2655 -0.3799
 8365TIP3    H246511   1.116   6.419   0.414 -0.3927  0.1437  0.8965
 8366TIP3   OH246512   2.238   0.258  15.311 -0.4949 -0.2305  0.4705
 8366TIP3    H146513   2.204   0.319  15.245 -1.6831  0.5424  1.7279
 8366TIP3    H246514   2.173   0.188  15.313 -0.1441 -0.5566  0.3924
 8367TIP3   OH246515   2.990   1.356  11.350 -0.3358  0.6221 -0.8347
 8367TIP3    H146516   2.922   1.423  11.359 -0.7078  0.5025 -2.5255
 8367TIP3    H246517   2.953   1.279  11.393 -2.2314 -0.0735 -3.4853
 8368TIP3   OH246518   0.838   2.786   2.478 -0.3377  0.5471  0.2609
 8368TIP3    H146519   0.793   2.788   2.563  0.1766  0.6522  0.5336
 8368TIP3    H246520   0.875   2.698   2.474  0.5271  0.8895  0.6151
 8369TIP3   OH246521   2.599   0.299   0.942 -0.1183 -0.1159 -0.1362
 8369TIP3    H146522   2.526   0.299   1.005 -0.5806  2.4339 -0.5564
 8369TIP3    H246523   2.676   0.280   0.995 -0.3328  3.0698  1.5330
 8370TIP3   OH246524   3.271   6.271  11.367  0.3390  0.1856  0.3245
 8370TIP3    H146525   3.303   6.361  11.361  0.3188  0.5359  3.7249
 8370TIP3    H246526   3.336   6.220  11.318  1.0372  1.8907 -0.6094
 8371TIP3   OH246527   5.543   3.325   2.236 -0.3386 -0.0027 -0.1548
 8371TIP3    H146528   5.560   3.415   2.211  1.4733 -0.2588 -0.0372
 8371TIP3    H246529   5.623   3.278   2.211 -1.0623 -1.4863  0.1884
 8372TIP3   OH246530   0.824   4.472   1.488 -0.6118  0.5637  0.7994
 8372TIP3    H146531   0.777   4.388   1.489 -1.3407  0.9161 -1.0096
 8372TIP3    H246532   0.916   4.448   1.477 -0.9778  0.0008 -1.4717
 8373TIP3   OH246533   4.887   5.071   0.476 -0.4467 -0.1940  0.3263
 8373TIP3    H146534   4.890   4.982   0.440 -0.3465 -0.7530  1.6589
 8373TIP3    H246535   4.842   5.062   0.560 -0.9357  1.1159  0.2332
 8374TIP3   OH246536   0.674   4.623   1.701 -0.6199  0.0893  0.0522
 8374TIP3    H146537   0.738   4.601   1.633 -0.5418 -0.9825  0.4649
 8374TIP3    H246538   0.661   4.718   1.691  1.1870  0.3763  0.0918
 8375TIP3   OH246539   2.553   1.320   1.441  0.1598 -0.3290  0.1044
 8375TIP3    H146540   2.589   1.269   1.368  1.4361  1.9231 -0.9603
 8375TIP3    H246541   2.619   1.313   1.510 -0.2292 -1.0268  0.4237
 8376TIP3   OH246542   3.983   6.315  11.901  0.2824 -0.6756 -0.1934
 8376TIP3    H146543   4.015   6.276  11.819  2.5717 -1.0378  0.8006
 8376TIP3    H246544   3.940   6.243  11.946  0.8735 -1.0252 -0.1755
 8377TIP3   OH246545   3.567   4.614   1.532 -0.7093  0.1580  0.4423
 8377TIP3    H146546   3.505   4.552   1.570 -1.0904 -0.3070 -0.8795
 8377TIP3    H246547   3.512   4.682   1.493 -0.3428  0.3916  0.3317
 8378TIP3   OH246548   2.587   1.964   1.374 -0.7889 -1.0160 -0.5279
 8378TIP3    H146549   2.642   2.040   1.392  0.6232 -2.1809  0.2987
 8378TIP3    H246550   2.549   1.982   1.288  1.3027 -0.3826 -1.3793
 8379TIP3   OH246551   1.370   2.815  11.905 -0.3187  0.0138  0.0236
 8379TIP3    H146552   1.420   2.881  11.952  2.2439 -0.1484 -2.1787
 8379TIP3    H246553   1.279   2.844  11.910  0.6152  3.4278 -0.3657
 8380TIP3   OH246554   1.634   4.129  12.019 -0.0848 -0.6888 -0.2565
 8380TIP3    H146555   1.715   4.115  12.067 -0.3724 -1.8772 -0.0851
 8380TIP3    H246556   1.662   4.156  11.932  0.4591  0.2393  0.1841
 8381TIP3   OH246557   2.807   2.683  13.443  0.6190 -0.5830 -0.0162
 8381TIP3    H146558   2.894   2.647  13.462  1.0343  0.7302  0.6606
 8381TIP3    H246559   2.800   2.760  13.499 -0.6427 -0.1671 -0.7104
 8382TIP3   OH246560   4.570   2.535  11.846  0.3650  0.2396  0.6060
 8382TIP3    H146561   4.488   2.557  11.890 -0.3720 -0.0385 -0.6190
 8382TIP3    H246562   4.555   2.555  11.754  1.3384 -0.7801  0.2057
 8383TIP3   OH246563   3.176   1.775   5.876  0.0018  0.2223  0.4513
 8383TIP3    H146564   3.214   1.748   5.959 -0.5302  1.1867  1.0330
 8383TIP3    H246565   3.139   1.862   5.894  0.7401  0.8862 -1.0446
 8384TIP3   OH246566   2.920   6.503   3.220 -0.1879  0.2069  0.0829
 8384TIP3    H146567   2.929   6.435   3.287  2.0350  0.2341 -0.1278
 8384TIP3    H246568   2.999   6.555   3.227  0.0700  0.3084 -2.4496
 8385TIP3   OH246569   0.853   2.619  15.430 -0.5780 -0.8606 -0.2708
 8385TIP3    H146570   0.944   2.631  15.403 -0.9408 -0.5051 -1.3961
 8385TIP3    H246571   0.821   2.708  15.445 -0.2556 -1.0417  1.9471
 8386TIP3   OH246572   5.123   5.882  14.350  0.4806  0.7229  0.0935
 8386TIP3    H146573   5.190   5.944  14.321  0.9561  0.1759  0.0057
 8386TIP3    H246574   5.165   5.832  14.420  0.0700  0.5625  0.2293
 8387TIP3   OH246575   0.317   5.950  15.618  0.3145 -0.0287  0.1055
 8387TIP3    H146576   0.251   5.937  15.549  0.0259  2.0723 -0.0966
 8387TIP3    H246577   0.400   5.935  15.574  0.0648 -0.5540 -0.2047
 8388TIP3   OH246578   0.564   4.653   2.092 -0.3904  0.3519  0.1195
 8388TIP3    H146579   0.510   4.732   2.091  0.4515  0.9501  0.3952
 8388TIP3    H246580   0.509   4.587   2.134 -0.4959  1.2614  1.4817
 8389TIP3   OH246581   0.818   5.743   1.279 -0.7027 -0.1717  0.1837
 8389TIP3    H146582   0.847   5.734   1.370 -0.0764  2.9045  0.4220
 8389TIP3    H246583   0.782   5.832   1.274 -1.8252 -0.6734 -2.3142
 8390TIP3   OH246584   4.395   0.355  14.936 -0.6152  0.5412 -0.6469
 8390TIP3    H146585   4.312   0.377  14.977 -1.0998 -0.9846 -0.7367
 8390TIP3    H246586   4.462   0.383  14.999 -1.2419  0.7676 -0.0791
 8391TIP3   OH246587   0.053   4.460   2.388  0.4936  0.4853  0.3794
 8391TIP3    H146588   0.011   4.539   2.421  1.9028  0.4995  2.3195
 8391TIP3    H246589   0.144   4.485   2.373  0.7305 -0.5093  0.0402
 8392TIP3   OH246590   6.122   1.423  14.711 -0.1729 -0.3833  0.0806
 8392TIP3    H146591   6.165   1.502  14.677 -2.3842 -0.0196 -2.1790
 8392TIP3    H246592   6.067   1.455  14.782  0.0842 -0.1424  0.1721
 8393TIP3   OH246593   5.553   6.568  16.729  0.2401 -0.0769 -1.1896
 8393TIP3    H146594   5.638   6.588  16.690  0.8192 -1.1874 -0.5735
 8393TIP3    H246595   5.489   6.614  16.675  1.0465 -1.0473 -3.0502
 8394TIP3   OH246596   5.485   3.814  13.544  0.0375 -0.0582 -0.2412
 8394TIP3    H146597   5.435   3.806  13.625  0.4306 -0.7725 -0.0642
 8394TIP3    H246598   5.576   3.816  13.572  0.1187  2.6816 -0.4386
 8395TIP3   OH246599   3.860   1.664  12.583 -0.2445 -0.4897  0.1343
 8395TIP3    H146600   3.904   1.584  12.554 -0.0441 -0.2977 -0.0955
 8395TIP3    H246601   3.899   1.684  12.668  0.2293 -0.2379 -0.1335
 8396TIP3   OH246602   3.233   2.874  15.748 -0.0728 -0.3168  0.2379
 8396TIP3    H146603   3.166   2.898  15.683  0.4940  0.4136 -0.0889
 8396TIP3    H246604   3.312   2.861  15.696  0.5167  0.7867  0.8224
 8397TIP3   OH246605   0.029   6.710  11.192  0.3122  0.4737 -0.2532
 8397TIP3    H146606  -0.059   6.712  11.155  0.1641  3.0202  0.1113
 8397TIP3    H246607   0.087   6.728  11.118  0.5521 -0.7733 -0.4051
 8398TIP3   OH246608   5.651   1.635  14.978 -0.6998 -0.3350  0.7996
 8398TIP3    H146609   5.566   1.591  14.989 -1.0981  0.2121 -0.0494
 8398TIP3    H246610   5.690   1.593  14.902 -1.5945  1.5269 -0.7640
 8399TIP3   OH246611   0.622   3.321   2.994 -0.3654  0.2973 -0.2597
 8399TIP3    H146612   0.612   3.254   2.927 -0.8740 -0.0580  0.1686
 8399TIP3    H246613   0.717   3.331   3.005 -0.2694  0.6901 -1.3583
 8400TIP3   OH246614   0.851   2.510  12.159  0.1723 -0.3799 -0.4124
 8400TIP3    H146615   0.789   2.504  12.086  0.1164 -4.2765 -0.2563
 8400TIP3    H246616   0.796   2.509  12.237  0.2151 -3.4031 -0.2864
 8401TIP3   OH246617   3.480   1.904  17.046  0.3939  0.0792  0.0174
 8401TIP3    H146618   3.489   1.985  16.996 -0.9197  0.4761  0.3778
 8401TIP3    H246619   3.492   1.931  17.137 -1.3739  0.1446  0.2625
 8402TIP3   OH246620   1.912   6.535  15.763  0.1651  0.0920 -0.2114
 8402TIP3    H146621   1.844   6.519  15.698 -0.4601 -0.3705  0.5423
 8402TIP3    H246622   1.972   6.596  15.720 -1.4868  1.6988 -0.3576
 8403TIP3   OH246623   2.138   2.388  15.665 -0.4532 -0.1351  0.0403
 8403TIP3    H146624   2.191   2.420  15.592  0.0109 -2.1110 -0.5558
 8403TIP3    H246625   2.056   2.435  15.657  0.3943  1.3345 -0.3829
 8404TIP3   OH246626   0.212   3.815   5.324 -0.4998  0.7463  0.1007
 8404TIP3    H146627   0.165   3.854   5.398 -0.0880 -0.7028  1.1617
 8404TIP3    H246628   0.181   3.725   5.321 -0.9873  0.9474 -1.9357
 8405TIP3   OH246629   6.020   1.041   3.426 -0.2465 -0.2485  0.2525
 8405TIP3    H146630   5.991   1.031   3.517 -0.1037  0.5952  0.3918
 8405TIP3    H246631   6.112   1.018   3.428 -0.2823 -0.3924  0.2888
 8406TIP3   OH246632   3.952   2.446   3.112 -0.1034  0.5086 -0.5034
 8406TIP3    H146633   4.047   2.438   3.121 -0.1930  1.5377  2.4064
 8406TIP3    H246634   3.938   2.538   3.088 -0.3940  1.0452  1.5384
 8407TIP3   OH246635   5.395   3.061  15.061 -0.5733  0.1840 -0.2145
 8407TIP3    H146636   5.440   3.091  14.982 -1.2383  0.1276 -0.6217
 8407TIP3    H246637   5.310   3.030  15.030 -0.3296 -1.1334  0.3340
 8408TIP3   OH246638   5.715   4.074  15.558  0.0803  0.1508 -0.0227
 8408TIP3    H146639   5.690   4.161  15.529 -1.6689  0.5256  2.3270
 8408TIP3    H246640   5.807   4.082  15.584  0.6728  0.6089 -2.0750
 8409TIP3   OH246641   6.551   0.390   2.558 -0.3507 -0.7475  0.4266
 8409TIP3    H146642   6.640   0.426   2.562 -0.8052  0.6549 -1.0155
 8409TIP3    H246643   6.494   0.466   2.555 -1.3864 -1.5083 -2.1559
 8410TIP3   OH246644   4.179   6.528   1.478 -0.0086  0.3437 -0.3983
 8410TIP3    H146645   4.198   6.468   1.551 -0.1545  1.9342  0.9999
 8410TIP3    H246646   4.200   6.477   1.399  0.7331 -1.2261  0.7607
 8411TIP3   OH246647   3.538   6.111   2.740 -0.5407  0.5481 -0.2523
 8411TIP3    H146648   3.587   6.182   2.782 -2.5409  2.0015 -0.2085
 8411TIP3    H246649   3.535   6.042   2.806  1.7700  0.2198 -0.4281
 8412TIP3   OH246650   3.187   3.142   3.265  0.6708  0.4614 -0.6831
 8412TIP3    H146651   3.145   3.136   3.180  0.0766  0.7475 -0.4132
 8412TIP3    H246652   3.186   3.236   3.286  0.1284  0.3174 -0.0223
 8413TIP3   OH246653   3.851   5.943   1.768 -0.2363 -0.2212  0.0477
 8413TIP3    H146654   3.854   5.847   1.767  0.0427 -0.2084 -0.5693
 8413TIP3    H246655   3.764   5.964   1.801 -0.2948 -0.6873  0.1986
 8414TIP3   OH246656   3.121   5.308  16.389 -0.5472 -0.0055  0.1666
 8414TIP3    H146657   3.194   5.364  16.414 -0.0621 -1.3194  1.9902
 8414TIP3    H246658   3.150   5.264  16.309  0.6616 -0.4318  0.8088
 8415TIP3   OH246659   1.324   5.972  16.348  0.2808 -0.6499 -0.3197
 8415TIP3    H146660   1.264   5.900  16.324 -1.5770  0.5627  0.4206
 8415TIP3    H246661   1.376   5.936  16.420 -1.7457 -0.8365  1.1691
 8416TIP3   OH246662   4.394   2.983   0.398 -0.2635 -0.1175 -0.0079
 8416TIP3    H146663   4.397   2.915   0.330 -0.2222 -0.6185  0.4912
 8416TIP3    H246664   4.311   3.029   0.381 -0.7774 -0.9272  0.2492
 8417TIP3   OH246665   5.059   0.507  15.846 -0.2054  0.2408  0.3999
 8417TIP3    H146666   5.128   0.561  15.885  0.2698  0.2262 -0.4003
 8417TIP3    H246667   5.027   0.453  15.918  1.9088 -1.0986  0.4175
 8418TIP3   OH246668   1.385   0.129  13.185 -0.1873 -0.2340  0.2677
 8418TIP3    H146669   1.472   0.169  13.175 -0.3479  0.3481  1.0643
 8418TIP3    H246670   1.372   0.123  13.280 -0.5856 -1.2955  0.1623
 8419TIP3   OH246671   0.974   4.869  10.812 -0.1023  0.1710  0.2545
 8419TIP3    H146672   1.019   4.953  10.817  2.0008 -0.8230 -0.6741
 8419TIP3    H246673   1.029   4.810  10.863 -1.6221 -0.6314  1.0143
 8420TIP3   OH246674   5.245   1.672  16.496  0.3345 -0.1059 -0.3948
 8420TIP3    H146675   5.230   1.759  16.533  1.7203  0.5600 -1.3093
 8420TIP3    H246676   5.199   1.673  16.412 -0.5718 -0.6693  0.0782
 8421TIP3   OH246677   5.551   1.976  12.089 -0.6146 -0.3255  0.0999
 8421TIP3    H146678   5.623   2.026  12.128 -1.5839  0.3673  1.0310
 8421TIP3    H246679   5.511   2.036  12.027 -0.0696 -0.8999 -0.8426
 8422TIP3   OH246680   2.254   5.378  14.280 -0.1331 -0.1842  0.1162
 8422TIP3    H146681   2.287   5.417  14.361  2.2681  1.3642 -1.4585
 8422TIP3    H246682   2.274   5.285  14.288  1.9338  0.2474  0.5346
 8423TIP3   OH246683   0.713   2.189   0.863 -0.1099  0.5631  0.6287
 8423TIP3    H146684   0.618   2.199   0.872 -0.4748  0.2378 -1.9268
 8423TIP3    H246685   0.747   2.278   0.875 -1.1289  1.3116 -1.5284
 8424TIP3   OH246686   3.880   0.606  17.167  0.1156  0.3497  0.1152
 8424TIP3    H146687   3.928   0.587  17.248  1.1075 -2.1306 -0.9487
 8424TIP3    H246688   3.858   0.520  17.132 -1.9940  1.3968 -1.3160
 8425TIP3   OH246689   1.460   0.148   3.982 -0.0675  0.2208  0.3733
 8425TIP3    H146690   1.402   0.224   3.987 -1.6528 -0.7080 -1.8753
 8425TIP3    H246691   1.528   0.174   3.921 -0.6447 -0.1374 -0.4446
 8426TIP3   OH246692   4.615   5.213   1.063 -0.1694  0.0954 -0.1145
 8426TIP3    H146693   4.629   5.252   0.976  0.5139 -0.4439 -0.2610
 8426TIP3    H246694   4.544   5.150   1.049 -1.6525  1.6280  0.2437
 8427TIP3   OH246695   3.666   6.076   4.486  0.1546  0.4853 -0.7221
 8427TIP3    H146696   3.653   6.170   4.478  0.6513  0.6781  0.5310
 8427TIP3    H246697   3.670   6.060   4.581  2.2785 -0.4729 -0.9216
 8428TIP3   OH246698   0.985   6.635  11.953 -0.1066 -0.4974 -0.8683
 8428TIP3    H146699   0.917   6.591  12.004 -0.2388 -0.5174 -1.0601
 8428TIP3    H246700   0.961   6.618  11.862 -0.5756  0.5983 -0.9640
 8429TIP3   OH246701   1.954   6.063   4.771 -0.1227  0.0472  0.2508
 8429TIP3    H146702   2.025   5.999   4.770  0.0399  0.2271 -0.6027
 8429TIP3    H246703   1.997   6.148   4.765 -0.4152  0.0972 -3.1707
 8430TIP3   OH246704   3.424   4.901  14.657 -0.1886 -0.0756 -0.2053
 8430TIP3    H146705   3.494   4.844  14.625  0.2907 -0.2632  1.1085
 8430TIP3    H246706   3.368   4.843  14.708  0.0314  0.5193  0.7383
 8431TIP3   OH246707   3.509   6.330   5.143 -0.4144  0.6026 -0.1654
 8431TIP3    H146708   3.521   6.255   5.201 -0.7216 -0.3100 -1.2422
 8431TIP3    H246709   3.487   6.402   5.201 -0.8128 -0.3083  0.8421
 8432TIP3   OH246710   1.090   6.065  12.488  0.1178  0.3657 -0.1609
 8432TIP3    H146711   1.014   6.074  12.546 -1.4531  1.0533 -2.2228
 8432TIP3    H246712   1.097   6.150  12.445  1.4977 -0.0072 -0.7072
 8433TIP3   OH246713   3.216   2.092   5.134  0.0948  0.1669  0.1215
 8433TIP3    H146714   3.155   2.070   5.204  0.0892  0.0685  0.0852
 8433TIP3    H246715   3.284   2.025   5.139 -0.5419 -0.5712 -0.7589
 8434TIP3   OH246716   2.495   3.256   0.874  0.2931 -0.0135 -0.2703
 8434TIP3    H146717   2.418   3.201   0.859 -0.8102  1.9188 -2.3473
 8434TIP3    H246718   2.496   3.315   0.799  2.4595  1.5821  0.9332
 8435TIP3   OH246719   0.223   1.002   3.221 -0.2268  0.3886 -0.2299
 8435TIP3    H146720   0.208   0.918   3.263 -2.3632 -0.2297 -2.0470
 8435TIP3    H246721   0.227   1.065   3.293  0.0684 -1.0665  1.0780
 8436TIP3   OH246722   1.440   0.349   3.783  0.2585 -0.0454 -0.4169
 8436TIP3    H146723   1.355   0.390   3.768  0.8600  1.3006 -0.2870
 8436TIP3    H246724   1.444   0.278   3.718 -1.4689 -0.9889  0.4071
 8437TIP3   OH246725   3.785   5.424   3.401  0.0440 -0.0924  0.1087
 8437TIP3    H146726   3.758   5.355   3.462 -0.7123 -1.1408 -1.3244
 8437TIP3    H246727   3.702   5.455   3.364  0.4616  0.8307 -0.0562
 8438TIP3   OH246728   2.943   4.718   1.256  0.8421 -0.1916  0.6436
 8438TIP3    H146729   2.895   4.743   1.335 -1.3763  1.4951 -1.1368
 8438TIP3    H246730   2.877   4.683   1.197  2.3364 -0.7635 -0.7770
 8439TIP3   OH246731   5.915   4.097  16.432  0.0281 -0.1121 -0.1447
 8439TIP3    H146732   5.833   4.072  16.390  0.4288  0.4202 -1.2733
 8439TIP3    H246733   5.968   4.017  16.430 -0.4305 -0.4455  0.5564
 8440TIP3   OH246734   0.025   4.064  11.916 -0.1371  0.3041 -0.7515
 8440TIP3    H146735   0.098   4.086  11.974  0.0323 -1.5773 -0.1724
 8440TIP3    H246736   0.066   4.017  11.843 -0.6585  0.2053 -0.9861
 8441TIP3   OH246737   3.621   3.085  12.750 -0.0948 -0.0802  0.4121
 8441TIP3    H146738   3.530   3.062  12.730  0.5001 -0.6384 -1.8686
 8441TIP3    H246739   3.651   3.137  12.676  1.2619  0.7029  1.4495
 8442TIP3   OH246740   4.540   3.899   4.842 -0.1032 -0.4551 -0.8354
 8442TIP3    H146741   4.454   3.873   4.809 -0.2230 -1.1450 -0.0018
 8442TIP3    H246742   4.592   3.913   4.763 -1.1170  0.4757 -1.3673
 8443TIP3   OH246743   4.009   1.955  11.980  0.6682 -0.0397 -0.3107
 8443TIP3    H146744   3.983   2.015  12.050  1.1110 -0.7851  0.5187
 8443TIP3    H246745   4.104   1.962  11.977  0.5968  0.6123 -1.4293
 8444TIP3   OH246746   1.116   5.214  13.595  0.0993  0.6410 -0.3126
 8444TIP3    H146747   1.202   5.255  13.586  0.0244  0.7698 -0.4622
 8444TIP3    H246748   1.108   5.195  13.688  1.2126 -1.4306 -0.5941
 8445TIP3   OH246749   0.707   0.239  11.762  0.4669  0.0986 -0.4997
 8445TIP3    H146750   0.768   0.277  11.699 -0.1488 -0.4808 -1.4670
 8445TIP3    H246751   0.710   0.298  11.837  1.6802  0.4666 -0.8071
 8446TIP3   OH246752   1.924   2.091   0.000 -0.0401 -0.0983 -0.1543
 8446TIP3    H146753   1.860   2.117  -0.066  0.2907 -2.0501 -1.3274
 8446TIP3    H246754   2.005   2.077  -0.049  0.6324 -0.1099  0.9157
 8447TIP3   OH246755   1.327   4.121  17.317 -0.4215  0.0370  0.2281
 8447TIP3    H146756   1.296   4.108  17.407 -1.9736 -0.5984 -0.3570
 8447TIP3    H246757   1.369   4.207  17.319  1.8852 -1.0145  2.0951
 8448TIP3   OH246758   4.535   1.498   6.070  0.6400  0.2534 -0.4718
 8448TIP3    H146759   4.508   1.519   6.160 -0.5004 -1.2037 -0.4334
 8448TIP3    H246760   4.563   1.407   6.075  1.2127  0.3626 -1.4846
 8449TIP3   OH246761   2.743   4.996   4.426 -0.0566 -0.5500  0.3458
 8449TIP3    H146762   2.656   4.974   4.396  0.2324 -0.8185 -0.3053
 8449TIP3    H246763   2.792   4.913   4.422  1.0396  0.1196 -2.1145
 8450TIP3   OH246764   3.256   6.675   1.468 -0.3623 -0.5057 -0.0506
 8450TIP3    H146765   3.240   6.728   1.545  0.0198 -1.4179  0.6828
 8450TIP3    H246766   3.180   6.617   1.462  1.0348 -2.7021  1.6227
 8451TIP3   OH246767   0.096   3.205   2.040 -0.0789 -0.1112 -0.3736
 8451TIP3    H146768   0.113   3.197   1.946  0.9712  0.5135 -0.2527
 8451TIP3    H246769   0.021   3.265   2.046  0.0718  0.1251 -0.8005
 8452TIP3   OH246770   4.327   2.822   3.353  0.0795 -0.7481 -0.2528
 8452TIP3    H146771   4.369   2.871   3.424 -1.3663  1.0780 -0.5893
 8452TIP3    H246772   4.397   2.810   3.288  0.4422  1.2523 -0.3083
 8453TIP3   OH246773   4.071   6.125  15.779  0.3715  0.7113  0.5119
 8453TIP3    H146774   4.066   6.041  15.824 -1.5294 -0.6468 -1.9879
 8453TIP3    H246775   4.071   6.190  15.849  2.3349 -1.3230  2.5486
 8454TIP3   OH246776   1.560   2.035  12.194  0.4809  0.3497 -0.5685
 8454TIP3    H146777   1.634   1.979  12.218  0.4837  0.2958 -0.7014
 8454TIP3    H246778   1.488   1.974  12.176 -1.0685  0.3862  3.9895
 8455TIP3   OH246779   0.173   3.899   5.080 -0.5472 -0.3595  0.1904
 8455TIP3    H146780   0.181   3.870   5.171 -1.8411 -0.1064  0.4134
 8455TIP3    H246781   0.191   3.993   5.083 -0.1081 -0.4416  0.1049
 8456TIP3   OH246782   2.512   1.364  10.911 -0.0552  0.1438 -0.3145
 8456TIP3    H146783   2.526   1.305  10.837 -0.5797 -0.4801  0.0659
 8456TIP3    H246784   2.530   1.451  10.877  1.1961 -0.2730 -0.7654
 8457TIP3   OH246785   3.586   3.048  11.577 -0.2881  0.1655 -0.0962
 8457TIP3    H146786   3.631   3.008  11.503  0.3132  3.6088 -1.8106
 8457TIP3    H246787   3.651   3.047  11.648  0.8506  0.8580 -1.0848
 8458TIP3   OH246788   1.531   5.598  11.462  0.2044 -0.3590 -0.2714
 8458TIP3    H146789   1.536   5.693  11.454  0.7725 -0.3079  0.5721
 8458TIP3    H246790   1.485   5.583  11.544  2.4091 -0.7750  0.9690
 8459TIP3   OH246791   3.230   2.329   0.819  0.2789 -0.2525  0.5017
 8459TIP3    H146792   3.321   2.305   0.834  0.7756  1.0085 -0.2902
 8459TIP3    H246793   3.179   2.267   0.871  1.5442 -1.5359  0.2708
 8460TIP3   OH246794   0.111   3.953   2.803  0.0171 -0.3150  0.1243
 8460TIP3    H146795   0.088   3.914   2.719  0.7095  1.0387 -0.7324
 8460TIP3    H246796   0.206   3.957   2.803  0.0219 -0.1531  0.9171
 8461TIP3   OH246797   1.590   5.814   3.835  0.3050 -0.0293  0.4766
 8461TIP3    H146798   1.663   5.756   3.860  1.0697  1.2346  1.2971
 8461TIP3    H246799   1.582   5.874   3.909 -1.3843  0.0523  0.2501
 8462TIP3   OH246800   1.527   0.995  14.576 -0.0779  0.2007  0.1474
 8462TIP3    H146801   1.462   0.983  14.506  1.2296  0.1615 -1.1211
 8462TIP3    H246802   1.611   0.982  14.532  0.7847 -0.0398  1.8019
 8463TIP3   OH246803   4.023   4.977   5.230  0.4641  0.5883 -0.4815
 8463TIP3    H146804   4.035   4.886   5.257  0.3441  1.0641  1.2651
 8463TIP3    H246805   4.110   5.016   5.235  0.6735  0.3716 -2.0776
 8464TIP3   OH246806   0.903   4.250   1.197  0.1004  0.1399 -0.7548
 8464TIP3    H146807   0.815   4.281   1.174  0.4119  0.2124 -1.9508
 8464TIP3    H246808   0.960   4.292   1.132  0.8981 -0.6597 -0.5879
 8465TIP3   OH246809   2.887   5.487  13.344 -0.5046 -0.0086  0.3322
 8465TIP3    H146810   2.844   5.492  13.259 -0.0323 -3.7231 -0.2733
 8465TIP3    H246811   2.824   5.445  13.402  0.5331 -1.0566  0.7431
 8466TIP3   OH246812   2.839   1.179  11.133 -0.0557  0.4243 -0.4261
 8466TIP3    H146813   2.757   1.226  11.120 -0.3280 -0.1697 -0.9169
 8466TIP3    H246814   2.841   1.158  11.226 -0.4382  0.4707 -0.4093
 8467TIP3   OH246815   5.887   3.593  16.597  0.4465  0.6294 -0.2867
 8467TIP3    H146816   5.873   3.501  16.576 -0.4313  0.6694  0.1095
 8467TIP3    H246817   5.963   3.618  16.544  0.6738 -0.3088 -0.4151
 8468TIP3   OH246818   1.373   6.135  14.010 -0.3555 -0.4492  0.3096
 8468TIP3    H146819   1.446   6.082  13.978  0.5440  1.7032 -1.4967
 8468TIP3    H246820   1.414   6.204  14.062 -0.9835  1.0363 -1.0714
 8469TIP3   OH246821   0.345   3.714   5.019  0.0566 -0.4419  0.3750
 8469TIP3    H146822   0.329   3.630   5.063 -1.2383 -1.0682 -1.1781
 8469TIP3    H246823   0.258   3.754   5.013  0.0518 -0.6752 -2.0878
 8470TIP3   OH246824   0.737   5.358   5.359  0.0853 -0.0548 -0.2834
 8470TIP3    H146825   0.806   5.370   5.294  0.8154  2.5393  0.8470
 8470TIP3    H246826   0.770   5.399   5.438 -1.9390 -0.5831  0.9293
 8471TIP3   OH246827   1.109   1.848   0.248 -0.3572 -0.0002  0.1769
 8471TIP3    H146828   1.196   1.843   0.288 -0.8783  0.3769  1.3889
 8471TIP3    H246829   1.099   1.764   0.204  0.5081 -0.1618  0.2552
 8472TIP3   OH246830   1.240   6.317   3.193 -0.3397 -0.1929  0.0115
 8472TIP3    H146831   1.286   6.266   3.127  0.3317  0.6518 -0.1918
 8472TIP3    H246832   1.162   6.265   3.214 -0.5028 -0.5244 -1.3396
 8473TIP3   OH246833   6.021   0.113   2.385 -0.3878  0.0220 -0.1812
 8473TIP3    H146834   6.012   0.105   2.290  1.9642  2.4449 -0.7085
 8473TIP3    H246835   5.985   0.200   2.406  0.6408  0.2195  0.8779
 8474TIP3   OH246836   6.099   1.764  15.282 -0.1685 -0.5878  0.0370
 8474TIP3    H146837   6.078   1.792  15.371  0.4225  2.5136 -0.6906
 8474TIP3    H246838   6.019   1.722  15.252 -0.9227 -0.3123  1.5256
 8475TIP3   OH246839   1.922   3.164  14.721  0.7834 -0.3797 -0.0859
 8475TIP3    H146840   1.962   3.194  14.802 -0.9198 -0.1303  0.7045
 8475TIP3    H246841   1.979   3.093  14.691  1.0865 -0.9282  1.6714
 8476TIP3   OH246842   1.817   3.261  16.219 -0.2414 -0.3710 -0.4224
 8476TIP3    H146843   1.883   3.307  16.270 -0.8934 -0.7307  0.7832
 8476TIP3    H246844   1.862   3.237  16.138  0.4696  1.2462 -0.5506
 8477TIP3   OH246845   3.147   0.496   3.583 -0.1156 -0.0905 -0.2109
 8477TIP3    H146846   3.096   0.420   3.611  0.8517 -0.9298 -0.6461
 8477TIP3    H246847   3.237   0.476   3.609  0.2425  0.6671 -0.8056
 8478TIP3   OH246848   3.888   4.316   2.721 -0.3088 -0.5718  0.4931
 8478TIP3    H146849   3.804   4.341   2.682  0.0803 -1.2202 -0.7951
 8478TIP3    H246850   3.889   4.221   2.717 -0.2526 -0.6688  2.1447
 8479TIP3   OH246851   2.699   6.294   3.335  0.4577  0.3218  0.0830
 8479TIP3    H146852   2.651   6.215   3.308  1.7840 -0.2426 -0.7315
 8479TIP3    H246853   2.790   6.275   3.313  1.0207  1.4993  1.2749
 8480TIP3   OH246854   3.144   5.179   6.234 -0.5190 -0.3190 -0.5614
 8480TIP3    H146855   3.175   5.252   6.179 -0.7465 -0.0412 -0.3237
 8480TIP3    H246856   3.076   5.218   6.289 -0.0631 -0.5145  0.1571
 8481TIP3   OH246857   3.937   5.417   2.264  0.7913  0.4080  0.4741
 8481TIP3    H146858   3.921   5.331   2.302  0.8931  0.3412  0.3669
 8481TIP3    H246859   3.995   5.400   2.190  2.7387  0.8049  1.8246
 8482TIP3   OH246860   0.054   1.129   5.078 -0.9245 -0.1028 -0.0640
 8482TIP3    H146861   0.146   1.103   5.083 -0.4459  1.3265 -0.9976
 8482TIP3    H246862   0.017   1.074   5.009 -0.4458  0.2242 -0.5828
 8483TIP3   OH246863   4.251   3.882  15.587 -0.1625 -0.9275  0.0375
 8483TIP3    H146864   4.216   3.795  15.607 -1.4038 -0.2707  0.8968
 8483TIP3    H246865   4.190   3.919  15.523 -1.0174  0.1667  1.4124
 8484TIP3   OH246866   1.113   2.511   3.822 -0.1889  0.5005  0.4599
 8484TIP3    H146867   1.149   2.544   3.904 -0.6778 -0.9038  1.2740
 8484TIP3    H246868   1.110   2.416   3.833 -0.5922  0.3047 -1.0552
 8485TIP3   OH246869   0.429   0.146  12.445 -0.4022  0.0877 -0.1611
 8485TIP3    H146870   0.357   0.196  12.408 -1.5592 -0.7047  0.9124
 8485TIP3    H246871   0.442   0.072  12.385 -0.2951  0.3779 -0.4952
 8486TIP3   OH246872   3.183   0.291   2.060 -0.0404  0.1841 -0.6043
 8486TIP3    H146873   3.196   0.385   2.072 -1.5726  0.3645 -0.0711
 8486TIP3    H246874   3.228   0.270   1.979  0.5985  1.3136 -0.5633
 8487TIP3   OH246875   6.135   3.679  15.687  0.0918 -0.2007  0.5142
 8487TIP3    H146876   6.208   3.725  15.647 -0.7316 -1.5116 -2.7970
 8487TIP3    H246877   6.165   3.588  15.694 -0.5775 -0.4042  0.8692
 8488TIP3   OH246878   4.464   2.425   4.449  0.0010 -0.4003 -0.4776
 8488TIP3    H146879   4.376   2.448   4.476  0.7873  1.0788  0.9601
 8488TIP3    H246880   4.462   2.329   4.440 -1.2523 -0.5923  1.4050
 8489TIP3   OH246881   6.010   1.671   5.500  0.3195  0.1546 -0.3745
 8489TIP3    H146882   5.950   1.715   5.440  2.0209  1.5251 -1.2041
 8489TIP3    H246883   6.076   1.738   5.521  0.1613 -0.4711  2.5628
 8490TIP3   OH246884   2.211   1.004   0.245  0.4401 -0.1018 -0.1299
 8490TIP3    H146885   2.117   1.002   0.227  0.3664 -0.0363  0.2395
 8490TIP3    H246886   2.218   0.986   0.338  0.8368 -0.7463 -0.2766
 8491TIP3   OH246887   1.915   3.438  11.736 -0.1944 -0.6889  0.0086
 8491TIP3    H146888   1.949   3.351  11.713  1.2174 -0.5919  1.4874
 8491TIP3    H246889   1.854   3.460  11.666 -0.4216 -2.7805 -0.5113
 8492TIP3   OH246890   6.176   0.177   3.922  0.1571 -0.0135  0.0481
 8492TIP3    H146891   6.127   0.095   3.933  0.6639 -0.1339  1.6651
 8492TIP3    H246892   6.191   0.183   3.828 -0.2915 -1.5408 -0.1554
 8493TIP3   OH246893   4.346   3.006  16.452 -0.3836  0.0233 -0.2308
 8493TIP3    H146894   4.356   3.087  16.502  0.6587 -0.3735  0.2353
 8493TIP3    H246895   4.253   3.005  16.427 -1.2006 -0.1739  2.4261
 8494TIP3   OH246896   5.244   0.311  17.265  0.4544  0.0849  0.0017
 8494TIP3    H146897   5.238   0.254  17.341 -0.2242 -1.1169 -0.9030
 8494TIP3    H246898   5.336   0.337  17.261  0.3979  0.5866  1.4970
 8495TIP3   OH246899   5.196   2.964   4.263 -0.1272  0.2099 -0.1146
 8495TIP3    H146900   5.276   2.977   4.314  1.4028 -2.7433 -1.4846
 8495TIP3    H246901   5.170   2.874   4.282 -1.7795  0.3446 -1.5126
 8496TIP3   OH246902   1.403   5.699  11.204 -0.3883 -0.2310 -0.1348
 8496TIP3    H146903   1.421   5.761  11.134 -0.8013  1.4245  1.1652
 8496TIP3    H246904   1.427   5.745  11.285  0.9137 -2.3897  0.8125
 8497TIP3   OH246905   5.528   1.888  13.871  0.5160 -0.0089  0.9476
 8497TIP3    H146906   5.492   1.888  13.782  0.8161  1.1599  0.8111
 8497TIP3    H246907   5.556   1.797  13.886 -2.9330 -1.1734  1.2607
 8498TIP3   OH246908   5.521   5.952   2.046  0.1246  0.0950 -0.3924
 8498TIP3    H146909   5.613   5.925   2.047  0.5240  1.2444 -2.0742
 8498TIP3    H246910   5.520   6.037   2.090  0.0790  0.5724 -1.2773
 8499TIP3   OH246911   5.752   6.014  13.837  0.1126  0.8798 -0.3646
 8499TIP3    H146912   5.757   6.006  13.742  0.7240  2.2516 -0.4680
 8499TIP3    H246913   5.822   6.075  13.860  1.3115 -0.9582  1.2046
 8500TIP3   OH246914   5.202   4.380  13.649 -0.3943 -0.0552  0.0963
 8500TIP3    H146915   5.191   4.422  13.734 -0.7014 -0.0203  0.0425
 8500TIP3    H246916   5.276   4.426  13.609  1.1371 -1.4513  1.1838
 8501TIP3   OH246917   1.303   4.346  16.102 -0.1727 -0.0422  0.0544
 8501TIP3    H146918   1.221   4.376  16.063  1.0756  0.9743 -1.9515
 8501TIP3    H246919   1.355   4.316  16.028  1.0208 -1.3636  1.3643
 8502TIP3   OH246920   3.437   3.695  12.524  0.3475 -0.3043  0.1301
 8502TIP3    H146921   3.477   3.730  12.604  1.2623  0.6896 -0.7279
 8502TIP3    H246922   3.508   3.648  12.480  0.0914 -0.1050 -0.5119
 8503TIP3   OH246923   3.555   4.293  16.666 -0.3733  0.5989 -0.5450
 8503TIP3    H146924   3.601   4.227  16.717 -0.5683  1.6789  1.1404
 8503TIP3    H246925   3.610   4.309  16.590  0.7481  0.0350  0.1276
 8504TIP3   OH246926   2.401   5.300  13.523  0.1862 -0.1746  0.1315
 8504TIP3    H146927   2.384   5.392  13.505 -0.8279 -0.2497  0.6347
 8504TIP3    H246928   2.394   5.258  13.437 -0.7908  0.0195  0.1016
 8505TIP3   OH246929   2.838   1.150  14.006 -0.2493 -0.5646 -0.2017
 8505TIP3    H146930   2.762   1.199  13.976 -0.0821 -0.9219 -1.2351
 8505TIP3    H246931   2.910   1.213  14.004 -0.1498 -0.6870 -0.9992
 8506TIP3   OH246932   5.969   6.316   2.847  0.0076  0.3114  0.1599
 8506TIP3    H146933   5.912   6.275   2.782 -0.6805  1.6601 -0.1411
 8506TIP3    H246934   5.988   6.403   2.810  2.8508 -0.3115 -0.0757
 8507TIP3   OH246935   0.508   1.380  11.298  0.2309 -0.7630  0.7749
 8507TIP3    H146936   0.564   1.412  11.369  0.2447  0.5236  0.2234
 8507TIP3    H246937   0.568   1.361  11.226  0.0456 -0.1195  0.4417
 8508TIP3   OH246938   2.472   1.422  16.503 -0.5417 -0.3768 -0.2635
 8508TIP3    H146939   2.566   1.439  16.506 -0.6204  0.0460 -0.1766
 8508TIP3    H246940   2.465   1.330  16.477 -0.0887 -0.7409  0.8636
 8509TIP3   OH246941   5.239   0.163   2.895  0.5264  0.2517  0.1074
 8509TIP3    H146942   5.321   0.199   2.927  0.7132 -0.3936  0.3852
 8509TIP3    H246943   5.255   0.145   2.802  0.7502  0.0104  0.1899
 8510TIP3   OH246944   1.165   2.780   2.481 -0.7871 -0.4912  0.3456
 8510TIP3    H146945   1.145   2.827   2.562  0.5679 -1.4634  1.2813
 8510TIP3    H246946   1.163   2.688   2.506 -0.0549 -0.7947 -0.6621
 8511TIP3   OH246947   3.065   2.578  13.278 -0.4829  0.3768 -0.6245
 8511TIP3    H146948   3.146   2.537  13.309 -1.8421 -0.7829  1.7286
 8511TIP3    H246949   3.078   2.671  13.291 -0.1741  0.0725  1.5858
 8512TIP3   OH246950   6.664   2.825  14.841  0.2804  0.4550 -0.3280
 8512TIP3    H146951   6.606   2.892  14.878  0.0945 -0.4300  1.0437
 8512TIP3    H246952   6.747   2.870  14.826 -0.3501  1.4127 -1.0893
 8513TIP3   OH246953   0.661   6.242   2.850  0.8770  0.1432 -0.1127
 8513TIP3    H146954   0.662   6.224   2.944 -1.4637  0.2824 -0.0036
 8513TIP3    H246955   0.646   6.157   2.809 -1.4605  0.4929 -0.1086
 8514TIP3   OH246956   6.202   1.138   1.611  0.4963 -0.1435  0.3267
 8514TIP3    H146957   6.151   1.156   1.532 -2.3704  0.1791  2.0806
 8514TIP3    H246958   6.258   1.065   1.587 -0.3265 -0.1151 -1.9629
 8515TIP3   OH246959   4.802   4.915   5.819 -0.2882  0.3498  0.1524
 8515TIP3    H146960   4.857   4.849   5.861  0.6732 -0.3744 -2.0598
 8515TIP3    H246961   4.714   4.895   5.849 -0.1831 -2.6438 -1.1088
 8516TIP3   OH246962   4.279   4.139   1.203 -0.1921 -0.0041 -0.1776
 8516TIP3    H146963   4.341   4.098   1.143 -1.1061 -0.7347 -0.6408
 8516TIP3    H246964   4.307   4.230   1.208  1.4472 -0.5104  0.3162
 8517TIP3   OH246965   6.423   0.340   3.593 -0.9111  0.9341 -0.3230
 8517TIP3    H146966   6.344   0.297   3.627  0.0150 -0.9214 -0.3704
 8517TIP3    H246967   6.480   0.349   3.669 -0.2421  0.0402 -0.6974
 8518TIP3   OH246968   2.152   6.239   0.612 -0.8200 -0.0259 -0.4093
 8518TIP3    H146969   2.172   6.324   0.572  1.6425  0.2976  1.2681
 8518TIP3    H246970   2.058   6.242   0.630 -0.7378  2.5230 -0.0852
 8519TIP3   OH246971   4.354   0.899   4.032 -0.0179  0.6218  0.3191
 8519TIP3    H146972   4.296   0.967   4.067 -0.9199 -0.8168  1.7792
 8519TIP3    H246973   4.325   0.819   4.075  0.2806 -0.9180 -2.1623
 8520TIP3   OH246974   6.507   4.992   4.248 -0.3182 -0.1536  0.2498
 8520TIP3    H146975   6.569   4.921   4.231  1.5160  0.8324  2.2146
 8520TIP3    H246976   6.550   5.070   4.213 -0.6928  0.4689  1.1265
 8521TIP3   OH246977   2.779   4.234   0.866 -0.0596 -0.1329  0.0375
 8521TIP3    H146978   2.727   4.184   0.804  0.7401  0.6788 -1.3439
 8521TIP3    H246979   2.870   4.211   0.845  0.2581  0.8282  0.2953
 8522TIP3   OH246980   6.208   1.390  11.658 -0.1399  0.0644 -0.2763
 8522TIP3    H146981   6.127   1.383  11.709 -0.4654  1.6182 -0.5501
 8522TIP3    H246982   6.273   1.345  11.712 -0.9231 -0.1575  0.5124
 8523TIP3   OH246983   2.073   3.252  15.239 -0.1119 -0.1243 -0.0088
 8523TIP3    H146984   2.011   3.269  15.310  0.9467 -0.1258  0.9463
 8523TIP3    H246985   2.112   3.167  15.261  1.4077  0.6206  0.3253
 8524TIP3   OH246986   4.248   1.283   5.742 -0.1074  0.1680  1.1533
 8524TIP3    H146987   4.316   1.255   5.680 -0.4631 -0.8522  1.2132
 8524TIP3    H246988   4.197   1.348   5.694 -1.2008 -1.5807 -0.1168
 8525TIP3   OH246989   0.026   2.072   1.186  0.0120 -0.1096  0.0935
 8525TIP3    H146990   0.117   2.048   1.201 -0.4084 -1.7448  0.1562
 8525TIP3    H246991  -0.022   1.989   1.186 -1.1627  0.4766 -2.2332
 8526TIP3   OH246992   4.227   4.957   5.492  0.0010  0.2681 -0.1376
 8526TIP3    H146993   4.205   4.874   5.451  0.8908  0.2592 -0.6350
 8526TIP3    H246994   4.272   5.007   5.424  0.3510  0.7657  0.4399
 8527TIP3   OH246995   2.888   4.440  13.228  0.5475  0.2689  0.3139
 8527TIP3    H146996   2.826   4.499  13.271  0.8310  0.9273 -0.1628
 8527TIP3    H246997   2.833   4.380  13.178  0.2017 -0.6198  1.6943
 8528TIP3   OH246998   1.881   0.252  15.370  0.4851  0.0876  0.2741
 8528TIP3    H146999   1.871   0.288  15.458 -0.3421  0.2917  0.1008
 8528TIP3    H247000   1.799   0.205  15.354  0.9067 -0.5213 -0.1241
 8529TIP3   OH247001   5.638   3.032  13.043 -0.2101  0.2158  0.1118
 8529TIP3    H147002   5.562   2.983  13.011  0.2472 -0.4134 -0.0366
 8529TIP3    H247003   5.693   2.966  13.085  0.3175  0.6394  0.0967
 8530TIP3   OH247004   3.269   5.850   0.642  0.2353  0.3220 -0.0472
 8530TIP3    H147005   3.342   5.874   0.700 -0.8007 -1.1784  2.0143
 8530TIP3    H247006   3.309   5.843   0.555  2.1349  1.4059  0.6749
 8531TIP3   OH247007   5.739   1.303  14.065  0.4415 -0.0632  0.3241
 8531TIP3    H147008   5.786   1.226  14.095  2.7700  1.4100  0.6923
 8531TIP3    H247009   5.689   1.333  14.141  1.6785  0.3029  1.0149
 8532TIP3   OH247010   2.516   1.078  13.787 -0.0459 -0.1786  0.2540
 8532TIP3    H147011   2.467   1.125  13.855 -0.7146  0.7913 -0.8628
 8532TIP3    H247012   2.497   1.126  13.706  3.1219  0.5198 -0.1960
 8533TIP3   OH247013   0.302   0.076  13.228 -0.4429 -0.3323  0.2697
 8533TIP3    H147014   0.388   0.094  13.266  0.8262  2.0990 -3.2151
 8533TIP3    H247015   0.314  -0.005  13.178  0.8863  1.5169 -2.6287
 8534TIP3   OH247016   3.004   1.748   2.168  0.4340 -0.9171 -0.5337
 8534TIP3    H147017   2.941   1.693   2.122 -0.8783  0.2233 -0.1865
 8534TIP3    H247018   3.081   1.750   2.111 -0.5607 -0.7968 -1.9244
 8535TIP3   OH247019   1.134   1.698  14.590 -0.2191 -0.1014  0.2366
 8535TIP3    H147020   1.159   1.647  14.513 -1.8489  1.3588 -1.3769
 8535TIP3    H247021   1.040   1.708  14.582  0.0264  3.4471  0.1654
 8536TIP3   OH247022   5.876   6.739  17.152  0.1976  0.5439 -0.3428
 8536TIP3    H147023   5.860   6.782  17.236  0.0146  0.2619 -0.2312
 8536TIP3    H247024   5.852   6.648  17.167  0.2796  0.4681 -0.6685
 8537TIP3   OH247025   1.870   4.765   0.854  0.8704  0.3952  0.9898
 8537TIP3    H147026   1.819   4.840   0.884  1.1781 -0.0068  2.6121
 8537TIP3    H247027   1.918   4.736   0.931  1.5381 -0.8543  0.1450
 8538TIP3   OH247028   5.900   1.151   1.474 -0.2338  0.8839  0.1453
 8538TIP3    H147029   5.890   1.057   1.461 -0.2081  0.5855  2.0726
 8538TIP3    H247030   5.978   1.174   1.423  0.3641 -0.3381  0.4773
 8539TIP3   OH247031   0.704   3.590   3.887  0.0211  0.2591  0.2267
 8539TIP3    H147032   0.689   3.636   3.969 -1.3981 -0.1956  0.2501
 8539TIP3    H247033   0.685   3.498   3.906  0.0097  0.0932 -0.5268
 8540TIP3   OH247034   6.183   0.341   0.228 -0.1721 -0.7274  0.0954
 8540TIP3    H147035   6.193   0.435   0.239  0.1502 -0.4931 -1.8569
 8540TIP3    H247036   6.161   0.308   0.316 -1.8801  1.3324  0.5089
 8541TIP3   OH247037   6.322   2.931  13.129 -0.3415  0.4414 -0.0301
 8541TIP3    H147038   6.316   2.967  13.040 -0.8271 -2.4650 -1.3076
 8541TIP3    H247039   6.242   2.962  13.172 -1.2785  0.0438 -1.4005
 8542TIP3   OH247040   1.234   0.012  14.330  0.1291  0.0768 -0.1331
 8542TIP3    H147041   1.267  -0.046  14.262  1.0287 -0.3167  0.6213
 8542TIP3    H247042   1.202  -0.047  14.398  0.1007  0.4598  0.1908
 8543TIP3   OH247043   1.495   2.582   6.564 -0.3903  0.5749 -0.2123
 8543TIP3    H147044   1.525   2.539   6.645 -0.3049 -1.3270 -1.1993
 8543TIP3    H247045   1.576   2.605   6.518 -0.4312  2.1350  0.4460
 8544TIP3   OH247046   3.687   1.142  11.403  0.3622 -0.0940 -0.1789
 8544TIP3    H147047   3.662   1.182  11.320 -1.8431  0.5160  0.6999
 8544TIP3    H247048   3.624   1.071  11.415  2.0680 -1.6703 -0.0589
 8545TIP3   OH247049   5.118   3.005   3.382 -0.5163  0.1133 -1.0542
 8545TIP3    H147050   5.108   2.913   3.407  2.1011  0.1764  0.5034
 8545TIP3    H247051   5.165   3.002   3.299 -1.5108  0.0642 -1.6331
 8546TIP3   OH247052   0.615   1.867   3.598  0.0923 -0.0167  0.4352
 8546TIP3    H147053   0.607   1.772   3.601  0.5628 -0.0549  0.6328
 8546TIP3    H247054   0.681   1.883   3.531 -2.4616  0.3479 -2.1633
 8547TIP3   OH247055   4.169   5.598  17.256 -0.4673 -0.1373 -0.4216
 8547TIP3    H147056   4.131   5.593  17.168  0.1697 -0.0006 -0.7037
 8547TIP3    H247057   4.225   5.676  17.254 -1.9410  1.0102  0.6982
 8548TIP3   OH247058   2.203   6.013  14.343  0.6077 -0.2627  0.6449
 8548TIP3    H147059   2.243   6.082  14.290  1.3408 -0.4177  0.9853
 8548TIP3    H247060   2.149   6.061  14.407  0.5503 -0.0379  0.4318
 8549TIP3   OH247061   1.583   1.148   1.218 -0.0271 -0.2440 -0.6775
 8549TIP3    H147062   1.543   1.068   1.183 -0.0426 -0.9920  0.9702
 8549TIP3    H247063   1.531   1.168   1.296  0.7531  0.6643 -0.3839
 8550TIP3   OH247064   1.318   6.706   5.357 -0.1043 -0.0584 -0.2633
 8550TIP3    H147065   1.402   6.660   5.364 -0.1398 -0.6124 -2.6052
 8550TIP3    H247066   1.252   6.636   5.359 -0.5873  0.4018  1.9609
 8551TIP3   OH247067   3.924   1.255  11.455  0.1195 -0.3040  0.2347
 8551TIP3    H147068   3.883   1.336  11.425  2.8479  0.7119 -1.1981
 8551TIP3    H247069   3.852   1.196  11.473 -1.9408  1.8952 -0.3250
 8552TIP3   OH247070   0.957   4.945  15.524  0.0704 -0.0583 -0.9798
 8552TIP3    H147071   0.984   4.895  15.600  1.1152  0.1438 -1.2027
 8552TIP3    H247072   0.865   4.921  15.510  0.1267 -0.7532 -0.1945
 8553TIP3   OH247073   2.643   2.833   3.795 -0.1659  0.0660 -0.4319
 8553TIP3    H147074   2.647   2.915   3.845  0.1860  0.2565 -0.7595
 8553TIP3    H247075   2.591   2.855   3.718 -0.4215 -0.1359 -0.3197
 8554TIP3   OH247076   0.479   2.328   0.933  0.1147  0.3935 -0.5652
 8554TIP3    H147077   0.548   2.388   0.961 -0.2202  0.8198 -0.6384
 8554TIP3    H247078   0.398   2.370   0.963 -0.1560  0.2065 -1.0330
 8555TIP3   OH247079   1.395   5.661   4.804 -0.2771  0.0390  0.3685
 8555TIP3    H147080   1.371   5.579   4.847 -0.3442 -0.3174 -0.3439
 8555TIP3    H247081   1.412   5.721   4.877 -1.1816 -0.3207  0.9005
 8556TIP3   OH247082   2.557   1.440   4.246  0.0990 -0.4202  0.2329
 8556TIP3    H147083   2.469   1.471   4.226 -0.1638 -0.7370  0.8635
 8556TIP3    H247084   2.559   1.351   4.212  0.3081 -0.2857 -0.1169
 8557TIP3   OH247085   0.290   4.403   5.003 -0.6043  0.0238  0.6687
 8557TIP3    H147086   0.241   4.476   4.963  1.1098  0.5272 -0.6144
 8557TIP3    H247087   0.353   4.377   4.936 -0.3552 -1.8543  1.5758
 8558TIP3   OH247088   4.361   5.358   4.750  0.3793 -0.4161 -0.3624
 8558TIP3    H147089   4.349   5.316   4.665 -0.6305 -0.6835 -0.0989
 8558TIP3    H247090   4.448   5.398   4.744  0.5029 -0.7866 -1.3620
 8559TIP3   OH247091   3.488   5.233   0.752 -0.0066 -0.3090 -0.0783
 8559TIP3    H147092   3.574   5.205   0.718  0.1153  1.7024 -1.6558
 8559TIP3    H247093   3.425   5.197   0.690 -0.0267  0.7473 -0.7018
 8560TIP3   OH247094   5.126   1.223   1.608 -0.0537  0.3228  0.2369
 8560TIP3    H147095   5.044   1.181   1.633 -0.7480  0.7413 -1.1964
 8560TIP3    H247096   5.163   1.167   1.540 -0.5999  1.5662 -1.1377
 8561TIP3   OH247097   0.271   1.686   2.985  0.9922  0.1143 -0.3033
 8561TIP3    H147098   0.289   1.614   2.924 -0.6021  0.1746 -0.8903
 8561TIP3    H247099   0.343   1.748   2.970  2.5981 -1.4693  0.4800
 8562TIP3   OH247100   4.007   1.503   1.477 -0.2690  0.2902  0.1721
 8562TIP3    H147101   3.972   1.473   1.393  3.1633  0.5017 -1.5185
 8562TIP3    H247102   4.100   1.516   1.460 -0.0626  4.0378  3.0144
 8563TIP3   OH247103   3.821   0.593   3.761  0.2022  0.2352  0.4062
 8563TIP3    H147104   3.761   0.665   3.738  0.8335  0.4688 -0.5361
 8563TIP3    H247105   3.901   0.637   3.790 -0.7272 -0.0113  3.7658
 8564TIP3   OH247106   3.533   4.785   5.799  0.4585  0.1522  0.2193
 8564TIP3    H147107   3.496   4.850   5.858 -1.6499 -0.2762 -0.5639
 8564TIP3    H247108   3.506   4.814   5.712 -0.7801 -1.8638 -0.1414
 8565TIP3   OH247109   3.516   0.887   4.081 -0.3641  0.3824  0.0170
 8565TIP3    H147110   3.491   0.883   4.173 -0.1244 -1.3131  0.0321
 8565TIP3    H247111   3.574   0.813   4.068  1.2822  1.7880 -1.0427
 8566TIP3   OH247112   5.918   3.053   1.837 -0.1780 -0.3111  0.2871
 8566TIP3    H147113   5.967   3.039   1.918  2.1245 -1.4410 -1.1974
 8566TIP3    H247114   5.928   3.146   1.819 -0.8251 -0.0174  1.3190
 8567TIP3   OH247115   1.920   5.034  13.330 -0.5704  0.0916 -0.0046
 8567TIP3    H147116   1.989   5.096  13.304 -0.7911 -0.0335 -0.9090
 8567TIP3    H247117   1.960   4.982  13.400  0.9914 -1.3275 -1.8338
 8568TIP3   OH247118   6.638   4.014  12.938  0.5978 -0.4971  0.1935
 8568TIP3    H147119   6.729   3.996  12.916  1.1042  0.8751  1.0119
 8568TIP3    H247120   6.635   4.109  12.952 -0.6890 -0.6678  1.3352
 8569TIP3   OH247121   0.504   6.339  16.314 -0.3910  0.1209 -0.2990
 8569TIP3    H147122   0.478   6.283  16.388 -1.1384 -0.2186 -0.8054
 8569TIP3    H247123   0.570   6.398  16.350  0.1149 -0.8194  0.3568
 8570TIP3   OH247124   2.798   5.522  13.032 -0.0762  0.4439 -0.1230
 8570TIP3    H147125   2.784   5.611  13.064  1.1915  0.4122  0.5979
 8570TIP3    H247126   2.836   5.534  12.945 -2.9015  0.5379 -1.4238
 8571TIP3   OH247127   0.061   4.886   4.938 -0.0300 -0.0132  0.5884
 8571TIP3    H147128   0.028   4.962   4.987  0.1432  0.9082 -0.6567
 8571TIP3    H247129  -0.013   4.827   4.933 -0.7304  0.8751  0.0730
 8572TIP3   OH247130   6.171   4.680  13.817 -0.0088  0.3186 -0.1802
 8572TIP3    H147131   6.249   4.654  13.866 -0.6121  0.3029  0.7888
 8572TIP3    H247132   6.147   4.766  13.852 -0.1499  0.5449 -0.8128
 8573TIP3   OH247133   4.488   4.444   5.089 -0.3059  0.5090 -0.1447
 8573TIP3    H147134   4.553   4.513   5.085 -0.0575  0.2165 -1.3156
 8573TIP3    H247135   4.537   4.365   5.112 -0.0212  0.0480 -2.1815
 8574TIP3   OH247136   4.448   1.676   2.674 -0.1876 -0.2090  0.4297
 8574TIP3    H147137   4.429   1.741   2.607  1.2490  0.5821  0.7586
 8574TIP3    H247138   4.471   1.597   2.625 -0.3297  0.0057  0.0130
 8575TIP3   OH247139   3.651   5.180  13.071 -0.0704  0.3166 -0.1422
 8575TIP3    H147140   3.646   5.235  13.149  0.1971 -0.4051  0.3915
 8575TIP3    H247141   3.734   5.132  13.081  0.0465  0.3393 -0.9464
 8576TIP3   OH247142   1.117   5.277  13.883  0.3634  0.2269 -0.4998
 8576TIP3    H147143   1.192   5.286  13.943 -0.6423  1.1991  0.6631
 8576TIP3    H247144   1.129   5.347  13.819  0.5123  0.3141 -0.3770
 8577TIP3   OH247145   4.915   0.346   0.043 -0.1677  0.1899 -0.0994
 8577TIP3    H147146   4.909   0.291   0.121 -0.3648  0.5006  0.1050
 8577TIP3    H247147   4.869   0.426   0.066  0.1757  0.4702 -0.3733
 8578TIP3   OH247148   2.768   3.831  14.129 -0.6357  0.8182 -0.6236
 8578TIP3    H147149   2.674   3.811  14.135 -0.4060 -0.1246  0.1906
 8578TIP3    H247150   2.798   3.777  14.056 -0.6137  0.6255 -0.4738
 8579TIP3   OH247151   2.494   3.617   5.931  0.2336 -0.3858 -0.1844
 8579TIP3    H147152   2.464   3.553   5.868  0.0851  1.5201 -2.1616
 8579TIP3    H247153   2.423   3.623   5.995 -0.7549 -0.5610 -1.2334
 8580TIP3   OH247154   6.007   3.663  11.458  0.8085  0.0446  0.0631
 8580TIP3    H147155   5.953   3.714  11.518  0.1252  0.3961 -0.8265
 8580TIP3    H247156   5.950   3.592  11.429  0.9519  0.1815 -0.5674
 8581TIP3   OH247157   5.542   5.601   6.078  0.4348 -0.0978  0.8916
 8581TIP3    H147158   5.510   5.595   6.168  2.6165 -2.1267  1.6279
 8581TIP3    H247159   5.630   5.564   6.082  1.3682  1.5965 -1.7258
 8582TIP3   OH247160   3.503   1.087  13.785  0.2448  0.4481 -0.4599
 8582TIP3    H147161   3.458   1.003  13.785  0.9415  0.0095  2.1361
 8582TIP3    H247162   3.500   1.117  13.875  2.3915  1.9013 -0.7822
 8583TIP3   OH247163   2.199   4.636  13.835  0.1618 -0.5714  0.1461
 8583TIP3    H147164   2.276   4.647  13.891  0.0146 -2.5325  0.8168
 8583TIP3    H247165   2.226   4.668  13.749  0.7202  1.5608  1.0437
 8584TIP3   OH247166   0.507   5.378  15.566 -0.7056 -0.7500 -0.0727
 8584TIP3    H147167   0.436   5.428  15.527 -0.4169  0.5177  0.9702
 8584TIP3    H247168   0.556   5.344  15.491 -1.0399  0.3434 -0.8095
 8585TIP3   OH247169   2.199   2.859   0.026  0.1437  0.2461  0.2760
 8585TIP3    H147170   2.161   2.829  -0.057  0.8640 -1.0647  0.3847
 8585TIP3    H247171   2.197   2.781   0.082  2.7521  0.1581  0.3616
 8586TIP3   OH247172   3.682   3.402   1.154 -0.4449  0.1787 -0.6937
 8586TIP3    H147173   3.672   3.338   1.084  1.5027 -1.6659  0.5930
 8586TIP3    H247174   3.596   3.408   1.195 -1.5217  1.0174 -2.9161
 8587TIP3   OH247175   3.784   5.747   4.633  0.1077  0.2736 -0.0357
 8587TIP3    H147176   3.742   5.758   4.719  0.8904 -0.7910  0.5086
 8587TIP3    H247177   3.716   5.769   4.570 -1.2764 -1.3307  0.8144
 8588TIP3   OH247178   3.209   4.458  13.598  0.2524  0.2715 -0.1437
 8588TIP3    H147179   3.161   4.541  13.599 -0.1656  0.0337 -0.1356
 8588TIP3    H247180   3.211   4.430  13.689  1.1452  0.6907 -0.0197
 8589TIP3   OH247181   0.394   5.358  16.341 -0.1866 -0.2516  0.5025
 8589TIP3    H147182   0.387   5.390  16.431 -0.9278 -1.1770  0.7848
 8589TIP3    H247183   0.352   5.272  16.342  1.5010 -1.1417 -0.2928
 8590TIP3   OH247184   2.771   3.942   1.738 -0.0674  0.8760  0.4436
 8590TIP3    H147185   2.805   3.888   1.667 -0.9651 -1.2402  1.5154
 8590TIP3    H247186   2.847   3.963   1.792  0.2654  0.3916  0.1646
 8591TIP3   OH247187   5.614   1.717   1.781 -0.0468 -0.1479 -0.0533
 8591TIP3    H147188   5.538   1.772   1.760 -1.8232 -2.2123  0.5801
 8591TIP3    H247189   5.611   1.707   1.876  1.1735 -0.0763  0.0027
 8592TIP3   OH247190   0.888   4.719  12.682  0.2714 -0.6340 -0.1828
 8592TIP3    H147191   0.932   4.713  12.767 -0.3494 -2.2431  0.0439
 8592TIP3    H247192   0.796   4.734  12.704  0.3778  0.8300 -0.6303
 8593TIP3   OH247193   6.539   2.275  14.780 -0.8961  0.3558  0.0812
 8593TIP3    H147194   6.530   2.368  14.799 -0.5402  0.3049  0.5290
 8593TIP3    H247195   6.573   2.237  14.861  0.0702  0.0321 -0.4590
 8594TIP3   OH247196   1.776   1.726   0.167  0.2952 -0.0607  0.2141
 8594TIP3    H147197   1.826   1.680   0.234 -0.6995 -2.5313 -0.6035
 8594TIP3    H247198   1.759   1.659   0.100 -1.4913  1.4558 -0.9466
 8595TIP3   OH247199   6.399   0.440  11.245 -0.4083 -0.2305 -0.4660
 8595TIP3    H147200   6.409   0.522  11.293 -0.9267 -0.3626 -0.1340
 8595TIP3    H247201   6.375   0.467  11.156  0.1382 -0.0030 -0.5504
 8596TIP3   OH247202   3.882   4.081  15.967  0.1934 -0.2722  0.3821
 8596TIP3    H147203   3.901   4.174  15.954  1.0517 -0.7300 -2.1834
 8596TIP3    H247204   3.851   4.076  16.058  0.9977  2.3515  0.9051
 8597TIP3   OH247205   4.556   1.959  12.290  0.1138  0.1686 -0.7664
 8597TIP3    H147206   4.506   1.973  12.210 -1.8990 -1.6843  0.0860
 8597TIP3    H247207   4.494   1.975  12.361  1.3269 -0.0640  0.4015
 8598TIP3   OH247208   5.671   0.024  12.498 -0.0682 -0.1428 -0.0969
 8598TIP3    H147209   5.663  -0.055  12.445  0.5138  0.0550 -0.4943
 8598TIP3    H247210   5.635   0.093  12.443 -0.9945 -0.1943  0.4285
 8599TIP3   OH247211   4.153   1.851  12.772 -0.3627  0.5504  0.1165
 8599TIP3    H147212   4.165   1.829  12.680  1.8966  0.9490  0.2608
 8599TIP3    H247213   4.198   1.781  12.820  0.2191  1.3897  0.8374
 8600TIP3   OH247214   0.767   1.424   4.138  0.0156 -0.6422  0.2208
 8600TIP3    H147215   0.726   1.345   4.174  1.1940 -1.4537 -0.1503
 8600TIP3    H247216   0.729   1.496   4.187  0.9218 -1.6364  2.5268
 8601TIP3   OH247217   6.514   1.276   2.744 -0.3715  0.0001  0.5432
 8601TIP3    H147218   6.534   1.370   2.742  2.3226 -0.5117 -0.6029
 8601TIP3    H247219   6.531   1.250   2.834 -1.5251  0.6344  0.9722
 8602TIP3   OH247220   0.459   6.016  16.717  0.0087  0.2127  0.2011
 8602TIP3    H147221   0.380   5.964  16.727  1.2639 -2.2867 -1.7644
 8602TIP3    H247222   0.470   6.026  16.623  2.6373 -0.6499  0.3285
 8603TIP3   OH247223   6.708   6.599  14.943 -0.1940 -0.2790  0.0590
 8603TIP3    H147224   6.770   6.545  14.895  1.1839  0.3796  1.0552
 8603TIP3    H247225   6.692   6.551  15.024 -1.2946 -0.6183 -0.3319
 8604TIP3   OH247226   0.170   0.957  15.876 -0.0714  0.2191  0.2991
 8604TIP3    H147227   0.193   0.891  15.942  0.6733 -0.3044 -0.4561
 8604TIP3    H247228   0.153   1.036  15.926  0.8494 -0.0684  1.1105
 8605TIP3   OH247229   1.431   3.953  14.033  0.5177  0.1912 -0.1186
 8605TIP3    H147230   1.513   3.985  13.996 -0.6278  0.0903 -3.0450
 8605TIP3    H247231   1.381   3.922  13.957 -1.4393 -1.6204  1.7551
 8606TIP3   OH247232   2.390   4.625   3.251  0.4921  0.2434 -0.0731
 8606TIP3    H147233   2.373   4.578   3.333  0.9320  0.7516  0.3226
 8606TIP3    H247234   2.374   4.560   3.182  1.1567 -0.5155  0.4605
 8607TIP3   OH247235   4.601   5.674   1.778  0.4754  0.0466 -0.4655
 8607TIP3    H147236   4.665   5.745   1.787  0.2366  0.0657  1.6171
 8607TIP3    H247237   4.627   5.628   1.698  2.4159  0.7123 -0.2626
 8608TIP3   OH247238   6.072   2.007   6.651 -0.3633  0.4702 -0.5643
 8608TIP3    H147239   6.125   2.056   6.715  1.2866  0.1478 -1.6005
 8608TIP3    H247240   6.053   2.071   6.582 -4.9577  1.8009  1.5471
 8609TIP3   OH247241   0.469   0.784   5.236 -0.0010 -0.5716  0.5471
 8609TIP3    H147242   0.379   0.788   5.269  0.3215  0.2767  1.3489
 8609TIP3    H247243   0.508   0.868   5.259  0.6759 -0.4844 -0.7802
 8610TIP3   OH247244   3.845   2.474   2.762  0.3060  0.9220  0.4762
 8610TIP3    H147245   3.933   2.451   2.734  0.0730 -0.5991  0.8986
 8610TIP3    H247246   3.806   2.517   2.686  0.6502 -0.5007 -0.5561
 8611TIP3   OH247247   5.056   6.770  14.847  0.0153  0.1648 -0.3296
 8611TIP3    H147248   5.068   6.828  14.922 -0.3418 -0.1291 -0.0394
 8611TIP3    H247249   5.049   6.829  14.771 -0.0236  0.4799 -0.0815
 8612TIP3   OH247250   1.124   4.172  12.032  0.4056 -0.1988  0.1474
 8612TIP3    H147251   1.109   4.104  11.967  0.5585 -1.1581  1.0960
 8612TIP3    H247252   1.217   4.194  12.022 -0.1005  1.4058 -1.5825
 8613TIP3   OH247253   3.711   0.441  17.339 -0.0559 -0.4442  0.0737
 8613TIP3    H147254   3.779   0.402  17.393 -1.2336 -1.4732  0.8501
 8613TIP3    H247255   3.676   0.369  17.287 -0.4569  0.1006 -0.4370
 8614TIP3   OH247256   1.252   5.955   0.340  0.0706 -0.3626  0.0625
 8614TIP3    H147257   1.315   5.917   0.279 -0.0253 -3.1669  1.5480
 8614TIP3    H247258   1.167   5.925   0.309 -0.0655 -0.9117  0.9235
 8615TIP3   OH247259   2.466   2.022  16.464  0.1101 -0.3135 -0.2910
 8615TIP3    H147260   2.411   1.966  16.409  0.5490  0.8554 -2.0166
 8615TIP3    H247261   2.422   2.106  16.464  0.5197 -0.0866  0.5709
 8616TIP3   OH247262   1.414   0.805   0.009 -0.3790  0.1048  0.0487
 8616TIP3    H147263   1.438   0.713   0.020  0.0579  0.1879 -0.1864
 8616TIP3    H247264   1.448   0.829  -0.078 -1.9310  0.0384 -0.5986
 8617TIP3   OH247265   4.541   6.732   0.955  0.1953 -0.1112 -0.1308
 8617TIP3    H147266   4.630   6.729   0.921  0.1669  0.7442 -0.3043
 8617TIP3    H247267   4.491   6.674   0.898  0.6671 -0.7025  0.0526
 8618TIP3   OH247268   6.043   5.838  15.701 -0.2831  0.3043  0.4203
 8618TIP3    H147269   6.009   5.751  15.724  0.9964 -0.6179 -0.9186
 8618TIP3    H247270   6.138   5.829  15.712 -0.0714  1.2843 -0.4785
 8619TIP3   OH247271   3.918   5.211   6.126  0.0900 -0.4853  0.3883
 8619TIP3    H147272   3.898   5.145   6.060 -1.2645 -0.2542  0.5365
 8619TIP3    H247273   4.007   5.190   6.156  0.2981 -1.2389 -0.7245
 8620TIP3   OH247274   0.872   2.208  15.091  0.0709  0.3266  0.0556
 8620TIP3    H147275   0.828   2.123  15.086  0.0859  0.3387 -0.3750
 8620TIP3    H247276   0.819   2.259  15.152 -0.7124  0.4410 -0.6944
 8621TIP3   OH247277   2.598   2.847  12.256  0.0982  0.4830  0.3784
 8621TIP3    H147278   2.566   2.774  12.308 -0.7266  1.3683  1.1444
 8621TIP3    H247279   2.519   2.893  12.227  0.5755  2.4749  1.9591
 8622TIP3   OH247280   0.616   5.637  14.946 -0.4595  0.0833 -0.2550
 8622TIP3    H147281   0.654   5.595  14.869  0.2403  3.0605 -1.6787
 8622TIP3    H247282   0.682   5.628  15.014  0.7767  1.0002 -1.2857
 8623TIP3   OH247283   6.486   6.260   6.317  0.3696  0.3072  0.1547
 8623TIP3    H147284   6.557   6.196   6.312  1.4422  1.2506  2.1037
 8623TIP3    H247285   6.529   6.344   6.305 -0.9833  0.7559 -2.1193
 8624TIP3   OH247286   6.187   2.057   1.034 -0.4988  0.4639 -0.0051
 8624TIP3    H147287   6.197   2.134   0.979  0.2834 -0.4671 -1.2226
 8624TIP3    H247288   6.125   2.001   0.986  0.9078 -0.7692 -0.4690
 8625TIP3   OH247289   0.601   3.756   5.684 -0.5013  0.9476  0.4103
 8625TIP3    H147290   0.667   3.798   5.739  1.1899 -0.8439 -0.1362
 8625TIP3    H247291   0.580   3.674   5.729 -1.7061  1.0745  0.1169
 8626TIP3   OH247292   2.468   1.283   2.680  0.2303 -0.2594 -0.5744
 8626TIP3    H147293   2.383   1.287   2.723  1.2959  3.0521  1.6225
 8626TIP3    H247294   2.516   1.215   2.728  0.1656  0.8249  1.1053
 8627TIP3   OH247295   1.323   4.518   5.799  0.0947  0.2242 -0.1939
 8627TIP3    H147296   1.334   4.613   5.795 -0.0186  0.1940 -3.0655
 8627TIP3    H247297   1.229   4.504   5.787  0.2238 -0.2622 -0.6643
 8628TIP3   OH247298   0.026   2.063   5.484  0.4673  0.3067 -0.1758
 8628TIP3    H147299   0.054   1.985   5.530 -1.0109  0.0807  0.3680
 8628TIP3    H247300   0.089   2.071   5.411  1.2278 -0.8020  0.3292
 8629TIP3   OH247301   5.198   5.870  16.597 -0.2842 -0.1809 -0.2014
 8629TIP3    H147302   5.120   5.924  16.610  1.2670  2.1556 -0.1508
 8629TIP3    H247303   5.183   5.794  16.654 -1.7895  0.9893  1.0724
 8630TIP3   OH247304   5.242   5.929   2.552  0.2649 -0.0669  0.7405
 8630TIP3    H147305   5.228   5.872   2.628  0.1249  0.8966  1.4557
 8630TIP3    H247306   5.281   6.008   2.588 -0.0391  0.5124 -0.1648
 8631TIP3   OH247307   2.934   1.888   3.754  0.0900 -0.2721  0.3818
 8631TIP3    H147308   2.841   1.888   3.735 -0.0356  1.4812  0.8559
 8631TIP3    H247309   2.967   1.807   3.715 -1.5620 -0.7596 -0.0503
 8632TIP3   OH247310   5.508   5.025   5.226  0.2194 -0.6758 -0.4868
 8632TIP3    H147311   5.436   5.047   5.285  0.4415  1.2866 -0.8783
 8632TIP3    H247312   5.467   4.982   5.152 -0.4668 -0.2693 -0.3517
 8633TIP3   OH247313   0.264   6.027  13.632 -0.4187 -0.2512  0.3910
 8633TIP3    H147314   0.229   5.959  13.573 -1.7435 -0.1479  1.0280
 8633TIP3    H247315   0.301   6.092  13.573  2.2039 -2.1435 -0.2284
 8634TIP3   OH247316   5.077   0.319   1.591  0.1554  0.5451 -0.3481
 8634TIP3    H147317   5.141   0.248   1.601 -0.0184  0.4610  0.1784
 8634TIP3    H247318   5.128   0.399   1.608  0.3112  0.5413 -0.7719
 8635TIP3   OH247319   5.289   3.702  12.327  0.4796 -0.2669  0.1731
 8635TIP3    H147320   5.354   3.765  12.295 -0.4302 -0.6835 -2.7617
 8635TIP3    H247321   5.331   3.617  12.316 -0.5214 -0.5517 -1.9042
 8636TIP3   OH247322   1.836   2.154  11.418  0.0239  0.7619 -0.2500
 8636TIP3    H147323   1.789   2.168  11.336  1.0433  0.1699 -0.9553
 8636TIP3    H247324   1.817   2.233  11.470 -1.1150  0.8724 -0.8012
 8637TIP3   OH247325   5.536   3.276  15.666  0.6355  0.0315  0.0202
 8637TIP3    H147326   5.471   3.279  15.595  1.0349  0.2550 -0.3403
 8637TIP3    H247327   5.484   3.258  15.745  0.2501 -0.7142 -0.3989
 8638TIP3   OH247328   0.621   5.899   3.787  0.2828  0.5674  0.3523
 8638TIP3    H147329   0.599   5.924   3.877  1.6263 -1.1914  1.2091
 8638TIP3    H247330   0.650   5.809   3.793  1.1692  0.6563 -1.7473
 8639TIP3   OH247331   3.076   2.852  11.485  0.3350  0.5293  0.1243
 8639TIP3    H147332   3.044   2.888  11.402  0.1449  2.9811  1.1585
 8639TIP3    H247333   3.167   2.880  11.490 -0.1728  2.1576  1.5353
 8640TIP3   OH247334   2.649   4.421   2.077 -0.2461  0.1150  0.5352
 8640TIP3    H147335   2.734   4.380   2.096 -0.4369 -1.7599 -2.1480
 8640TIP3    H247336   2.592   4.349   2.052 -2.0580  1.5540  0.2878
 8641TIP3   OH247337   2.123   5.382   3.493 -0.3252 -0.0012 -0.9310
 8641TIP3    H147338   2.199   5.437   3.473 -0.3334 -0.0402 -1.0676
 8641TIP3    H247339   2.139   5.301   3.446  0.8186 -1.0246  1.0856
 8642TIP3   OH247340   3.073   0.794   0.367  0.2734  0.4963  0.3175
 8642TIP3    H147341   3.125   0.873   0.384  0.3276  0.9631 -1.7933
 8642TIP3    H247342   3.078   0.781   0.272  1.3351 -2.7802  0.6775
 8643TIP3   OH247343   0.333   6.586   4.519  0.6631 -0.2363 -0.1593
 8643TIP3    H147344   0.341   6.515   4.583 -0.8453 -0.2614  0.0367
 8643TIP3    H247345   0.388   6.558   4.445  0.6431 -1.2764  0.1987
 8644TIP3   OH247346   0.511   5.159   2.131  0.2040  0.3125 -0.7640
 8644TIP3    H147347   0.473   5.191   2.049 -0.9012 -2.4401 -1.4367
 8644TIP3    H247348   0.495   5.229   2.194 -2.1163  1.0827 -2.0810
 8645TIP3   OH247349   4.154   3.913   5.435  0.3979  0.8264  0.1815
 8645TIP3    H147350   4.072   3.962   5.433 -1.7995 -2.5429 -0.2113
 8645TIP3    H247351   4.176   3.906   5.528 -1.6108 -0.9243  0.5817
 8646TIP3   OH247352   5.140   1.966   0.948 -0.0034  0.2230 -0.8226
 8646TIP3    H147353   5.078   1.959   1.021  0.9917  1.5926  0.2120
 8646TIP3    H247354   5.092   2.012   0.880 -1.0841 -1.4425 -1.2382
 8647TIP3   OH247355   0.026   0.334   1.467 -0.0354  0.1980  0.1190
 8647TIP3    H147356   0.100   0.319   1.526 -0.3859  1.5584  0.9573
 8647TIP3    H247357  -0.024   0.253   1.469  0.9428 -0.4131  0.2497
 8648TIP3   OH247358   0.152   2.922   5.348  0.0385 -0.5490  0.2131
 8648TIP3    H147359   0.115   3.007   5.373  1.9256 -0.2737  2.3681
 8648TIP3    H247360   0.099   2.859   5.396  0.3497 -0.3655  0.8171
 8649TIP3   OH247361   4.224   2.906   5.716  0.0989 -0.0106  0.0091
 8649TIP3    H147362   4.316   2.878   5.724  0.6128  1.6004  0.1800
 8649TIP3    H247363   4.217   2.980   5.777 -1.3443 -0.1566  0.0344
 8650TIP3   OH247364   6.421   6.022  11.864 -0.1761  0.5050 -0.6380
 8650TIP3    H147365   6.348   5.968  11.892 -0.8435  1.5276 -0.3318
 8650TIP3    H247366   6.458   5.976  11.789  0.7153 -1.5196  0.9661
 8651TIP3   OH247367   0.016   0.784   0.571  0.1381  0.7246 -1.0678
 8651TIP3    H147368   0.074   0.763   0.498 -0.8737 -0.6337 -1.5209
 8651TIP3    H247369   0.073   0.783   0.648  0.8749  0.2994 -1.6039
 8652TIP3   OH247370   2.051   3.180   3.949 -0.0638  0.0642 -0.0178
 8652TIP3    H147371   2.087   3.092   3.935  0.6351  0.2581  0.5004
 8652TIP3    H247372   2.000   3.197   3.870  0.7735 -0.3344 -0.6698
 8653TIP3   OH247373   4.352   3.547   5.537  0.7944 -0.0249 -0.3347
 8653TIP3    H147374   4.373   3.588   5.621 -0.3251  0.2677 -0.1880
 8653TIP3    H247375   4.299   3.470   5.560 -1.8051  1.4960 -0.8480
 8654TIP3   OH247376   1.769   6.291   3.552  0.0209 -0.5122  0.1661
 8654TIP3    H147377   1.724   6.349   3.613 -1.9264  1.8143 -3.2133
 8654TIP3    H247378   1.842   6.342   3.519 -0.1220 -0.9601 -0.8810
 8655TIP3   OH247379   5.759   2.447   0.924  0.0075  0.3737  0.2569
 8655TIP3    H147380   5.667   2.434   0.946 -0.0189 -0.3530 -0.2550
 8655TIP3    H247381   5.777   2.383   0.855  0.9888  0.2785  0.5822
 8656TIP3   OH247382   1.037   1.490  13.685  0.3086  0.1954 -0.4279
 8656TIP3    H147383   1.116   1.437  13.673  0.9160  1.0201 -0.1320
 8656TIP3    H247384   0.986   1.441  13.750  0.8978  0.0075 -0.0937
 8657TIP3   OH247385   0.546   6.096   0.307  0.3611 -0.2672 -0.7693
 8657TIP3    H147386   0.503   6.105   0.222  0.6097 -1.1801 -1.0013
 8657TIP3    H247387   0.475   6.076   0.368  0.1549  0.5892 -0.7129
 8658TIP3   OH247388   6.098   6.733  17.007 -0.3474 -0.7205 -0.0494
 8658TIP3    H147389   6.124   6.641  17.007 -0.8474 -0.8811  1.0652
 8658TIP3    H247390   6.020   6.735  17.064 -1.4210  0.0964 -1.4829
 8659TIP3   OH247391   0.753   2.100   0.071  0.4984 -0.2511 -0.1380
 8659TIP3    H147392   0.825   2.044   0.044 -0.0623 -0.8764 -0.3832
 8659TIP3    H247393   0.780   2.189   0.047  1.3770 -0.4254  0.2085
 8660TIP3   OH247394   3.732   1.747   1.433 -0.0395 -0.3522  0.2934
 8660TIP3    H147395   3.710   1.781   1.347 -0.7436 -0.8251  0.2836
 8660TIP3    H247396   3.719   1.653   1.427  0.6982 -0.4888  0.6823
 8661TIP3   OH247397   3.425   2.529  15.410 -0.1821 -0.2948 -0.4627
 8661TIP3    H147398   3.382   2.488  15.485 -0.8478 -2.0620 -1.7295
 8661TIP3    H247399   3.511   2.487  15.406 -0.7211 -1.3584 -1.5401
 8662TIP3   OH247400   0.212   6.594  16.970 -0.6274  0.5327 -0.3940
 8662TIP3    H147401   0.210   6.498  16.972  3.6743  0.1679  3.5492
 8662TIP3    H247402   0.263   6.616  16.892 -3.5693 -0.0443 -2.6371
 8663TIP3   OH247403   5.446   4.952   5.663 -0.5495  0.2653  0.1958
 8663TIP3    H147404   5.466   4.862   5.639  0.7474  0.5944 -0.0422
 8663TIP3    H247405   5.515   4.977   5.724 -1.1712  0.9491  0.6436
 8664TIP3   OH247406   4.721   1.852   1.056  0.0511 -0.7359  0.4711
 8664TIP3    H147407   4.729   1.898   0.973 -0.0944 -0.0146  0.8470
 8664TIP3    H247408   4.809   1.853   1.093  0.4453 -2.3577 -0.3265
 8665TIP3   OH247409   3.539   3.779  11.901  0.2372  0.3258 -0.1861
 8665TIP3    H147410   3.607   3.761  11.836  0.9996  0.7617  0.4762
 8665TIP3    H247411   3.546   3.873  11.919 -2.0909  0.9145 -1.8182
 8666TIP3   OH247412   5.558   6.129  12.736 -0.5006  0.4302 -0.2734
 8666TIP3    H147413   5.554   6.189  12.661 -2.0538  0.3779 -0.2698
 8666TIP3    H247414   5.474   6.083  12.734 -0.9733  1.0437  1.9959
 8667TIP3   OH247415   5.946   6.169  13.917  0.4891  0.0467 -0.5543
 8667TIP3    H147416   5.971   6.260  13.936  0.0487  0.5202 -2.0883
 8667TIP3    H247417   6.028   6.125  13.897  0.5179  0.6574 -1.8844
 8668TIP3   OH247418   0.177   2.204   0.625  0.5281 -0.6482  0.5661
 8668TIP3    H147419   0.092   2.222   0.666  1.0623  1.3170  0.8846
 8668TIP3    H247420   0.210   2.127   0.672 -0.9548 -1.3285  0.5704
 8669TIP3   OH247421   0.507   5.956   4.064  0.0728 -0.4329  0.2373
 8669TIP3    H147422   0.439   5.893   4.088 -0.5992  0.0758 -0.2765
 8669TIP3    H247423   0.487   6.033   4.117  1.0941 -0.7550  1.1152
 8670TIP3   OH247424   6.613   6.769  11.010 -0.5026 -0.4058  0.3947
 8670TIP3    H147425   6.521   6.756  10.987 -0.4066 -1.7568  0.6561
 8670TIP3    H247426   6.650   6.816  10.936 -1.7216  1.5843  0.9591
 8671TIP3   OH247427   6.725   2.279   4.014  0.4479 -0.2580 -0.4131
 8671TIP3    H147428   6.636   2.304   3.989  0.9608  2.6095  0.2897
 8671TIP3    H247429   6.769   2.262   3.931 -0.9353 -2.8439 -0.7416
 8672TIP3   OH247430   4.080   3.880   2.663  0.9595  0.0758  0.2816
 8672TIP3    H147431   4.095   3.789   2.639  1.7463 -0.5342  2.7977
 8672TIP3    H247432   4.162   3.925   2.642  1.5729 -0.4083  1.5604
 8673TIP3   OH247433   3.714   0.569   6.263  0.2304  0.7046 -0.4575
 8673TIP3    H147434   3.694   0.614   6.344 -0.4492 -0.6915  0.1826
 8673TIP3    H247435   3.681   0.627   6.194 -1.0275  0.9787  0.3508
 8674TIP3   OH247436   3.025   1.790  15.418 -0.0775 -0.2543  0.0367
 8674TIP3    H147437   2.975   1.863  15.454 -0.3611 -0.3279 -0.2090
 8674TIP3    H247438   2.960   1.733  15.378 -0.2300 -2.1274  2.6879
 8675TIP3   OH247439   4.883   3.893   2.789  0.7652 -0.3140 -0.2916
 8675TIP3    H147440   4.919   3.979   2.809  1.1101 -0.1626 -1.4699
 8675TIP3    H247441   4.945   3.855   2.726  0.1003 -1.0095 -0.5443
 8676TIP3   OH247442   3.432   1.706  13.370 -0.3345  0.1246  0.3307
 8676TIP3    H147443   3.504   1.703  13.307 -0.4402 -0.2527  0.2305
 8676TIP3    H247444   3.355   1.680  13.321 -0.4198 -0.1652  0.6133
 8677TIP3   OH247445   3.206   4.674   5.295 -0.4894 -0.0853  0.1510
 8677TIP3    H147446   3.279   4.664   5.357  0.4135  0.1222 -0.8497
 8677TIP3    H247447   3.128   4.680   5.351  0.2850  0.0231  1.2634
 8678TIP3   OH247448   5.640   2.954  13.501 -0.1124  0.8014 -0.6180
 8678TIP3    H147449   5.554   2.992  13.520  0.2967  1.0116  0.9679
 8678TIP3    H247450   5.632   2.921  13.411 -2.2407 -0.2522 -0.1169
 8679TIP3   OH247451   1.283   2.166   0.016 -0.4321 -0.0441  0.0379
 8679TIP3    H147452   1.378   2.164   0.007 -0.3520  1.7113  0.0034
 8679TIP3    H247453   1.253   2.084  -0.022  1.0310 -0.3509 -0.5171
 8680TIP3   OH247454   1.351   2.592  12.337  0.5890 -0.4829 -0.3551
 8680TIP3    H147455   1.338   2.569  12.429 -0.6379  1.9715  0.1689
 8680TIP3    H247456   1.266   2.572  12.296  0.3383  0.6518 -0.4117
 8681TIP3   OH247457   6.462   0.710   2.580 -0.2351 -0.5126  0.3163
 8681TIP3    H147458   6.546   0.687   2.619 -0.5075 -0.1535  1.1368
 8681TIP3    H247459   6.481   0.784   2.523  0.2086 -1.1918 -0.4497
 8682TIP3   OH247460   6.728   2.522  13.898  0.0655  1.0821  0.2832
 8682TIP3    H147461   6.823   2.522  13.894  0.0656  1.0326  0.2821
 8682TIP3    H247462   6.700   2.527  13.806  0.0684  0.7006  0.2589
 8683TIP3   OH247463   0.791   2.390  17.356 -0.4185  0.3825  0.2848
 8683TIP3    H147464   0.871   2.421  17.314 -0.7140  0.2416 -0.4057
 8683TIP3    H247465   0.766   2.459  17.417  0.2501  0.4046  0.5405
 8684TIP3   OH247466   3.018   0.249   3.675 -0.1218  0.1604  0.3703
 8684TIP3    H147467   3.006   0.303   3.753  1.3243  1.2716 -0.1563
 8684TIP3    H247468   2.934   0.204   3.665 -0.5933  0.5634  2.1211
 8685TIP3   OH247469   2.080   3.862  12.954 -0.2969 -0.2022 -0.2585
 8685TIP3    H147470   2.135   3.839  12.879  0.0637 -0.0115 -0.0575
 8685TIP3    H247471   2.135   3.919  13.007 -0.2936 -0.8958  0.5105
 8686TIP3   OH247472   5.514   4.744  13.234 -0.0345  0.2665 -0.2022
 8686TIP3    H147473   5.596   4.721  13.278 -1.1375 -0.9024  1.3391
 8686TIP3    H247474   5.481   4.661  13.201 -0.1605  0.8683 -1.6612
 8687TIP3   OH247475   5.760   0.702   3.459  0.1391  0.4064 -0.2388
 8687TIP3    H147476   5.829   0.659   3.511  0.4412 -1.1945 -1.8752
 8687TIP3    H247477   5.705   0.745   3.524  0.4670 -1.5515  1.4459
 8688TIP3   OH247478   0.433   4.187   3.477 -0.2410  0.5750 -1.1535
 8688TIP3    H147479   0.445   4.147   3.563 -0.5178 -0.0758 -1.4086
 8688TIP3    H247480   0.440   4.281   3.492  1.0710  0.4042 -0.6470
 8689TIP3   OH247481   6.126   4.160  16.665 -0.2174  0.1109 -0.1038
 8689TIP3    H147482   6.076   4.095  16.715  2.2198 -1.6649  0.1893
 8689TIP3    H247483   6.109   4.138  16.574  1.5759 -1.8860 -0.0282
 8690TIP3   OH247484   4.713   5.269   1.554  0.7526 -0.1248 -0.2057
 8690TIP3    H147485   4.809   5.270   1.559  0.7464  0.4388 -0.1258
 8690TIP3    H247486   4.694   5.277   1.460  0.7864 -1.0983 -0.3041
 8691TIP3   OH247487   3.312   4.275   4.585  0.2016 -0.2505  1.2414
 8691TIP3    H147488   3.235   4.245   4.633 -0.8682  0.0024 -0.2287
 8691TIP3    H247489   3.355   4.195   4.556 -1.7196 -0.5235 -1.2365
 8692TIP3   OH247490   4.081   1.358   0.836  0.5781 -0.5929  0.4319
 8692TIP3    H147491   4.019   1.318   0.774  0.2495  0.5630 -0.0287
 8692TIP3    H247492   4.162   1.368   0.785 -0.1025  1.6463 -0.3329
 8693TIP3   OH247493   1.808   0.866  15.218  0.0079 -0.5880  0.0390
 8693TIP3    H147494   1.852   0.869  15.303 -0.8751 -0.5658  0.5037
 8693TIP3    H247495   1.821   0.777  15.187 -2.0104 -1.4569  1.4861
 8694TIP3   OH247496   4.387   3.901   3.698 -0.2915 -0.0618 -0.1808
 8694TIP3    H147497   4.374   3.851   3.779 -0.2772 -0.1425 -0.2277
 8694TIP3    H247498   4.339   3.851   3.632 -0.2579 -0.0253 -0.2326
 8695TIP3   OH247499   0.498   2.161  12.941 -0.2598  0.7399  0.6909
 8695TIP3    H147500   0.522   2.081  12.895 -0.5510  0.2132  1.4400
 8695TIP3    H247501   0.581   2.208  12.951  0.0580  0.1093  1.0518
 8696TIP3   OH247502   3.328   5.236  13.244  0.1354  0.4105  0.4590
 8696TIP3    H147503   3.416   5.245  13.282  1.5957  0.4378 -2.5995
 8696TIP3    H247504   3.313   5.141  13.243  0.2929  0.3812  0.6675
 8697TIP3   OH247505   1.700   0.197  13.850  0.1065  0.0395  0.2806
 8697TIP3    H147506   1.624   0.200  13.909  0.5394 -0.5670  0.8820
 8697TIP3    H247507   1.662   0.210  13.763 -0.9533 -1.9224  0.3787
 8698TIP3   OH247508   4.126   1.426   1.898  0.3757 -0.2269 -0.1703
 8698TIP3    H147509   4.197   1.389   1.949  0.1212 -2.1789 -1.1471
 8698TIP3    H247510   4.139   1.521   1.904  0.4910 -0.3600  3.2143
 8699TIP3   OH247511   0.215   2.183   2.312 -0.8010 -0.9024 -0.3031
 8699TIP3    H147512   0.307   2.162   2.328 -0.7454 -0.4684 -0.0467
 8699TIP3    H247513   0.180   2.104   2.270 -0.6751 -1.6217  0.9081
 8700TIP3   OH247514   0.592   2.983   5.975  0.5784  0.4706  0.0524
 8700TIP3    H147515   0.532   3.017   5.910 -2.4170  2.0994  3.3059
 8700TIP3    H247516   0.570   2.891   5.984  0.5140  0.4122 -0.6674
 8701TIP3   OH247517   3.285   6.377  14.894  0.0890  0.1346  0.0401
 8701TIP3    H147518   3.317   6.315  14.827  2.2054  2.6393 -1.4654
 8701TIP3    H247519   3.190   6.365  14.894  0.3798 -3.0074 -0.2107
 8702TIP3   OH247520   6.772   2.290   2.548 -0.6845  0.3536  0.3062
 8702TIP3    H147521   6.837   2.269   2.481 -0.7458  1.0100  0.0332
 8702TIP3    H247522   6.688   2.269   2.508 -0.6269 -0.9901  0.8468
 8703TIP3   OH247523   6.027   5.446   2.668 -0.0758 -0.0441 -0.4488
 8703TIP3    H147524   5.962   5.499   2.714  1.9033  4.3053 -2.0824
 8703TIP3    H247525   5.975   5.391   2.608 -2.3027  1.0152  0.3803
 8704TIP3   OH247526   6.552   4.381   3.185 -0.3728  0.5015 -0.3138
 8704TIP3    H147527   6.500   4.428   3.250  0.4037  2.3050 -0.9162
 8704TIP3    H247528   6.629   4.436   3.172  1.7853 -2.0877  0.5843
 8705TIP3   OH247529   5.046   5.673  11.007 -0.0587 -0.2546  0.5754
 8705TIP3    H147530   5.138   5.695  10.994  0.3037 -1.6532  0.5122
 8705TIP3    H247531   5.016   5.642  10.922 -1.3395  2.4868 -0.0678
 8706TIP3   OH247532   1.165   1.718   5.421  0.2141 -0.4279  0.4314
 8706TIP3    H147533   1.132   1.632   5.397 -0.2517 -0.4714  1.2172
 8706TIP3    H247534   1.257   1.703   5.444 -0.0994 -0.8701  1.4178
 8707TIP3   OH247535   5.315   6.263  14.807 -0.2585 -0.2715 -0.5657
 8707TIP3    H147536   5.326   6.228  14.719 -2.3352 -0.0298 -0.9550
 8707TIP3    H247537   5.231   6.308  14.806 -1.2999 -1.8720  2.0408
 8708TIP3   OH247538   5.471   2.234  16.025  0.3471  0.9263 -0.2441
 8708TIP3    H147539   5.388   2.217  15.980 -0.8065  1.4138  1.6074
 8708TIP3    H247540   5.511   2.148  16.035 -1.6426  0.1644  1.9632
 8709TIP3   OH247541   5.736   3.718  12.497  0.2050  0.3756 -0.7113
 8709TIP3    H147542   5.772   3.634  12.469 -0.8474 -1.1178  2.0587
 8709TIP3    H247543   5.808   3.780  12.484  2.2403 -1.6256  0.3087
 8710TIP3   OH247544   2.304   2.369  13.261  0.0545 -0.2962  1.0512
 8710TIP3    H147545   2.340   2.345  13.346 -0.3901 -2.0084  0.7971
 8710TIP3    H247546   2.354   2.316  13.198  0.6647  1.2413  0.1772
 8711TIP3   OH247547   3.976   2.780  11.371 -0.5777  0.1053  0.3070
 8711TIP3    H147548   4.022   2.781  11.287 -2.2822  1.6213 -0.6735
 8711TIP3    H247549   4.039   2.818  11.432 -0.1028  1.1093 -0.7667
 8712TIP3   OH247550   5.811   1.908  12.458 -0.3956  0.0203 -0.2014
 8712TIP3    H147551   5.799   1.852  12.381 -2.5658  0.8119 -0.5186
 8712TIP3    H247552   5.884   1.966  12.435 -1.0700  0.3109 -1.7355
 8713TIP3   OH247553   2.692   5.641  15.962 -0.4322 -0.4842  0.1430
 8713TIP3    H147554   2.707   5.735  15.953  1.5504 -0.8896 -1.8439
 8713TIP3    H247555   2.618   5.622  15.905  0.6386 -0.3923 -1.3508
 8714TIP3   OH247556   4.945   6.093  10.811 -0.0798  0.1680 -0.7657
 8714TIP3    H147557   5.034   6.110  10.844  0.4301  1.7240 -2.7364
 8714TIP3    H247558   4.954   6.016  10.756 -0.6236 -1.4817  1.3078
 8715TIP3   OH247559   6.352   5.367   3.000  0.3270 -0.2730  0.4379
 8715TIP3    H147560   6.425   5.402   2.949 -0.3916  0.9440  0.2344
 8715TIP3    H247561   6.394   5.310   3.065  1.2795 -1.6146 -1.2799
 8716TIP3   OH247562   0.285   4.830  15.555 -0.4561  0.1157 -0.3803
 8716TIP3    H147563   0.200   4.806  15.594 -0.2327  0.5358  0.3751
 8716TIP3    H247564   0.271   4.917  15.519 -0.8644 -0.5349 -1.9113
 8717TIP3   OH247565   3.104   3.189  15.593 -0.0599 -0.2449 -0.1991
 8717TIP3    H147566   3.068   3.106  15.624 -0.0343  0.1138  0.8442
 8717TIP3    H247567   3.193   3.168  15.564  0.1802 -0.4689  0.6789
 8718TIP3   OH247568   6.050   4.684   5.081 -0.1276  0.9422 -0.0681
 8718TIP3    H147569   6.013   4.737   5.010  0.4106  0.8215 -0.4427
 8718TIP3    H247570   6.141   4.672   5.057  0.0061  0.7084  0.5371
 8719TIP3   OH247571   3.703   5.218   3.047 -0.0545  0.0933 -0.5838
 8719TIP3    H147572   3.709   5.167   3.127  1.2801 -0.8976 -1.2631
 8719TIP3    H247573   3.723   5.308   3.074  2.6626 -0.5717 -0.0956
 8720TIP3   OH247574   0.872   1.726  13.333 -0.5646 -0.1841  0.3162
 8720TIP3    H147575   0.838   1.639  13.308 -1.7873  0.1320  0.7734
 8720TIP3    H247576   0.819   1.750  13.409 -0.1726  0.9364  0.2407
 8721TIP3   OH247577   5.483   0.895   5.036  0.3183  0.6158  0.3754
 8721TIP3    H147578   5.578   0.895   5.023  0.3880 -0.2273  0.8399
 8721TIP3    H247579   5.472   0.903   5.131 -0.0998  1.4072  0.2742
 8722TIP3   OH247580   4.028   2.335  16.220  1.2278  0.4215 -0.2305
 8722TIP3    H147581   4.099   2.400  16.219  1.8709 -0.2164 -2.8318
 8722TIP3    H247582   3.954   2.378  16.178  0.7031  0.3806  0.6140
 8723TIP3   OH247583   4.354   3.957   2.699  0.8018  0.3852  0.8170
 8723TIP3    H147584   4.446   3.941   2.719  0.6408  0.6181  1.7725
 8723TIP3    H247585   4.352   4.047   2.667  0.9532  0.2562  0.4358
 8724TIP3   OH247586   2.957   3.302  12.805 -0.5766  0.5133 -0.4348
 8724TIP3    H147587   3.022   3.366  12.774  1.2630 -0.6618  0.7555
 8724TIP3    H247588   2.876   3.351  12.811  0.9868  3.1112  1.6114
 8725TIP3   OH247589   5.383   6.367  12.052 -0.7502 -0.0690 -0.9319
 8725TIP3    H147590   5.355   6.366  12.143  1.0587 -0.6158 -0.3427
 8725TIP3    H247591   5.303   6.383  12.002 -1.4324  2.7178  0.8656
 8726TIP3   OH247592   3.728   1.074   2.781 -0.0608 -0.0966 -0.0351
 8726TIP3    H147593   3.794   1.005   2.774  0.4629  0.4769 -0.9852
 8726TIP3    H247594   3.760   1.132   2.851  1.4550  1.1934 -1.7050
 8727TIP3   OH247595   6.217   1.994   1.773  0.0062  0.4058 -0.0104
 8727TIP3    H147596   6.248   2.064   1.716 -1.0619 -0.2549 -1.4785
 8727TIP3    H247597   6.127   2.019   1.794 -0.9286 -1.2124 -1.8125
 8728TIP3   OH247598   5.314   5.416   1.235 -0.8322 -0.5168 -0.3586
 8728TIP3    H147599   5.263   5.490   1.269  0.4769  0.2472 -0.0088
 8728TIP3    H247600   5.364   5.452   1.162 -1.3783 -1.4611 -1.2307
 8729TIP3   OH247601   5.505   0.386  14.277 -0.0037 -0.8019  0.1245
 8729TIP3    H147602   5.472   0.438  14.350 -0.3374 -0.0632 -0.5459
 8729TIP3    H247603   5.511   0.297  14.312 -2.3327 -0.9052  0.3959
 8730TIP3   OH247604   5.782   0.869   0.706 -0.3783  0.2046 -0.4615
 8730TIP3    H147605   5.866   0.881   0.661 -1.0522 -0.7862 -2.0803
 8730TIP3    H247606   5.755   0.958   0.729  0.5353  0.6471 -1.0093
 8731TIP3   OH247607   2.243   4.997  15.490  0.4748  0.1884  0.0643
 8731TIP3    H147608   2.276   5.077  15.449  1.1357 -0.0059  0.2066
 8731TIP3    H247609   2.243   5.016  15.584 -0.7028  0.5089  0.0200
 8732TIP3   OH247610   6.739   5.983   0.629  0.1634  0.4193 -0.3890
 8732TIP3    H147611   6.711   6.022   0.712  0.1618 -0.6030  0.0930
 8732TIP3    H247612   6.679   6.021   0.564  0.2494  1.3231  0.0431
 8733TIP3   OH247613   3.273   5.403   4.962  0.2194 -1.0248 -0.3443
 8733TIP3    H147614   3.319   5.468   5.016 -1.3957 -0.3692  0.2999
 8733TIP3    H247615   3.326   5.324   4.970  2.3432  0.1918 -1.2593
 8734TIP3   OH247616   5.466   0.554   6.037 -0.3133 -0.1633 -0.3966
 8734TIP3    H147617   5.489   0.466   6.006  1.1656 -0.7379  2.0818
 8734TIP3    H247618   5.378   0.544   6.073  0.0544 -0.7678  0.3468
 8735TIP3   OH247619   5.697   6.260   2.006 -0.4973 -0.7948  0.3330
 8735TIP3    H147620   5.646   6.327   2.052  1.1991 -0.0641  1.2064
 8735TIP3    H247621   5.684   6.181   2.060  0.2861 -0.3012  1.2814
 8736TIP3   OH247622   5.289   5.335   2.937  0.3069  0.4005  0.4775
 8736TIP3    H147623   5.256   5.420   2.965 -0.1777 -0.2472  2.0044
 8736TIP3    H247624   5.242   5.272   2.992  1.5546 -0.7647  0.2661
 8737TIP3   OH247625   4.210   4.068  16.868 -0.1306 -0.7859  0.4592
 8737TIP3    H147626   4.158   4.129  16.816  1.0964 -1.0676 -1.1613
 8737TIP3    H247627   4.184   3.982  16.836  0.3143 -0.9807  0.6200
 8738TIP3   OH247628   6.526   2.017   6.739  0.1433  0.1515  0.2282
 8738TIP3    H147629   6.579   2.093   6.764 -1.4588  0.9951  1.2336
 8738TIP3    H247630   6.564   1.988   6.656 -0.0388  2.9636 -0.9734
 8739TIP3   OH247631   0.541   5.975  11.970 -0.3780 -0.2824 -0.1495
 8739TIP3    H147632   0.488   5.992  12.048  2.0841  2.9438  1.0922
 8739TIP3    H247633   0.508   6.037  11.905  0.4179  0.2183 -0.0899
 8740TIP3   OH247634   4.772   4.037   5.469  0.3930  0.5652  0.1925
 8740TIP3    H147635   4.699   3.985   5.503 -0.0354  0.3628 -0.9935
 8740TIP3    H247636   4.822   4.061   5.547 -0.8001  0.5005  1.0094
 8741TIP3   OH247637   0.046   6.613   4.426  0.8348  0.1329  0.3080
 8741TIP3    H147638   0.125   6.559   4.424  1.9734  1.7288  0.0309
 8741TIP3    H247639  -0.008   6.579   4.355  1.2477 -1.0095  0.5263
 8742TIP3   OH247640   3.382   6.733   3.510 -0.2983 -0.0216 -0.3458
 8742TIP3    H147641   3.315   6.791   3.474 -1.3553 -0.9892  0.0152
 8742TIP3    H247642   3.384   6.659   3.450  0.1617 -0.1958 -0.1168
 8743TIP3   OH247643   1.067   1.727   5.979  0.0944 -0.1802  0.0500
 8743TIP3    H147644   1.113   1.777   5.912  0.9907 -0.4490  0.4536
 8743TIP3    H247645   1.053   1.641   5.940 -0.0544 -0.1067 -0.0618
 8744TIP3   OH247646   2.904   0.506   0.871 -0.0667 -0.2397 -0.3608
 8744TIP3    H147647   2.870   0.447   0.938 -0.8933  0.6869  0.0749
 8744TIP3    H247648   2.838   0.505   0.803 -0.3436  0.5597 -0.1149
 8745TIP3   OH247649   2.216   4.845   3.161  0.2615 -0.5173  0.0370
 8745TIP3    H147650   2.272   4.771   3.187  0.8159 -0.4034 -0.8004
 8745TIP3    H247651   2.271   4.897   3.103 -0.2855  0.3162  0.2620
 8746TIP3   OH247652   4.183   1.871   5.212 -0.1772 -0.4777 -0.3831
 8746TIP3    H147653   4.234   1.796   5.242  1.5227  0.9399  0.4554
 8746TIP3    H247654   4.145   1.843   5.129 -3.5857 -3.9550  1.9818
 8747TIP3   OH247655   5.892   3.084  12.216 -0.4500  0.4372  0.0064
 8747TIP3    H147656   5.870   3.004  12.168  0.0659  0.5334 -0.4030
 8747TIP3    H247657   5.942   3.054  12.291 -1.5372  0.2573  0.6817
 8748TIP3   OH247658   6.415   3.308  16.709  0.2019  0.2437  0.0718
 8748TIP3    H147659   6.510   3.299  16.700  0.3460  1.3885  0.3006
 8748TIP3    H247660   6.394   3.261  16.789  0.5898  0.0654  0.0739
 8749TIP3   OH247661   0.222   0.239   4.611  0.3470  0.0294 -0.2234
 8749TIP3    H147662   0.196   0.152   4.641 -0.6976  0.5092  0.3410
 8749TIP3    H247663   0.194   0.243   4.520  1.2117 -0.5352 -0.5199
 8750TIP3   OH247664   0.257   5.794  11.737  0.1054 -0.4943  0.0573
 8750TIP3    H147665   0.220   5.765  11.820  3.5041 -1.8377  1.2776
 8750TIP3    H247666   0.320   5.861  11.761 -0.8031  1.1319 -1.8244
 8751TIP3   OH247667   6.087   4.521   4.547  0.4084 -0.1754  0.0494
 8751TIP3    H147668   6.040   4.448   4.508 -0.8865 -0.0844  1.3523
 8751TIP3    H247669   6.176   4.514   4.514  0.0143 -1.6593 -0.7387
 8752TIP3   OH247670   5.823   5.760   5.028 -0.4582  0.1593 -0.5701
 8752TIP3    H147671   5.860   5.846   5.048 -1.6045  0.6874 -0.6254
 8752TIP3    H247672   5.822   5.756   4.933 -0.2027 -0.0137 -0.5669
 8753TIP3   OH247673   2.901   1.840  14.956  0.2270 -0.1968 -0.0803
 8753TIP3    H147674   2.928   1.750  14.979 -0.6680 -0.9334 -1.7414
 8753TIP3    H247675   2.920   1.891  15.035 -0.1533 -2.0304  1.2753
 8754TIP3   OH247676   4.715   6.318   5.339 -0.1474  0.0871  0.3513
 8754TIP3    H147677   4.764   6.237   5.324 -1.8048 -0.8047 -0.4691
 8754TIP3    H247678   4.757   6.382   5.280  1.6685  0.0917  1.5642
 8755TIP3   OH247679   1.114   1.929   0.539 -0.6246 -0.0917  0.0338
 8755TIP3    H147680   1.077   1.881   0.464 -0.1149  1.7111 -1.4523
 8755TIP3    H247681   1.182   1.871   0.573 -2.2618 -1.8613  0.4905
 8756TIP3   OH247682   1.055   6.056  13.029  0.5217 -0.2002  0.1076
 8756TIP3    H147683   0.991   6.118  13.065 -0.4784 -1.1689  0.0648
 8756TIP3    H247684   1.138   6.081  13.070  0.3641  1.7547 -0.6290
 8757TIP3   OH247685   3.052   4.864  12.810 -0.5112  0.5306 -0.6217
 8757TIP3    H147686   3.143   4.854  12.838 -0.6721  0.2863 -0.1851
 8757TIP3    H247687   3.034   4.957  12.821 -0.4338  0.5134 -0.3387
 8758TIP3   OH247688   2.474   1.700   2.003 -0.8019 -0.1623  0.4622
 8758TIP3    H147689   2.564   1.674   1.981 -1.2550 -1.5155  0.1023
 8758TIP3    H247690   2.459   1.780   1.952 -0.1620 -0.5273 -0.3238
 8759TIP3   OH247691   1.072   0.647   0.966  0.5207  0.3758  0.3871
 8759TIP3    H147692   1.043   0.573   0.911  1.5112  1.0595 -1.0941
 8759TIP3    H247693   1.001   0.657   1.030 -0.0756 -1.2593  0.0446
 8760TIP3   OH247694   4.806   0.183  13.140  0.3280  0.8463 -0.3128
 8760TIP3    H147695   4.714   0.171  13.117  0.0814  0.9767  0.5610
 8760TIP3    H247696   4.810   0.161  13.233  1.5204 -0.8723 -0.7335
 8761TIP3   OH247697   4.119   2.059   0.036 -0.0373 -0.5068  0.2366
 8761TIP3    H147698   4.202   2.089   0.073  0.8165 -1.3092 -0.9191
 8761TIP3    H247699   4.132   2.065  -0.059 -0.4232 -2.7829 -0.0249
 8762TIP3   OH247700   2.131   1.238  17.162 -0.1460  0.6207  0.1090
 8762TIP3    H147701   2.146   1.238  17.256  1.2811  0.3324 -0.1001
 8762TIP3    H247702   2.184   1.165  17.129 -1.0059  0.4113 -0.8676
 8763TIP3   OH247703   3.998   1.229   4.174 -0.2099 -0.1198 -0.2572
 8763TIP3    H147704   3.991   1.284   4.252 -0.4018 -1.6160  0.8117
 8763TIP3    H247705   3.908   1.208   4.151 -0.1110 -0.9225  0.0463
 8764TIP3   OH247706   2.498   3.384   2.812 -0.4840 -0.4559 -0.2051
 8764TIP3    H147707   2.544   3.333   2.878 -2.4064  0.2747  1.8029
 8764TIP3    H247708   2.466   3.461   2.858 -1.5337  0.3197 -2.0914
 8765TIP3   OH247709   0.514   0.738   6.327  0.2999 -0.2905  0.1047
 8765TIP3    H147710   0.567   0.818   6.322 -0.5566  0.3092  0.3204
 8765TIP3    H247711   0.424   0.769   6.326 -0.0541 -1.1716  1.4192
 8766TIP3   OH247712   1.025   3.951   5.783  0.5892  0.0561  0.4303
 8766TIP3    H147713   0.957   3.921   5.844 -0.1558 -0.4959 -0.6446
 8766TIP3    H247714   1.105   3.952   5.836 -0.3685  1.5696  1.9709
 8767TIP3   OH247715   1.896   2.704  16.693 -0.2618 -0.0774  0.0428
 8767TIP3    H147716   1.899   2.677  16.785 -2.3142  1.1926  0.5365
 8767TIP3    H247717   1.882   2.799  16.697 -2.0170 -0.2399 -1.5550
 8768TIP3   OH247718   2.437   3.728  10.601  0.5600  1.0146  0.3350
 8768TIP3    H147719   2.431   3.679  10.519 -0.9595  0.7769  0.5567
 8768TIP3    H247720   2.527   3.759  10.604  1.1464 -0.5094 -0.5384
 8769TIP3   OH247721   3.338   0.798  11.955  0.5566  0.0051 -0.3275
 8769TIP3    H147722   3.257   0.848  11.946  2.5716  3.4032 -1.1754
 8769TIP3    H247723   3.344   0.748  11.873 -1.5173 -1.8866  0.5628
 8770TIP3   OH247724   3.285   2.083  14.827 -0.1535 -0.1042 -0.4144
 8770TIP3    H147725   3.356   2.080  14.891 -3.0780 -1.1511  3.1618
 8770TIP3    H247726   3.307   2.156  14.770  3.1205  0.4083  1.2724
 8771TIP3   OH247727   3.877   4.900   0.718 -0.2183 -0.0841 -0.3832
 8771TIP3    H147728   3.967   4.933   0.726 -0.7242  1.9641 -2.2417
 8771TIP3    H247729   3.862   4.853   0.800  2.3545 -0.0276  0.2153
 8772TIP3   OH247730   1.326   4.974   2.106 -0.1302  0.0103 -0.1860
 8772TIP3    H147731   1.388   5.043   2.130  0.0104 -0.3494  0.5189
 8772TIP3    H247732   1.337   4.907   2.174 -3.1096  1.0734  1.5548
 8773TIP3   OH247733   4.428   0.650   2.582  0.2258 -0.2359  0.4094
 8773TIP3    H147734   4.406   0.696   2.501 -0.7231 -1.0899  0.1555
 8773TIP3    H247735   4.345   0.646   2.629 -0.3886 -3.8032 -0.6823
 8774TIP3   OH247736   1.668   3.926  14.457  0.4941  0.5749  0.1825
 8774TIP3    H147737   1.673   3.830  14.460  0.0700  0.3979 -2.4502
 8774TIP3    H247738   1.589   3.947  14.506  1.1588 -0.2846  1.7265
 8775TIP3   OH247739   6.105   3.819  13.896  0.1131 -0.2579  0.6247
 8775TIP3    H147740   6.152   3.867  13.965 -0.1591 -0.0672  0.6790
 8775TIP3    H247741   6.067   3.744  13.942  1.3511 -1.0879  0.3636
 8776TIP3   OH247742   0.327   1.033  16.902 -0.1696  0.2401 -0.4077
 8776TIP3    H147743   0.336   0.956  16.958  2.1062  0.3842 -0.5122
 8776TIP3    H247744   0.397   1.092  16.930  0.0366  0.9819 -2.3651
 8777TIP3   OH247745   0.058   3.364  11.179 -0.0574 -0.4495 -0.7257
 8777TIP3    H147746   0.085   3.339  11.091 -0.1871 -0.2701 -0.8157
 8777TIP3    H247747  -0.014   3.425  11.166  0.1263 -0.1803 -0.5012
 8778TIP3   OH247748   3.086   6.303   2.121 -0.0115 -0.3886 -0.6572
 8778TIP3    H147749   3.170   6.258   2.130 -0.9935 -1.9932  1.1216
 8778TIP3    H247750   3.055   6.315   2.210 -1.7503  0.0746 -1.2862
 8779TIP3   OH247751   4.928   3.369  13.954  0.1950 -0.0263  0.3879
 8779TIP3    H147752   4.840   3.340  13.979 -0.1786  1.5733  1.0510
 8779TIP3    H247753   4.917   3.461  13.930  1.2689 -0.4200 -1.8984
 8780TIP3   OH247754   3.782   3.062  11.853  0.1523  1.1128  0.5428
 8780TIP3    H147755   3.745   3.065  11.941 -0.5926 -0.0305  0.2914
 8780TIP3    H247756   3.833   3.143  11.845  0.6899  0.9768  2.2114
 8781TIP3   OH247757   2.761   5.931   0.557  0.0430  0.4687  0.5198
 8781TIP3    H147758   2.720   5.991   0.619 -0.2720  0.4793  0.3014
 8781TIP3    H247759   2.852   5.922   0.588 -0.2295  0.1324  1.2416
 8782TIP3   OH247760   2.295   1.699   4.390  0.1431 -0.0973 -0.3205
 8782TIP3    H147761   2.212   1.685   4.345 -0.4525  3.0761 -0.4356
 8782TIP3    H247762   2.280   1.669   4.479 -1.3397  0.8847 -0.2073
 8783TIP3   OH247763   6.290   5.768   4.406 -0.7550 -0.3946 -0.0337
 8783TIP3    H147764   6.256   5.683   4.435  1.0677 -1.5897 -1.1778
 8783TIP3    H247765   6.212   5.818   4.382 -1.8904 -1.6284  0.8876
 8784TIP3   OH247766   4.557   6.252  14.110  0.2210 -0.1510 -0.3538
 8784TIP3    H147767   4.619   6.230  14.179  1.2469  0.9489 -0.8998
 8784TIP3    H247768   4.536   6.168  14.069  0.9667 -0.5935  0.1482
 8785TIP3   OH247769   3.477   5.006   4.480 -0.1575 -0.0810  0.1076
 8785TIP3    H147770   3.478   4.917   4.444  0.0148  0.5946 -1.6583
 8785TIP3    H247771   3.426   5.057   4.417  1.2527  1.4393  0.1332
 8786TIP3   OH247772   6.153   5.722  14.664  0.4668 -0.5422 -0.0640
 8786TIP3    H147773   6.126   5.791  14.603  1.6378 -0.1015 -0.1125
 8786TIP3    H247774   6.117   5.750  14.748 -0.3514 -0.6629 -0.3662
 8787TIP3   OH247775   4.511   5.800  13.269 -0.4346 -0.1803  0.4222
 8787TIP3    H147776   4.449   5.735  13.238  0.9146 -0.7856 -1.1848
 8787TIP3    H247777   4.533   5.772  13.358 -0.9366 -1.1155  0.2622
 8788TIP3   OH247778   5.678   2.824  15.818  0.5397  0.3052 -0.1028
 8788TIP3    H147779   5.676   2.910  15.776  0.1435  0.8388  0.9851
 8788TIP3    H247780   5.767   2.815  15.850  0.0794  1.1826  1.5119
 8789TIP3   OH247781   3.379   5.921  15.822 -0.2311  0.0627  0.3847
 8789TIP3    H147782   3.431   5.934  15.743 -1.2199 -1.6769 -0.6245
 8789TIP3    H247783   3.407   5.990  15.882  1.1133  0.9354 -1.1903
 8790TIP3   OH247784   3.365   1.900  14.197  0.0828 -0.2099  0.0904
 8790TIP3    H147785   3.357   1.972  14.134  0.7846  1.8437  2.2149
 8790TIP3    H247786   3.456   1.873  14.191 -0.0833 -0.6688 -0.4254
 8791TIP3   OH247787   1.314   3.491   3.887 -0.5059 -0.3136  0.2832
 8791TIP3    H147788   1.221   3.501   3.871 -1.0048  0.0363  2.9142
 8791TIP3    H247789   1.335   3.403   3.855 -1.0648  0.5555 -2.7715
 8792TIP3   OH247790   5.333   3.211   1.626  0.2243  0.2564  0.2047
 8792TIP3    H147791   5.301   3.135   1.673 -0.5451  0.0767 -0.5804
 8792TIP3    H247792   5.402   3.247   1.682  1.8963 -2.0601 -0.2410
 8793TIP3   OH247793   3.338   5.467   0.502  0.2507 -0.3432 -0.2712
 8793TIP3    H147794   3.404   5.459   0.570  0.4699 -0.1216 -0.4560
 8793TIP3    H247795   3.368   5.539   0.447  0.8557 -1.4351 -1.4453
 8794TIP3   OH247796   4.213   3.194  11.242 -0.4381  0.0980  0.2155
 8794TIP3    H147797   4.288   3.160  11.290  0.0167  1.8844  0.8656
 8794TIP3    H247798   4.169   3.253  11.303 -3.1360 -1.7893  0.2647
 8795TIP3   OH247799   6.077   3.287   5.906  0.0928 -0.5932  0.6047
 8795TIP3    H147800   6.122   3.297   5.822 -0.3760 -3.8730 -0.1763
 8795TIP3    H247801   5.985   3.273   5.883 -0.6651  1.6635  1.9295
 8796TIP3   OH247802   5.034   3.464  11.224  0.4379  0.1661 -0.0310
 8796TIP3    H147803   5.006   3.401  11.157 -0.4281 -1.7719  2.0157
 8796TIP3    H247804   5.077   3.410  11.290  0.6868  1.9261  1.3097
 8797TIP3   OH247805   5.588   3.220   1.219  0.0146 -0.1930 -0.0471
 8797TIP3    H147806   5.516   3.284   1.229 -0.7024 -0.5820 -2.1733
 8797TIP3    H247807   5.601   3.185   1.307 -0.0062  2.3988  1.0764
 8798TIP3   OH247808   3.555   5.780  12.646 -0.6756 -0.2816 -0.2815
 8798TIP3    H147809   3.510   5.699  12.624  0.6402 -0.8220 -1.1349
 8798TIP3    H247810   3.613   5.796  12.572  0.4959  0.3921  0.7380
 8799TIP3   OH247811   3.267   6.121   0.541 -0.1162 -0.1462 -0.0504
 8799TIP3    H147812   3.358   6.125   0.569 -0.5932  2.0809  1.4735
 8799TIP3    H247813   3.268   6.071   0.460  2.9008  2.3439 -1.7420
 8800TIP3   OH247814   5.079   5.303  16.252 -0.5097  0.1075 -0.0093
 8800TIP3    H147815   5.170   5.271  16.255 -0.5606 -0.1557 -1.0255
 8800TIP3    H247816   5.077   5.373  16.318  0.4859  0.2472 -0.0982
 8801TIP3   OH247817   6.771   6.148   5.417 -0.1613  0.2964 -0.1516
 8801TIP3    H147818   6.684   6.115   5.437 -0.4687  1.6619  0.9307
 8801TIP3    H247819   6.777   6.231   5.465  2.1785 -0.3258  0.7939
 8802TIP3   OH247820   4.768   0.015   4.216 -0.4421 -0.0550 -0.2506
 8802TIP3    H147821   4.712   0.090   4.196 -1.3437 -1.1501 -2.1475
 8802TIP3    H247822   4.725  -0.028   4.290  0.1402  1.2975  0.9257
 8803TIP3   OH247823   3.757   2.535  13.332  0.1908  0.2943  0.0203
 8803TIP3    H147824   3.752   2.511  13.239 -1.2950  1.2348 -0.1725
 8803TIP3    H247825   3.692   2.604  13.343 -0.6600 -0.7228  2.0533
 8804TIP3   OH247826   2.517   5.467   5.287  0.0154 -0.5479  0.3240
 8804TIP3    H147827   2.443   5.411   5.263 -0.4421  0.4004 -0.5823
 8804TIP3    H247828   2.481   5.556   5.282  1.3806 -0.0319 -0.7363
 8805TIP3   OH247829   2.259   1.273   2.875 -0.7613 -0.1885  0.3645
 8805TIP3    H147830   2.176   1.300   2.835 -1.0984 -1.2939  0.2866
 8805TIP3    H247831   2.234   1.205   2.937  0.0166 -0.0255  0.8634
 8806TIP3   OH247832   2.416   4.039  11.314  0.0495  0.6645 -0.0126
 8806TIP3    H147833   2.431   4.061  11.222 -0.7434 -0.9058 -0.5557
 8806TIP3    H247834   2.482   3.972  11.334 -0.9989 -0.4119 -0.0458
 8807TIP3   OH247835   5.810   5.775  12.057 -0.1918 -0.6701 -0.4072
 8807TIP3    H147836   5.779   5.696  12.101  0.6120  0.0908  1.6364
 8807TIP3    H247837   5.905   5.764  12.053 -0.2929 -1.2592 -3.1476
 8808TIP3   OH247838   4.510   0.269  16.655 -0.4641  0.9895  0.1044
 8808TIP3    H147839   4.525   0.186  16.701 -1.8634  1.5120  1.5829
 8808TIP3    H247840   4.481   0.243  16.568  0.3216 -0.0588  0.1379
 8809TIP3   OH247841   2.425   1.202  15.353 -0.1996  0.1419 -0.2692
 8809TIP3    H147842   2.373   1.257  15.294 -1.3127  1.3376  1.7206
 8809TIP3    H247843   2.432   1.252  15.434 -0.2648 -2.1368  1.2611
 8810TIP3   OH247844   6.216   5.291   5.005  0.0593  0.2147 -0.5094
 8810TIP3    H147845   6.264   5.209   4.991 -1.3797 -0.7386 -0.1143
 8810TIP3    H247846   6.131   5.276   4.962 -0.3811  1.3501 -0.0724
 8811TIP3   OH247847   1.232   0.958  13.616  0.0238  0.0976  0.3371
 8811TIP3    H147848   1.234   1.048  13.584 -1.3146  0.1231  0.2537
 8811TIP3    H247849   1.322   0.939  13.642  0.4033  1.3134 -0.0420
 8812TIP3   OH247850   3.660   2.257   4.857  0.1971 -0.4381 -0.2293
 8812TIP3    H147851   3.678   2.321   4.789  0.7725  1.0197  1.2273
 8812TIP3    H247852   3.745   2.217   4.877  0.3278  0.2342  0.6465
 8813TIP3   OH247853   1.211   2.404  16.549  0.0593  0.3824  0.6428
 8813TIP3    H147854   1.265   2.483  16.549  0.8294 -0.0122 -2.0798
 8813TIP3    H247855   1.122   2.436  16.561  0.5015  1.4855  1.1449
 8814TIP3   OH247856   0.871   5.170   4.543 -0.3127  0.0154  0.4620
 8814TIP3    H147857   0.818   5.093   4.563  1.2265 -1.2759 -0.2302
 8814TIP3    H247858   0.818   5.220   4.481 -0.9782 -0.9286  0.2477
 8815TIP3   OH247859   0.329   3.154   2.442 -0.1441 -0.2462  0.5686
 8815TIP3    H147860   0.416   3.118   2.428 -0.5796 -1.3821  0.6902
 8815TIP3    H247861   0.341   3.221   2.510  0.4527 -1.1509  1.3698
 8816TIP3   OH247862   1.587   5.084  15.842  0.2506 -0.5070 -0.2296
 8816TIP3    H147863   1.495   5.075  15.867  0.1758  0.2836 -0.1849
 8816TIP3    H247864   1.634   5.033  15.908 -0.1173 -0.4605  0.0774
 8817TIP3   OH247865   2.871   4.721   1.935 -0.1202 -0.1801  0.0784
 8817TIP3    H147866   2.847   4.652   1.874 -2.7505  0.8348 -0.1466
 8817TIP3    H247867   2.874   4.801   1.882 -0.7239  0.4451  0.9538
 8818TIP3   OH247868   4.789   1.859  11.155  0.3892  0.1628  0.0898
 8818TIP3    H147869   4.850   1.801  11.111 -0.0449  1.0185 -1.7615
 8818TIP3    H247870   4.716   1.870  11.093 -0.6662  0.7854  1.3682
 8819TIP3   OH247871   5.560   1.549  13.002 -0.5407 -0.4723 -0.1001
 8819TIP3    H147872   5.609   1.550  13.084 -0.9607 -0.0936  0.1531
 8819TIP3    H247873   5.609   1.490  12.945  0.1241 -0.2115  0.1944
 8820TIP3   OH247874   4.070   6.756   3.918  0.2276 -0.1895  0.7728
 8820TIP3    H147875   4.148   6.793   3.960 -0.0336  0.3821  0.7723
 8820TIP3    H247876   4.085   6.768   3.825  0.0108  0.1878  0.7861
 8821TIP3   OH247877   3.335   0.863  14.409  0.5468  0.1490 -0.3315
 8821TIP3    H147878   3.355   0.780  14.365 -0.9121 -0.8674  0.8469
 8821TIP3    H247879   3.421   0.898  14.432  1.1854 -1.2481 -0.4537
 8822TIP3   OH247880   5.705   1.517  16.372 -0.0029  0.1150 -0.2209
 8822TIP3    H147881   5.667   1.434  16.401  2.4224 -0.6124  1.1559
 8822TIP3    H247882   5.752   1.494  16.292  1.0485  0.0319  0.4078
 8823TIP3   OH247883   3.732   3.434  16.576 -0.1608 -0.4285  0.5469
 8823TIP3    H147884   3.805   3.443  16.515  0.1283  0.0456  0.9538
 8823TIP3    H247885   3.696   3.347  16.557  0.2867 -0.5249  0.1031
 8824TIP3   OH247886   4.994   3.499   0.009  0.0291  0.5417 -0.1554
 8824TIP3    H147887   4.982   3.570   0.072  1.4049 -0.0339  0.7969
 8824TIP3    H247888   5.084   3.508  -0.020  0.1321 -0.6258 -0.2506
 8825TIP3   OH247889   2.412   4.888  11.249 -0.5354  0.5886 -0.1685
 8825TIP3    H147890   2.437   4.831  11.321  2.6715 -1.2751 -2.5129
 8825TIP3    H247891   2.430   4.977  11.281  0.0487 -0.1179  1.5631
 8826TIP3   OH247892   5.218   6.746  13.983 -0.0484  0.5373  0.1404
 8826TIP3    H147893   5.267   6.686  14.041 -0.6382 -0.3597 -0.2676
 8826TIP3    H247894   5.264   6.829  13.991  2.2028 -0.5021 -0.9772
 8827TIP3   OH247895   3.809   3.303   2.494  0.1026  0.3532  0.3513
 8827TIP3    H147896   3.860   3.370   2.539 -0.5207  0.0214  1.5929
 8827TIP3    H247897   3.862   3.223   2.500 -0.1245  0.2341  0.7855
 8828TIP3   OH247898   0.540   2.520   0.409 -0.1781 -0.0751 -0.1646
 8828TIP3    H147899   0.482   2.481   0.475  1.8052 -0.1338  1.6313
 8828TIP3    H247900   0.548   2.452   0.342 -2.3341  0.0273 -0.6177
 8829TIP3   OH247901   2.085   4.678   1.760 -0.1249 -0.9595  0.2741
 8829TIP3    H147902   2.144   4.700   1.832 -1.1091  0.6068  0.6506
 8829TIP3    H247903   2.142   4.668   1.684  0.6769  0.0571  0.7210
 8830TIP3   OH247904   5.750   3.623  12.788 -0.2481  0.0652 -0.2156
 8830TIP3    H147905   5.844   3.640  12.795  0.1463 -2.1532  0.9026
 8830TIP3    H247906   5.719   3.685  12.722  2.0673  0.5847 -0.9148
 8831TIP3   OH247907   2.531   2.914  14.251  0.1118 -0.0361 -0.2760
 8831TIP3    H147908   2.518   3.007  14.272  0.7988 -0.2330  1.1316
 8831TIP3    H247909   2.605   2.888  14.305 -2.9874 -2.6277  3.3022
 8832TIP3   OH247910   2.590   6.296   2.537 -0.2810  0.5174 -0.2895
 8832TIP3    H147911   2.621   6.357   2.604 -1.0617  0.4804  0.1134
 8832TIP3    H247912   2.517   6.250   2.578 -0.3286  0.0081 -0.9321
 8833TIP3   OH247913   3.570   0.442   3.461 -0.6199 -0.2698 -0.1601
 8833TIP3    H147914   3.565   0.537   3.451 -0.7453  0.2137  3.2233
 8833TIP3    H247915   3.664   0.424   3.469 -0.6673  0.1484  2.4033
 8834TIP3   OH247916   1.133   6.702  15.363  0.3454 -0.0180 -0.3258
 8834TIP3    H147917   1.122   6.766  15.292  1.0539 -0.0969 -0.5141
 8834TIP3    H247918   1.228   6.694  15.374  0.2469 -0.1509  0.5052
 8835TIP3   OH247919   1.241   1.422   2.788  0.0828 -0.1166  0.7957
 8835TIP3    H147920   1.217   1.447   2.877 -1.1694  1.9234 -0.0551
 8835TIP3    H247921   1.166   1.374   2.755  0.4612 -0.6859  0.7376
 8836TIP3   OH247922   5.391   3.631   6.087  0.7475 -0.1423 -0.0764
 8836TIP3    H147923   5.330   3.690   6.131  0.4561 -0.9740  0.6637
 8836TIP3    H247924   5.444   3.688   6.031  0.5050  0.8200  0.6532
 8837TIP3   OH247925   4.338   0.713  16.946 -0.0781  0.1489  0.0148
 8837TIP3    H147926   4.373   0.629  16.975 -2.2162 -1.5245 -1.9170
 8837TIP3    H247927   4.290   0.746  17.023 -1.0621 -1.5208  0.1807
 8838TIP3   OH247928   6.625   0.779   1.235  0.1390 -0.2315  0.6114
 8838TIP3    H147929   6.624   0.714   1.165  1.1862  0.3306  0.0519
 8838TIP3    H247930   6.665   0.734   1.309  2.0492  0.1016 -0.1541
 8839TIP3   OH247931   0.657   5.642  15.369 -0.1181  0.0248  0.5189
 8839TIP3    H147932   0.725   5.637  15.302 -1.0780  2.5920 -0.7922
 8839TIP3    H247933   0.577   5.615  15.324 -0.9695  2.7975  0.1986
 8840TIP3   OH247934   1.135   4.366  14.583  0.2943  0.4085 -0.2213
 8840TIP3    H147935   1.095   4.428  14.644  0.1586 -1.2138  1.4099
 8840TIP3    H247936   1.135   4.282  14.629  1.3278 -0.6398 -1.9875
 8841TIP3   OH247937   4.002   2.336   6.188  0.0583  0.3113 -0.2965
 8841TIP3    H147938   4.075   2.376   6.235  0.1689 -0.2824  0.0374
 8841TIP3    H247939   3.990   2.392   6.112 -1.5939  2.6902  1.5429
 8842TIP3   OH247940   0.709   1.034  11.179  0.1399 -0.1026 -0.3876
 8842TIP3    H147941   0.711   1.129  11.171  0.6676  0.0000  0.7471
 8842TIP3    H247942   0.712   1.002  11.089 -1.3865  0.9620 -0.8635
 8843TIP3   OH247943   3.889   4.485  14.411  0.9004 -0.0109 -0.2968
 8843TIP3    H147944   3.826   4.510  14.478  0.8961 -0.8253  0.0166
 8843TIP3    H247945   3.974   4.487  14.456  1.1268  1.2035 -0.7486
 8844TIP3   OH247946   1.296   1.673  15.454  0.6930  0.1728  0.0381
 8844TIP3    H147947   1.291   1.583  15.487 -0.2644 -0.6337 -2.0844
 8844TIP3    H247948   1.382   1.704  15.481  1.2600 -1.5886  0.3619
 8845TIP3   OH247949   4.202   0.241   0.048 -0.3513  0.2017  0.0701
 8845TIP3    H147950   4.175   0.330   0.025  1.1002  0.5570 -0.3223
 8845TIP3    H247951   4.159   0.225   0.132  0.0384  1.5949  0.5617
 8846TIP3   OH247952   2.982   1.192  14.869 -0.2671 -1.0149  0.2588
 8846TIP3    H147953   3.052   1.256  14.857 -1.0001 -0.3243 -0.5853
 8846TIP3    H247954   2.940   1.186  14.783 -0.6825 -2.0794  0.5186
 8847TIP3   OH247955   4.526   4.609  12.117 -0.1632  0.2990  0.4274
 8847TIP3    H147956   4.539   4.663  12.195  0.2027 -0.8266  1.1635
 8847TIP3    H247957   4.610   4.609  12.072  0.1636 -0.5470  1.0174
 8848TIP3   OH247958   5.280   2.391  14.198  0.4640  0.0940  0.3619
 8848TIP3    H147959   5.357   2.429  14.241  0.6320 -1.5511  1.6278
 8848TIP3    H247960   5.206   2.418  14.253  0.2336  0.9016 -0.3285
 8849TIP3   OH247961   1.467   4.520   5.503  0.4424  0.3600 -0.0260
 8849TIP3    H147962   1.427   4.583   5.563 -0.8214 -2.2190  1.9965
 8849TIP3    H247963   1.532   4.571   5.456  1.4141  2.6159  3.4053
 8850TIP3   OH247964   6.298   0.326   3.349 -0.3936 -0.2458  0.8397
 8850TIP3    H147965   6.204   0.331   3.366 -0.5709 -1.3578  0.3002
 8850TIP3    H247966   6.339   0.351   3.431 -1.1199  1.9923  0.5798
 8851TIP3   OH247967   3.681   4.073   0.567  0.3600  0.4201 -0.0813
 8851TIP3    H147968   3.670   3.982   0.597 -0.9828  0.5242 -0.1744
 8851TIP3    H247969   3.768   4.075   0.527  0.2519 -0.9394 -0.4448
 8852TIP3   OH247970   3.656   6.309  13.962 -0.3792  0.2464  0.2140
 8852TIP3    H147971   3.586   6.269  14.014 -2.0491  0.1687 -1.9699
 8852TIP3    H247972   3.699   6.235  13.918 -0.8688  0.5259 -0.7422
 8853TIP3   OH247973   0.057   1.798  11.515 -0.3345  0.2101 -0.4749
 8853TIP3    H147974  -0.002   1.750  11.458 -1.0882  1.5891 -0.8950
 8853TIP3    H247975   0.128   1.827  11.458 -0.9342  1.3281 -0.6857
 8854TIP3   OH247976   3.696   0.448  16.892 -0.5331  0.0753 -0.0743
 8854TIP3    H147977   3.745   0.527  16.913  0.8313 -0.3232 -1.5917
 8854TIP3    H247978   3.631   0.476  16.827 -0.4400  0.0651 -0.1719
 8855TIP3   OH247979   1.620   3.016  12.840  0.2494  0.2172 -0.4164
 8855TIP3    H147980   1.526   3.031  12.833  0.1174 -0.4239 -0.1119
 8855TIP3    H247981   1.658   3.104  12.842 -0.3587  0.4848 -0.2658
 8856TIP3   OH247982   6.323   3.608   1.367 -0.4672  0.3639  0.7126
 8856TIP3    H147983   6.337   3.663   1.444  2.5539  0.8453 -0.0558
 8856TIP3    H247984   6.379   3.531   1.381 -1.1747 -0.3611 -0.2467
 8857TIP3   OH247985   4.960   3.464  14.787 -0.1472 -0.0188  0.1891
 8857TIP3    H147986   4.987   3.409  14.713 -0.7431 -0.6682  0.4412
 8857TIP3    H247987   4.918   3.540  14.747  0.8895  0.3872 -0.1703
 8858TIP3   OH247988   6.173   0.525  16.135  0.1306 -0.1483  0.7394
 8858TIP3    H147989   6.213   0.469  16.068  0.0252 -0.1393  0.6707
 8858TIP3    H247990   6.240   0.532  16.203 -0.6891 -2.2824  1.8716
 8859TIP3   OH247991   1.071   1.356  17.278  0.0767 -0.2484  0.0113
 8859TIP3    H147992   1.138   1.329  17.341  0.3107  0.7773  0.2299
 8859TIP3    H247993   1.122   1.388  17.203 -0.1880 -2.2640 -1.1101
 8860TIP3   OH247994   1.744   2.694   1.081  0.2624 -0.1959  0.6228
 8860TIP3    H147995   1.681   2.707   1.152  1.0696 -0.3547  1.3814
 8860TIP3    H247996   1.804   2.627   1.114  0.5957 -0.3417 -0.2509
 8861TIP3   OH247997   0.489   4.570  14.369 -0.2784 -0.6515 -0.4402
 8861TIP3    H147998   0.466   4.477  14.373 -0.5318 -0.5860 -0.3253
 8861TIP3    H247999   0.571   4.573  14.321  1.7516 -1.2988  2.6685
 8862TIP3   OH248000   2.385   3.761   2.252 -0.4012  0.1448  0.2979
 8862TIP3    H148001   2.411   3.732   2.339  0.7568  1.7966  0.5399
 8862TIP3    H248002   2.302   3.806   2.266 -0.6325 -0.3003  0.3980
 8863TIP3   OH248003   2.555   2.538   2.517  0.5742  0.3251  0.1480
 8863TIP3    H148004   2.634   2.516   2.466 -0.1486 -0.2993 -0.7257
 8863TIP3    H248005   2.533   2.456   2.562  0.0654  0.3195 -0.1091
 8864TIP3   OH248006   2.148   5.605  12.197  0.4857  0.6532 -0.0086
 8864TIP3    H148007   2.114   5.681  12.149  0.2658 -0.3973 -1.5758
 8864TIP3    H248008   2.188   5.550  12.130 -0.0266 -0.9973  0.9782
 8865TIP3   OH248009   0.112   4.958   1.028  0.4229 -0.1133 -0.2022
 8865TIP3    H148010   0.107   5.015   1.105  0.9463  2.1718 -1.7369
 8865TIP3    H248011   0.191   4.988   0.982 -0.7825 -0.2203 -2.4785
 8866TIP3   OH248012   3.081   2.244   5.641  0.0621  0.0461 -0.1346
 8866TIP3    H148013   3.010   2.209   5.587 -0.3311 -0.6897  0.8191
 8866TIP3    H248014   3.154   2.255   5.581  1.0737 -4.7256 -0.2367
 8867TIP3   OH248015   2.893   1.694  16.217  0.3950 -0.1214 -0.1568
 8867TIP3    H148016   2.956   1.723  16.151  1.2846  0.6662  1.0142
 8867TIP3    H248017   2.939   1.628  16.268  0.7745  1.3541  1.5100
 8868TIP3   OH248018   4.303   0.562  13.630 -0.3905 -0.1442  0.4345
 8868TIP3    H148019   4.370   0.548  13.563 -0.0282 -0.5031  0.8688
 8868TIP3    H248020   4.227   0.514  13.598 -0.4939  0.3783 -0.1278
 8869TIP3   OH248021   5.997   1.649  14.494 -0.1883  0.5076 -0.5669
 8869TIP3    H148022   6.032   1.734  14.468  0.3066  0.5538  0.1999
 8869TIP3    H248023   5.985   1.656  14.589 -0.7048 -0.0778 -0.5849
 8870TIP3   OH248024   1.540   5.315   2.964  0.2682  0.0705  0.0818
 8870TIP3    H148025   1.595   5.275   2.896 -0.1810 -0.6444  0.1370
 8870TIP3    H248026   1.534   5.407   2.937  0.8335 -0.0113 -0.3583
 8871TIP3   OH248027   5.343   6.626   2.861  0.6644 -0.5399 -0.3693
 8871TIP3    H148028   5.434   6.599   2.845  0.6942 -0.5204 -0.2261
 8871TIP3    H248029   5.339   6.716   2.830 -0.0994 -1.4725 -3.4283
 8872TIP3   OH248030   4.643   4.895  13.863 -0.0262 -0.6439 -0.0233
 8872TIP3    H148031   4.654   4.980  13.820  1.7646 -0.9488 -0.2723
 8872TIP3    H248032   4.682   4.832  13.802  0.1081 -1.4270  0.8415
 8873TIP3   OH248033   5.157   2.471  14.763  0.1281  0.1872  0.3735
 8873TIP3    H148034   5.210   2.476  14.683 -0.5055 -0.9719 -0.1479
 8873TIP3    H248035   5.115   2.556  14.770  0.9672  0.6395  0.0200
 8874TIP3   OH248036   4.588   5.561  16.889 -0.7955  0.1214 -0.1725
 8874TIP3    H148037   4.578   5.601  16.803  0.5356 -0.3602 -0.5845
 8874TIP3    H248038   4.643   5.484  16.873 -1.4381 -0.5888  0.9429
 8875TIP3   OH248039   1.323   2.198  15.600  0.1802  0.0099  0.3224
 8875TIP3    H148040   1.305   2.288  15.573  2.1738 -0.6776 -4.1288
 8875TIP3    H248041   1.401   2.205  15.655  0.4688  0.9778 -0.1870
 8876TIP3   OH248042   1.320   2.489   2.030 -0.4631 -0.4274  0.5955
 8876TIP3    H148043   1.318   2.406   1.983 -0.0213  0.0181 -0.2421
 8876TIP3    H248044   1.365   2.470   2.112 -1.2417 -1.2195  0.8452
 8877TIP3   OH248045   6.551   3.027  12.227  0.0524  0.0971 -0.1466
 8877TIP3    H148046   6.538   3.032  12.133  0.0063 -1.7869 -0.2759
 8877TIP3    H248047   6.477   3.074  12.264 -1.0699 -0.9211 -1.0413
 8878TIP3   OH248048   5.134   3.982  11.677  0.5508  0.3434  0.1217
 8878TIP3    H148049   5.191   3.920  11.633 -0.1890 -1.4068  1.5270
 8878TIP3    H248050   5.188   4.060  11.689  2.0564 -0.6222 -0.1679
 8879TIP3   OH248051   1.683   6.066  12.591 -0.2318  0.2366 -0.1353
 8879TIP3    H148052   1.599   6.071  12.636  0.3646 -0.9748  1.1741
 8879TIP3    H248053   1.667   6.007  12.517 -0.6178  0.2965 -0.1016
 8880TIP3   OH248054   6.726   6.598   0.235 -0.2383 -0.2374  0.0104
 8880TIP3    H148055   6.698   6.689   0.245 -1.7537 -0.6037 -0.5070
 8880TIP3    H248056   6.797   6.587   0.298  0.4024  1.4619 -0.3475
 8881TIP3   OH248057   5.981   2.639  14.327 -0.5030 -0.1414  0.2266
 8881TIP3    H148058   5.958   2.574  14.261  0.5882 -1.2069  0.8632
 8881TIP3    H248059   5.950   2.722  14.291  0.1943 -0.6728 -1.7040
 8882TIP3   OH248060   1.306   5.997   3.095  0.5413 -0.1341  0.1695
 8882TIP3    H148061   1.358   5.948   3.031 -0.2192 -1.6358  0.6483
 8882TIP3    H248062   1.363   6.004   3.172  0.7725  0.0072 -0.0142
 8883TIP3   OH248063   4.831   1.089  11.593 -0.1327  0.2924 -0.2126
 8883TIP3    H148064   4.758   1.121  11.646 -1.2544  1.6593 -2.4596
 8883TIP3    H248065   4.796   1.014  11.546  0.4695 -0.1327  0.0029
 8884TIP3   OH248066   4.892   5.150   3.411  0.2466 -0.0193 -0.0799
 8884TIP3    H148067   4.943   5.193   3.481 -0.0422 -3.1160  2.2127
 8884TIP3    H248068   4.803   5.183   3.422  0.6222  1.1862 -0.4867
 8885TIP3   OH248069   6.016   2.087   3.684 -0.6263  0.2119  0.2313
 8885TIP3    H148070   5.932   2.109   3.642 -0.2232  1.1262 -0.1427
 8885TIP3    H248071   5.993   2.032   3.758 -1.4923 -0.2190 -0.3430
 8886TIP3   OH248072   5.639   4.913   3.175  0.4161 -0.6291  0.2840
 8886TIP3    H148073   5.672   4.837   3.223  0.6674 -0.2625  0.7045
 8886TIP3    H248074   5.703   4.926   3.105 -0.6324 -1.9619 -1.0087
 8887TIP3   OH248075   3.868   0.962   2.203 -0.2983 -0.0377 -0.4602
 8887TIP3    H148076   3.940   1.026   2.206 -1.2802  1.1288 -0.7856
 8887TIP3    H248077   3.853   0.940   2.295 -1.3244  1.8458 -0.1341
 8888TIP3   OH248078   4.030   4.960  16.682 -0.2528  0.0179  0.0625
 8888TIP3    H148079   4.102   4.906  16.648  0.9301  1.6682 -0.1801
 8888TIP3    H248080   3.967   4.964  16.610  1.0492  1.3705 -1.0903
 8889TIP3   OH248081   3.098   2.544   1.756  0.5218  0.1894 -0.1563
 8889TIP3    H148082   3.133   2.629   1.730 -2.1815  1.3695 -0.2726
 8889TIP3    H248083   3.048   2.562   1.835 -3.3408 -0.3660 -2.2318
 8890TIP3   OH248084   3.993   6.203  13.989  0.2736  0.5473 -0.7120
 8890TIP3    H148085   4.004   6.282  13.936 -2.0192  1.1104 -0.4488
 8890TIP3    H248086   3.971   6.235  14.076 -0.0879 -0.3787 -0.4493
 8891TIP3   OH248087   4.778   0.018   5.382 -0.2444 -0.6516 -0.3555
 8891TIP3    H148088   4.838  -0.056   5.390  1.2463  0.6305  0.8028
 8891TIP3    H248089   4.834   0.095   5.374 -1.7312  0.5439  0.1381
 8892TIP3   OH248090   5.609   3.012   4.136 -0.2335 -0.3236 -0.0912
 8892TIP3    H148091   5.581   2.996   4.226 -0.4544 -0.5652 -0.2012
 8892TIP3    H248092   5.659   2.934   4.112 -3.6181 -2.2395 -1.5635
 8893TIP3   OH248093   2.441   5.801   5.619 -0.4905  0.1629 -0.2924
 8893TIP3    H148094   2.415   5.714   5.646  1.5252 -0.7278 -1.0264
 8893TIP3    H248095   2.488   5.837   5.694 -0.5777  0.2790 -0.2929
 8894TIP3   OH248096   2.522   2.258  13.411  0.0313 -0.5757  0.1672
 8894TIP3    H148097   2.519   2.167  13.442 -1.0561 -0.1421  1.4624
 8894TIP3    H248098   2.491   2.309  13.486  0.5077  0.8546 -0.5818
 8895TIP3   OH248099   5.865   4.595   0.004 -0.3975 -0.1186  0.2481
 8895TIP3    H148100   5.828   4.591  -0.084  1.0366 -0.9892 -0.3537
 8895TIP3    H248101   5.875   4.689   0.021  1.9503  0.0816 -1.7279
 8896TIP3   OH248102   1.736   5.030  15.075  0.6696  0.3772  0.1639
 8896TIP3    H148103   1.646   4.998  15.089  0.6211  0.2897 -0.3487
 8896TIP3    H248104   1.764   5.058  15.162  1.2550 -2.4312  0.9855
 8897TIP3   OH248105   5.393   5.056  16.439 -0.0916 -0.4240 -0.5849
 8897TIP3    H148106   5.478   5.051  16.395 -0.4296  0.2498 -1.3333
 8897TIP3    H248107   5.414   5.046  16.532  1.2100  2.7116 -0.4058
 8898TIP3   OH248108   5.319   3.449   3.139  0.0251  0.5686  0.0154
 8898TIP3    H148109   5.389   3.510   3.117 -0.3591  1.3887  0.9663
 8898TIP3    H248110   5.240   3.488   3.102 -0.0390 -0.0181 -0.4844
 8899TIP3   OH248111   6.554   0.731  16.774  0.2231  0.3600 -0.3954
 8899TIP3    H148112   6.608   0.683  16.837  0.7387 -1.3711 -2.0649
 8899TIP3    H248113   6.610   0.802  16.743  0.7898 -0.1444 -0.5413
 8900TIP3   OH248114   1.311   4.774   1.724  0.0269 -0.5575  0.2773
 8900TIP3    H148115   1.228   4.768   1.677 -1.2023 -0.4147  2.3269
 8900TIP3    H248116   1.348   4.858   1.696 -0.8882 -0.2655 -0.0871
 8901TIP3   OH248117   4.900   3.808  12.769 -0.1415  0.0982 -0.2524
 8901TIP3    H148118   4.933   3.777  12.685 -0.8331  1.2764 -0.9959
 8901TIP3    H248119   4.926   3.900  12.772  0.6900 -0.1628  1.2711
 8902TIP3   OH248120   3.734   2.612   0.098 -0.7987  0.5362  0.1734
 8902TIP3    H148121   3.819   2.590   0.059 -0.4031  0.8218  0.8732
 8902TIP3    H248122   3.685   2.652   0.026 -0.7433 -0.6146 -0.5309
 8903TIP3   OH248123   6.121   0.579  13.357 -0.0431  0.8202  0.3290
 8903TIP3    H148124   6.188   0.647  13.344  2.0365 -1.1668 -0.0782
 8903TIP3    H248125   6.054   0.600  13.292 -0.5653  3.6458  1.6227
 8904TIP3   OH248126   1.349   3.094   1.035  0.1529  0.2244  0.2185
 8904TIP3    H148127   1.431   3.046   1.020 -0.1170 -0.4405  0.7686
 8904TIP3    H248128   1.376   3.178   1.071  0.7188  1.1512 -2.2054
 8905TIP3   OH248129   4.376   2.862  11.448  0.6194 -0.1997  0.6971
 8905TIP3    H148130   4.333   2.776  11.447  0.1494 -0.0005  1.8609
 8905TIP3    H248131   4.447   2.854  11.384 -1.8307 -0.1604 -2.3018
 8906TIP3   OH248132   2.834   6.191  14.154  0.2105 -0.2940  0.6501
 8906TIP3    H148133   2.741   6.211  14.145  0.1303 -0.4943  1.0111
 8906TIP3    H248134   2.863   6.246  14.227  0.6675  0.7225 -0.2695
 8907TIP3   OH248135   1.322   0.420  12.420  0.6748 -0.1238 -0.0810
 8907TIP3    H148136   1.230   0.434  12.395  0.8670  3.3699  0.5974
 8907TIP3    H248137   1.318   0.357  12.492 -1.3494  0.8366  0.7205
 8908TIP3   OH248138   6.015   1.310   3.656 -0.1816 -0.5139  0.1927
 8908TIP3    H148139   6.005   1.260   3.736  0.2578 -0.6045  0.1918
 8908TIP3    H248140   6.070   1.385   3.681  0.9261 -1.1443 -0.2663
 8909TIP3   OH248141   1.821   5.780  15.515  0.0304 -0.4787 -0.7999
 8909TIP3    H148142   1.824   5.791  15.420 -0.5713 -0.5643 -0.8344
 8909TIP3    H248143   1.898   5.828  15.547 -1.1487  1.7718 -1.1347
 8910TIP3   OH248144   4.412   1.325  13.705 -0.4087  0.1076 -0.5303
 8910TIP3    H148145   4.383   1.405  13.662 -1.0833  0.6502  0.8585
 8910TIP3    H248146   4.366   1.325  13.789  1.8021 -0.2357  0.7599
 8911TIP3   OH248147   4.342   2.737   2.922 -0.2669  0.2182  0.1847
 8911TIP3    H148148   4.284   2.813   2.930  0.1474  0.5369  0.2123
 8911TIP3    H248149   4.404   2.746   2.995 -0.4736 -0.3785  0.4419
 8912TIP3   OH248150   3.420   4.327  12.931 -0.0695  0.0536 -0.6888
 8912TIP3    H148151   3.342   4.374  12.961  0.2739 -0.0923  0.5114
 8912TIP3    H248152   3.493   4.374  12.970  0.3049 -1.1332  0.1133
 8913TIP3   OH248153   4.971   3.336   0.293  0.1362  0.4335  0.9242
 8913TIP3    H148154   4.911   3.342   0.219  0.7559  0.4508  0.4169
 8913TIP3    H248155   5.049   3.385   0.265 -0.1581  1.6411  2.1348
 8914TIP3   OH248156   2.786   4.719  13.488  0.3655  0.2904  0.0128
 8914TIP3    H148157   2.828   4.735  13.403  0.4481  0.5457  0.1011
 8914TIP3    H248158   2.733   4.797  13.504  0.5569  0.3574  0.3195
 8915TIP3   OH248159   0.214   6.452   2.332 -0.1627 -1.3375  0.4552
 8915TIP3    H148160   0.152   6.384   2.307  0.1353 -1.1269 -0.9649
 8915TIP3    H248161   0.166   6.534   2.321  0.2204 -1.1958 -0.2795
 8916TIP3   OH248162   0.252   2.632  11.883 -0.2922 -0.1471  0.4256
 8916TIP3    H148163   0.318   2.663  11.821 -0.6251  0.5257  0.4058
 8916TIP3    H248164   0.171   2.628  11.833 -0.6933  0.9878  0.9545
 8917TIP3   OH248165   1.395   3.747   2.104 -0.0417 -0.0485 -0.8154
 8917TIP3    H148166   1.355   3.822   2.060 -2.7716 -1.2650 -0.6570
 8917TIP3    H248167   1.458   3.712   2.041 -2.5134 -0.6607 -3.1280
 8918TIP3   OH248168   0.105   0.706   4.634  0.0028  0.0862  0.0724
 8918TIP3    H148169   0.034   0.737   4.578  0.8362  1.6546 -0.1510
 8918TIP3    H248170   0.112   0.771   4.703  0.9526 -0.2716  0.3330
 8919TIP3   OH248171   2.060   1.847   3.246  0.4320  0.4209 -0.5295
 8919TIP3    H148172   2.130   1.910   3.230  0.5261  0.5609  0.3641
 8919TIP3    H248173   2.021   1.876   3.329 -0.9027  0.5375 -1.1800
 8920TIP3   OH248174   0.604   5.698  10.766 -0.1231 -0.1406 -0.8290
 8920TIP3    H148175   0.682   5.685  10.712  1.8368  2.5693  1.0641
 8920TIP3    H248176   0.605   5.625  10.828  1.4576  0.2810 -0.3153
 8921TIP3   OH248177   2.541   0.172   5.583  0.3333  0.2159 -0.6084
 8921TIP3    H148178   2.607   0.104   5.595 -0.1154 -0.2538 -0.7723
 8921TIP3    H248179   2.580   0.250   5.623  0.2089 -0.5220  1.0744
 8922TIP3   OH248180   6.634   3.355  15.991  0.3726 -1.1190  0.0115
 8922TIP3    H148181   6.683   3.437  15.985 -1.0528 -0.0835  1.5572
 8922TIP3    H248182   6.665   3.303  15.917  3.1586 -0.2290  0.4320
 8923TIP3   OH248183   6.127   2.298   2.917 -0.1298  0.6185  0.1687
 8923TIP3    H148184   6.050   2.267   2.966 -0.1160 -0.9301 -0.7377
 8923TIP3    H248185   6.196   2.302   2.983 -0.1649 -1.2356  0.3798
 8924TIP3   OH248186   5.467   0.630  15.378  0.3834  0.0537  0.4305
 8924TIP3    H148187   5.419   0.626  15.461 -1.8900  0.4278 -0.7868
 8924TIP3    H248188   5.541   0.689  15.396  0.7689 -0.9605  2.5192
 8925TIP3   OH248189   6.039   4.719  14.604 -0.1071 -0.0159 -0.2367
 8925TIP3    H148190   6.050   4.652  14.671 -1.3739  1.6563  1.7796
 8925TIP3    H248191   5.966   4.688  14.551 -0.8502 -0.1545  0.8284
 8926TIP3   OH248192   0.137   2.152  11.074 -0.1652 -0.0007  0.0641
 8926TIP3    H148193   0.143   2.246  11.059  1.7365 -0.3076 -1.5353
 8926TIP3    H248194   0.140   2.142  11.169 -0.7241  1.5629  0.2617
 8927TIP3   OH248195   2.677   3.209  14.709  0.0879  0.2493 -0.3654
 8927TIP3    H148196   2.688   3.283  14.649 -2.4806  1.2114  0.2423
 8927TIP3    H248197   2.603   3.234  14.764 -0.0242 -2.2463  0.7127
 8928TIP3   OH248198   4.713   6.573   1.670 -0.1869  0.9272 -0.7694
 8928TIP3    H148199   4.726   6.668   1.677  0.4556  0.9060 -1.5936
 8928TIP3    H248200   4.765   6.537   1.743 -1.0815  1.2391  0.0446
 8929TIP3   OH248201   6.068   1.338  12.771  0.2370 -0.4386  0.2995
 8929TIP3    H148202   6.051   1.245  12.757  0.0206 -0.2816 -0.4864
 8929TIP3    H248203   6.023   1.358  12.853  0.1137 -0.9713  0.3684
 8930TIP3   OH248204   0.370   0.437   5.885  0.4082  0.0356  0.4216
 8930TIP3    H148205   0.427   0.392   5.823 -0.0955  2.7037 -2.1705
 8930TIP3    H248206   0.429   0.489   5.939  0.6343  0.6888 -0.4403
 8931TIP3   OH248207   6.171   1.149  10.125  0.1378 -0.1257  0.0904
 8931TIP3    H148208   6.116   1.106  10.059  0.3487  1.2398 -1.0148
 8931TIP3    H248209   6.198   1.078  10.183 -1.1213 -1.1537 -0.5239
 8932TIP3   OH248210   0.823   2.517  14.823 -0.2322 -0.2625 -0.0963
 8932TIP3    H148211   0.758   2.502  14.891 -0.6542  1.1450 -0.1573
 8932TIP3    H248212   0.773   2.533  14.744  0.2227 -0.4906 -0.4369
 8933TIP3   OH248213   0.038   4.917  11.549  0.3415 -0.3183  0.2121
 8933TIP3    H148214  -0.056   4.919  11.566  0.3412 -1.6433  0.5356
 8933TIP3    H248215   0.056   4.825  11.526  1.6293 -0.2100  0.6788
 8934TIP3   OH248216   6.036   5.407  15.488 -0.1017 -0.5154 -0.3787
 8934TIP3    H148217   6.016   5.478  15.428  0.2057 -1.6814 -1.9197
 8934TIP3    H248218   5.970   5.340  15.470  0.7970 -1.4360 -0.3989
 8935TIP3   OH248219   0.196   2.919  15.369  0.1070 -0.6452 -0.2872
 8935TIP3    H148220   0.131   2.849  15.365  1.4423 -2.0101  0.8213
 8935TIP3    H248221   0.151   2.991  15.411 -0.6881 -1.5828  0.5093
 8936TIP3   OH248222   4.291   2.975  12.848 -0.1518  0.4932 -0.3488
 8936TIP3    H148223   4.341   2.909  12.800  2.8707  1.8056  0.7818
 8936TIP3    H248224   4.272   2.935  12.932  1.7184  0.9950  0.3534
 8937TIP3   OH248225   6.577   2.515   3.741 -0.0724 -0.1032 -0.2547
 8937TIP3    H148226   6.517   2.532   3.667  1.8830  1.6745 -1.5720
 8937TIP3    H248227   6.534   2.447   3.792 -3.5135  1.4870 -0.7497
 8938TIP3   OH248228   6.025   4.161   2.581 -0.3509 -0.0307 -0.4128
 8938TIP3    H148229   6.066   4.240   2.614 -1.8277  0.9322 -0.8153
 8938TIP3    H248230   6.016   4.104   2.658  1.9028 -0.4087 -0.3468
 8939TIP3   OH248231   0.200   0.792   5.344  0.2513 -0.0551 -0.1526
 8939TIP3    H148232   0.214   0.884   5.366  0.3799 -0.1652  0.2345
 8939TIP3    H248233   0.130   0.764   5.404 -0.3211 -0.0096 -0.7862
 8940TIP3   OH248234   1.035   0.838  16.683  0.0766  0.9570  0.6466
 8940TIP3    H148235   0.967   0.813  16.620 -0.0359  0.8251  0.8190
 8940TIP3    H248236   1.105   0.875  16.629 -0.5253  1.9753  0.5525
 8941TIP3   OH248237   0.771   6.497  14.773  0.1246  0.1790 -0.3083
 8941TIP3    H148238   0.736   6.500  14.862  0.4671 -0.2835 -0.1520
 8941TIP3    H248239   0.866   6.501  14.785  0.1637  0.4778 -0.6748
 8942TIP3   OH248240   4.105   5.263  11.626 -0.5930  0.0239 -0.7437
 8942TIP3    H148241   4.088   5.206  11.551 -2.8905 -2.0300  1.1292
 8942TIP3    H248242   4.078   5.210  11.702 -0.5982  2.8049  1.3302
 8943TIP3   OH248243   1.648   6.459  16.924  0.6901 -0.0014  0.7418
 8943TIP3    H148244   1.655   6.502  17.009  2.0992  1.0786  0.1210
 8943TIP3    H248245   1.604   6.522  16.869 -0.4304 -0.7927  0.7081
 8944TIP3   OH248246   5.675   4.338   0.367 -0.3509  0.0844 -0.3194
 8944TIP3    H148247   5.712   4.255   0.397  0.7762  0.1994 -1.3125
 8944TIP3    H248248   5.587   4.340   0.406  0.2813 -0.6844  1.2461
 8945TIP3   OH248249   3.214   2.537  14.267  0.1519  0.4494  0.6940
 8945TIP3    H148250   3.174   2.530  14.354 -1.1202 -1.8940 -0.0098
 8945TIP3    H248251   3.264   2.457  14.257  0.4803  0.7986 -0.6550
 8946TIP3   OH248252   2.276   5.294  15.958 -0.0245 -0.2630 -0.1440
 8946TIP3    H148253   2.303   5.354  16.027 -1.6967  0.2840  0.0891
 8946TIP3    H248254   2.182   5.309  15.948 -0.2542 -1.9210 -0.9961
 8947TIP3   OH248255   2.718   2.628  16.699  0.3094  0.2583  0.0244
 8947TIP3    H148256   2.690   2.695  16.760  1.1083  0.2239  0.4526
 8947TIP3    H248257   2.805   2.602  16.731 -0.0309 -1.0477 -0.0632
 8948TIP3   OH248258   5.427   3.456  11.316  0.0261 -0.7146  0.4008
 8948TIP3    H148259   5.490   3.397  11.275 -0.4251 -1.4700  0.7756
 8948TIP3    H248260   5.350   3.401  11.332 -1.0169  0.3607 -0.7168
 8949TIP3   OH248261   0.568   5.800   5.739  0.2378 -0.4518  0.4327
 8949TIP3    H148262   0.586   5.872   5.800  1.1281 -1.4346  1.3633
 8949TIP3    H248263   0.473   5.788   5.745  0.1186  0.4133  0.5159
 8950TIP3   OH248264   1.551   0.038   5.737 -0.0769 -0.2310  0.4509
 8950TIP3    H148265   1.552   0.076   5.825 -0.9621  2.5089 -0.6335
 8950TIP3    H248266   1.459   0.028   5.716  0.1166 -0.2495 -0.4152
 8951TIP3   OH248267   1.293   1.941  17.220  0.0013  0.1857 -0.5621
 8951TIP3    H148268   1.372   1.895  17.192  0.6780  0.2994  1.0525
 8951TIP3    H248269   1.272   2.000  17.147  1.2046 -0.0898 -1.1442
 8952TIP3   OH248270   5.445   3.986   2.032 -0.4728 -0.3716  0.0837
 8952TIP3    H148271   5.502   4.040   1.977  0.4103 -2.4665 -1.1575
 8952TIP3    H248272   5.389   3.939   1.969 -0.2503 -1.9387  1.0115
 8953TIP3   OH248273   3.684   0.103  10.885 -0.3971 -0.0485  0.2060
 8953TIP3    H148274   3.758   0.136  10.936  0.2159 -1.4095  0.2597
 8953TIP3    H248275   3.719   0.091  10.797 -1.1268  1.1812 -0.2642
 8954TIP3   OH248276   6.610   0.801   4.492  0.3676 -0.3405 -0.4527
 8954TIP3    H148277   6.530   0.754   4.467  1.0310  0.3625 -4.7879
 8954TIP3    H248278   6.588   0.893   4.482  0.5411  0.1582  2.8695
 8955TIP3   OH248279   5.494   6.139  10.985 -0.3336 -0.6318 -0.2780
 8955TIP3    H148280   5.475   6.054  10.945 -0.2922 -0.3793 -0.8381
 8955TIP3    H248281   5.408   6.177  11.003 -0.3519 -0.7499 -0.1081
 8956TIP3   OH248282   0.422   0.091   2.360 -0.4356 -0.7445  0.1179
 8956TIP3    H148283   0.339   0.077   2.314 -1.3862 -1.3407  1.9205
 8956TIP3    H248284   0.487   0.050   2.303 -1.2934  0.1150 -1.5450
 8957TIP3   OH248285   0.054   3.184   5.453  0.0460  0.3677  0.0505
 8957TIP3    H148286   0.091   3.187   5.542  1.8227  2.5557 -0.6600
 8957TIP3    H248287  -0.025   3.238   5.458 -1.7131 -2.1020  0.9437
 8958TIP3   OH248288   0.883   4.968  16.067  0.0980 -0.2569 -0.0899
 8958TIP3    H148289   0.821   4.896  16.064  1.7728 -1.7731 -0.3562
 8958TIP3    H248290   0.891   4.990  16.160  0.6443 -1.4423  0.1674
 8959TIP3   OH248291   4.012   4.297  16.173 -0.0893 -0.4519  0.1101
 8959TIP3    H148292   3.953   4.247  16.230 -0.8184 -0.5327 -0.7018
 8959TIP3    H248293   4.018   4.383  16.214  0.2296 -0.8320  0.8768
 8960TIP3   OH248294   6.628   5.686   4.590  0.9224  0.2758  0.6796
 8960TIP3    H148295   6.612   5.609   4.645 -1.0449  1.7535  2.3542
 8960TIP3    H248296   6.720   5.709   4.607  1.0691 -0.7774  1.3777
 8961TIP3   OH248297   0.357   6.030  11.369 -0.4642  0.1705  0.3101
 8961TIP3    H148298   0.319   6.046  11.456 -0.1176 -1.3540  0.7614
 8961TIP3    H248299   0.449   6.012  11.387 -0.6319 -1.3331 -0.2353
 8962TIP3   OH248300   5.405   5.399  16.047  0.5393 -0.4915  0.5501
 8962TIP3    H148301   5.440   5.396  16.136  1.9358 -2.7115  0.0031
 8962TIP3    H248302   5.310   5.405  16.059  0.7312 -0.2039  2.1653
 8963TIP3   OH248303   5.023   1.790   4.492 -0.0201 -0.7790 -0.1459
 8963TIP3    H148304   4.949   1.759   4.440 -0.1002 -1.0615  0.1333
 8963TIP3    H248305   5.100   1.759   4.445  0.0600  1.9490 -2.0388
 8964TIP3   OH248306   6.628   3.607   1.741  0.2111  0.0415  0.0929
 8964TIP3    H148307   6.533   3.595   1.740  0.2812 -0.5231 -1.1491
 8964TIP3    H248308   6.658   3.551   1.812 -0.2916 -0.6142 -0.2023
 8965TIP3   OH248309   4.273   1.451  11.824  0.3042  0.4994  0.3281
 8965TIP3    H148310   4.337   1.412  11.765  2.2950  4.4216 -0.4108
 8965TIP3    H248311   4.190   1.445  11.776  0.8594 -1.0137 -0.5212
 8966TIP3   OH248312   4.131   2.637  12.571  0.0690 -0.0373  0.2278
 8966TIP3    H148313   4.083   2.556  12.586 -0.1225  0.0973  0.3350
 8966TIP3    H248314   4.220   2.608  12.549 -0.1534 -0.3009 -0.3496
 8967TIP3   OH248315   6.635   1.224   2.491  0.0491 -0.0479  0.3387
 8967TIP3    H148316   6.554   1.234   2.542 -2.4686 -2.3781 -2.8008
 8967TIP3    H248317   6.653   1.312   2.458 -0.9282  0.5894  1.3952
 8968TIP3   OH248318   5.583   5.807   3.738  0.0521 -0.4072 -0.1134
 8968TIP3    H148319   5.594   5.864   3.814 -1.9224 -2.6802  2.0588
 8968TIP3    H248320   5.649   5.837   3.676  1.8912  1.4862  2.5307
 8969TIP3   OH248321   2.798   0.914   2.962  0.0553  0.5260  0.2377
 8969TIP3    H148322   2.808   0.921   2.867  0.0470 -0.4395  0.1531
 8969TIP3    H248323   2.839   0.830   2.984 -1.8054 -0.2885  0.8103
 8970TIP3   OH248324   4.282   5.626  13.759 -0.2973 -0.0900 -0.3302
 8970TIP3    H148325   4.194   5.588  13.758 -0.2550 -0.2028 -0.0055
 8970TIP3    H248326   4.300   5.648  13.668 -1.4818  1.8236 -0.1763
 8971TIP3   OH248327   0.753   2.284   4.808  0.6224  0.0326 -0.3474
 8971TIP3    H148328   0.751   2.188   4.808 -0.8887  0.0148 -1.9025
 8971TIP3    H248329   0.844   2.306   4.787  1.0192 -1.0458  0.1540
 8972TIP3   OH248330   5.470   2.731  15.037  1.0879 -1.1246  0.5110
 8972TIP3    H148331   5.434   2.762  15.120  0.4881  0.0345 -0.1701
 8972TIP3    H248332   5.394   2.700  14.988  1.2195 -0.3142 -0.2315
 8973TIP3   OH248333   1.901   0.383   1.194  0.2287  0.1947 -0.1610
 8973TIP3    H148334   1.963   0.386   1.267 -1.2538  0.5903  1.1349
 8973TIP3    H248335   1.837   0.452   1.214 -1.3502 -1.0334 -0.7791
 8974TIP3   OH248336   5.671   1.125   1.764 -0.3789 -0.5510  0.6189
 8974TIP3    H148337   5.618   1.118   1.843 -0.3681 -0.6461  0.6184
 8974TIP3    H248338   5.623   1.074   1.699 -0.3452 -0.5421  0.5869
 8975TIP3   OH248339   6.540   5.649  17.051 -0.0696 -1.1889  0.5328
 8975TIP3    H148340   6.526   5.566  17.006  1.0128 -0.9772 -0.2361
 8975TIP3    H248341   6.600   5.627  17.123  0.0417 -1.1118  0.4644
 8976TIP3   OH248342   5.879   4.303  15.860  0.6459  0.5262 -0.2007
 8976TIP3    H148343   5.862   4.247  15.936 -3.3896  1.3595 -0.2815
 8976TIP3    H248344   5.911   4.243  15.793  2.5484 -0.5177  1.5193
 8977TIP3   OH248345   4.367   3.075   1.924 -0.0230 -0.2017  0.5821
 8977TIP3    H148346   4.416   3.062   2.005  1.5471  1.1373 -0.0876
 8977TIP3    H248347   4.345   3.168   1.923 -1.2035 -0.4623  0.0779
 8978TIP3   OH248348   5.702   1.405  12.731 -0.1510  0.8703  0.3831
 8978TIP3    H148349   5.692   1.310  12.719 -0.3216  1.0128 -0.7129
 8978TIP3    H248350   5.620   1.442  12.696  0.1352  1.4450  0.3141
 8979TIP3   OH248351   6.481   4.253   3.444 -0.4019 -0.0554  0.9290
 8979TIP3    H148352   6.575   4.269   3.442 -0.4982  0.4826 -0.0205
 8979TIP3    H248353   6.441   4.340   3.444 -0.8972 -0.2730  0.5013
 8980TIP3   OH248354   2.482   0.942  15.768  0.2770 -0.2806  0.2863
 8980TIP3    H148355   2.458   0.914  15.679 -1.1567 -0.9270  0.8467
 8980TIP3    H248356   2.443   0.876  15.825  0.0440  0.8382  1.4635
 8981TIP3   OH248357   5.744   2.270   0.706 -0.3852  0.2277  0.2243
 8981TIP3    H148358   5.822   2.265   0.652  0.9806  1.5804  1.9306
 8981TIP3    H248359   5.690   2.196   0.679  1.2940 -0.4993 -1.2881
 8982TIP3   OH248360   2.356   3.301  15.882 -0.4760  0.4778 -0.6046
 8982TIP3    H148361   2.313   3.381  15.851  1.3398  1.0311 -1.8098
 8982TIP3    H248362   2.446   3.308  15.852  0.6203 -0.4889  2.1282
 8983TIP3   OH248363   3.421   2.898   0.467  0.1613 -0.0566 -0.0539
 8983TIP3    H148364   3.371   2.970   0.430  1.3507 -0.1154 -1.9119
 8983TIP3    H248365   3.427   2.834   0.396  0.7123 -1.1621  0.9491
 8984TIP3   OH248366   6.020   1.994   2.654 -0.5191  0.2810  0.3015
 8984TIP3    H148367   5.942   2.033   2.693 -0.5003 -0.4001  1.0689
 8984TIP3    H248368   6.071   1.964   2.729 -0.0401 -0.2534 -0.2271
 8985TIP3   OH248369   5.510   2.094  15.694  0.1789  0.2164 -0.2113
 8985TIP3    H148370   5.569   2.118  15.623  0.3803 -1.2104 -0.5583
 8985TIP3    H248371   5.550   2.133  15.772  0.1269  1.5229 -0.7998
 8986TIP3   OH248372   3.063   0.531  13.151 -0.2263 -0.1636  0.2771
 8986TIP3    H148373   3.038   0.481  13.229 -0.7508 -0.0576  0.1805
 8986TIP3    H248374   3.057   0.468  13.079  1.2393 -0.5304  0.4495
 8987TIP3   OH248375   4.698   0.278  15.538 -0.3369  0.8720 -0.0626
 8987TIP3    H148376   4.624   0.239  15.492 -1.7828  0.1032  2.6974
 8987TIP3    H248377   4.768   0.214  15.530 -0.7339  0.5185 -0.7431
 8988TIP3   OH248378   2.929   1.689   0.545 -0.0180 -0.1109 -0.5466
 8988TIP3    H148379   2.882   1.719   0.468 -0.2978  0.7889 -0.0399
 8988TIP3    H248380   2.869   1.629   0.588 -0.1616 -0.0320 -0.6354
 8989TIP3   OH248381   1.455   1.046  10.735  0.0771  0.2766  0.2855
 8989TIP3    H148382   1.520   1.113  10.716 -1.1355  1.3415 -0.3337
 8989TIP3    H248383   1.499   0.963  10.716  1.1725  0.9733 -0.3265
 8990TIP3   OH248384   3.483   2.255   0.871 -0.2129  0.1659  0.0328
 8990TIP3    H148385   3.521   2.246   0.783 -1.4696 -0.0803 -0.5046
 8990TIP3    H248386   3.528   2.331   0.908  2.0223 -1.1120  0.1041
 8991TIP3   OH248387   2.002   6.357   5.382 -0.4855  0.1431 -0.0169
 8991TIP3    H148388   2.096   6.374   5.389 -0.5747  0.6815 -0.0420
 8991TIP3    H248389   1.995   6.264   5.363 -0.0047 -0.1561  1.1821
 8992TIP3   OH248390   2.837   3.113  13.598 -0.4167 -0.3989 -0.2084
 8992TIP3    H148391   2.767   3.104  13.533 -0.0904 -1.4204 -0.4263
 8992TIP3    H248392   2.834   3.032  13.648  1.0744 -0.7757 -0.6942
 8993TIP3   OH248393   4.669   1.553  15.381 -0.1382  0.2885 -0.2478
 8993TIP3    H148394   4.715   1.571  15.463 -1.8378  0.7754  0.6520
 8993TIP3    H248395   4.738   1.525  15.320  1.1045 -0.4839  1.4414
 8994TIP3   OH248396   6.750   0.041   0.995  0.0409  0.4597  0.1011
 8994TIP3    H148397   6.792   0.057   1.080  2.5410 -0.6710 -0.8404
 8994TIP3    H248398   6.693  -0.034   1.010  0.5250  0.2178  0.7920
 8995TIP3   OH248399   6.104   5.355   3.637  0.5610 -0.1453  0.0208
 8995TIP3    H148400   6.130   5.334   3.547  0.7146 -0.4793  0.1418
 8995TIP3    H248401   6.049   5.281   3.664 -0.2404  0.3907 -0.1113
 8996TIP3   OH248402   1.415   2.284   1.528  0.0553 -0.0814 -0.2740
 8996TIP3    H148403   1.451   2.225   1.461  1.4320  1.0537 -0.5746
 8996TIP3    H248404   1.461   2.367   1.514  0.7443  0.0554  2.3992
 8997TIP3   OH248405   3.618   4.078   0.255 -0.0700  0.4951  0.0213
 8997TIP3    H148406   3.709   4.058   0.280 -0.6838  0.1646  2.2675
 8997TIP3    H248407   3.567   4.059   0.334 -2.3410 -0.8419 -1.6421
 8998TIP3   OH248408   4.918   0.054  16.605  0.2718 -0.0912 -0.0695
 8998TIP3    H148409   4.927   0.045  16.510  0.7034  2.6658 -0.3540
 8998TIP3    H248410   5.006   0.074  16.636  0.0179 -0.3361  0.8547
 8999TIP3   OH248411   1.382   3.200   3.868 -0.0157  0.0876  0.1270
 8999TIP3    H148412   1.392   3.112   3.833 -0.6435  0.2519 -0.4923
 8999TIP3    H248413   1.356   3.186   3.959  0.2083 -0.3622  0.1249
 9000TIP3   OH248414   6.226   0.534  14.397 -0.6102  0.1377  0.8407
 9000TIP3    H148415   6.165   0.603  14.422  0.8902  1.5822  0.6865
 9000TIP3    H248416   6.303   0.548  14.452  0.1560 -0.7527  0.0419
 9001TIP3   OH248417   3.564   1.366   2.328  0.0921 -0.0648  0.2698
 9001TIP3    H148418   3.507   1.441   2.316 -0.1179 -0.3975 -0.9175
 9001TIP3    H248419   3.652   1.400   2.310  0.3163  0.4639  2.1672
 9002TIP3   OH248420   3.976   3.288  14.239  0.5692 -0.0406  0.1362
 9002TIP3    H148421   3.973   3.197  14.270  0.5918 -0.8294 -1.9994
 9002TIP3    H248422   3.892   3.325  14.265 -0.2270 -1.2827 -0.5661
 9003TIP3   OH248423   3.958   0.892   3.052  0.6134  0.3568 -0.4484
 9003TIP3    H148424   4.044   0.903   3.092 -0.1881  0.5686  1.3299
 9003TIP3    H248425   3.920   0.817   3.097 -0.3705  0.6581 -0.7498
 9004TIP3   OH248426   2.319   4.685  13.580  0.8247  0.1881 -0.3355
 9004TIP3    H148427   2.331   4.627  13.505 -1.6759  0.2438 -0.8873
 9004TIP3    H248428   2.298   4.770  13.541 -3.2606 -0.3773  0.2080
 9005TIP3   OH248429   2.107   2.452  11.632  0.6427  0.0649  0.2728
 9005TIP3    H148430   2.103   2.360  11.608  1.8647  0.8446 -3.6079
 9005TIP3    H248431   2.189   2.460  11.682  0.2689 -0.9748  1.0909
 9006TIP3   OH248432   5.058   5.894   2.172  0.3759 -0.0362  0.6187
 9006TIP3    H148433   5.065   5.915   2.079 -0.3436  0.2089  0.6128
 9006TIP3    H248434   5.148   5.876   2.199  0.8516  1.6063  0.2666
 9007TIP3   OH248435   1.369   2.705   0.834  0.6815 -0.2409 -0.2030
 9007TIP3    H148436   1.323   2.727   0.915 -0.7582  0.8642 -1.2765
 9007TIP3    H248437   1.329   2.622   0.806  0.0055  0.2165 -0.6205
 9008TIP3   OH248438   4.493   2.195   4.639  0.2320  0.1409  0.0297
 9008TIP3    H148439   4.411   2.153   4.612 -0.0581  1.3773 -1.0897
 9008TIP3    H248440   4.466   2.258   4.707  0.1985  0.7599 -0.5495
 9009TIP3   OH248441   5.132   6.530  12.000 -0.5322 -0.3515  0.7659
 9009TIP3    H148442   5.083   6.449  11.994 -1.5936  0.2516  1.0072
 9009TIP3    H248443   5.065   6.598  12.010  0.1964  0.8020 -1.5057
 9010TIP3   OH248444   1.840   1.966  13.643  0.5254  0.2128 -0.2950
 9010TIP3    H148445   1.903   1.912  13.597 -0.5309 -1.9883  0.7114
 9010TIP3    H248446   1.889   2.046  13.665  2.0709 -0.2055 -2.0109
 9011TIP3   OH248447   2.242   0.817   0.971 -0.8119  0.0706 -0.0109
 9011TIP3    H148448   2.239   0.908   0.942 -0.5607  0.5212  1.3362
 9011TIP3    H248449   2.199   0.817   1.056 -1.4861 -1.2237 -0.3166
 9012TIP3   OH248450   6.035   3.877  17.150 -0.4061  0.4353 -0.6169
 9012TIP3    H148451   6.107   3.814  17.150 -0.6385  0.1638 -0.1468
 9012TIP3    H248452   5.969   3.836  17.092 -0.4235  0.3985 -0.5708
 9013TIP3   OH248453   2.822   2.418  13.698 -0.4940  0.4006  0.0785
 9013TIP3    H148454   2.754   2.453  13.639  0.2935  0.5943 -0.7412
 9013TIP3    H248455   2.897   2.476  13.685 -0.2525  0.3617  1.1909
 9014TIP3   OH248456   6.694   6.129  14.936 -0.2866  0.0221 -0.4682
 9014TIP3    H148457   6.614   6.166  14.900 -1.1080  0.9246  2.0748
 9014TIP3    H248458   6.672   6.038  14.958 -0.3850  0.0479 -0.4625
 9015TIP3   OH248459   6.336   1.592  12.153  0.2534  0.2274  0.2453
 9015TIP3    H148460   6.418   1.543  12.145 -0.6028 -1.1404 -0.5119
 9015TIP3    H248461   6.348   1.669  12.097  0.8001 -0.2815 -0.3425
 9016TIP3   OH248462   4.060   2.333  16.512 -0.6562 -0.5164 -0.1755
 9016TIP3    H148463   4.052   2.323  16.418 -1.5644 -0.5745 -0.1015
 9016TIP3    H248464   3.981   2.379  16.539 -0.7420 -1.0975  0.6357
 9017TIP3   OH248465   0.782   2.279   0.355  0.5362 -0.7649 -0.2990
 9017TIP3    H148466   0.799   2.186   0.339 -1.6448 -1.2999  0.2401
 9017TIP3    H248467   0.749   2.283   0.444  0.3903  0.5204 -0.3881
 9018TIP3   OH248468   5.439   3.540  13.379  0.3782  0.6007  0.0775
 9018TIP3    H148469   5.360   3.535  13.325 -0.1583  0.9078  0.8034
 9018TIP3    H248470   5.443   3.631  13.407  0.4283  0.3647  0.8598
 9019TIP3   OH248471   5.584   1.417   2.215 -0.0314  0.3338 -0.1690
 9019TIP3    H148472   5.607   1.324   2.219 -2.3483 -0.3304 -0.5841
 9019TIP3    H248473   5.640   1.453   2.146  0.6877 -0.8201 -0.2088
 9020TIP3   OH248474   4.143   5.988   1.592 -0.0831  0.3181  0.4030
 9020TIP3    H148475   4.105   5.904   1.620  0.9407 -1.0332 -1.9844
 9020TIP3    H248476   4.070   6.034   1.550 -0.1878 -0.2348 -0.0271
 9021TIP3   OH248477   0.639   4.173  15.611  0.6674  0.0866 -0.3460
 9021TIP3    H148478   0.725   4.191  15.649  1.2082 -1.6857 -0.6253
 9021TIP3    H248479   0.620   4.083  15.637 -1.3174  0.5704  0.0692
 9022TIP3   OH248480   4.229   1.158  11.970 -0.6915  0.3161 -0.2257
 9022TIP3    H148481   4.221   1.237  11.916 -0.1199  0.0542 -0.7014
 9022TIP3    H248482   4.290   1.183  12.039  0.1084  0.0566 -0.8285
 9023TIP3   OH248483   6.195   2.322  17.317  0.0022  0.0765 -0.5502
 9023TIP3    H148484   6.264   2.377  17.356 -1.0969  2.0973 -1.2939
 9023TIP3    H248485   6.173   2.367  17.235 -1.1858 -1.3390 -1.0431
 9024TIP3   OH248486   0.170   0.464  10.450  0.2127 -0.3381 -0.4762
 9024TIP3    H148487   0.259   0.458  10.486  0.0485 -0.3374 -0.0599
 9024TIP3    H248488   0.146   0.556  10.461 -0.0492 -0.4549 -0.0781
 9025TIP3   OH248489   4.212   6.227   3.042  0.8293 -0.6034 -0.0961
 9025TIP3    H148490   4.274   6.289   3.079  1.6061 -1.5810  0.3000
 9025TIP3    H248491   4.266   6.155   3.011 -0.0846 -1.3582  0.0138
 9026TIP3   OH248492   1.825   5.936  11.620  0.3969 -0.2742 -0.0316
 9026TIP3    H148493   1.791   6.023  11.640  0.8358 -0.4931  1.7743
 9026TIP3    H248494   1.774   5.876  11.674  1.7011 -0.8862  0.5695
 9027TIP3   OH248495   4.577   2.441  12.144 -0.9524  0.1777 -0.2761
 9027TIP3    H148496   4.509   2.490  12.189 -1.2001 -1.2051  0.9445
 9027TIP3    H248497   4.637   2.415  12.214  1.1353  1.7501 -1.3669
 9028TIP3   OH248498   4.070   1.098   1.787  0.6698 -0.2070  0.0123
 9028TIP3    H148499   4.003   1.058   1.842  0.7506 -2.0798 -1.1259
 9028TIP3    H248500   4.028   1.174   1.748 -0.4980 -0.7988  0.0756
 9029TIP3   OH248501   4.757   4.933   0.852 -0.7535  0.1550 -0.2125
 9029TIP3    H148502   4.708   4.989   0.792  0.7497 -0.4608 -2.1147
 9029TIP3    H248503   4.700   4.857   0.865 -1.4332  0.6589 -0.1785
 9030TIP3   OH248504   2.662   1.935   5.489  0.0595  0.1438  0.3135
 9030TIP3    H148505   2.604   1.867   5.524  0.5296  0.5791  2.0482
 9030TIP3    H248506   2.608   1.983   5.426 -1.6117  0.7483  2.0980
 9031TIP3   OH248507   1.608   3.914   4.642  0.2008 -0.2211  0.1045
 9031TIP3    H148508   1.677   3.978   4.659  0.3283 -0.5431  0.8046
 9031TIP3    H248509   1.550   3.920   4.718 -0.9879  0.6117 -0.8401
 9032TIP3   OH248510   4.984   2.823  15.800 -0.6063  0.6439 -0.2823
 9032TIP3    H148511   4.981   2.900  15.744  1.5681  2.2950  1.6662
 9032TIP3    H248512   5.052   2.768  15.763 -0.3174  0.9456 -0.2069
 9033TIP3   OH248513   0.491   5.201  14.752  0.2379 -0.5854  0.3195
 9033TIP3    H148514   0.444   5.280  14.723 -0.9276 -0.5190  2.2285
 9033TIP3    H248515   0.547   5.232  14.823 -0.2140 -1.4547  1.0690
 9034TIP3   OH248516   1.954   6.006   2.188  0.1016 -0.4139  0.0823
 9034TIP3    H148517   1.988   6.015   2.099 -1.2428  1.5290 -0.3097
 9034TIP3    H248518   1.870   6.053   2.186  1.0356  1.6101  2.9220
 9035TIP3   OH248519   2.643   0.084  12.056 -0.7812 -0.0716  0.1658
 9035TIP3    H148520   2.655   0.158  11.997 -0.6840 -1.7242 -2.0268
 9035TIP3    H248521   2.724   0.079  12.105 -0.4273  0.7180 -0.3078
 9036TIP3   OH248522   3.058   3.676   6.173 -0.2813 -0.2693 -0.2917
 9036TIP3    H148523   3.034   3.763   6.141  1.2972 -0.1091 -1.1301
 9036TIP3    H248524   3.029   3.616   6.104 -2.1028 -0.5390  0.6433
 9037TIP3   OH248525   0.686   5.072   1.940  0.4708 -0.1810 -0.2200
 9037TIP3    H148526   0.623   5.075   2.012 -0.7454  0.1394 -1.2795
 9037TIP3    H248527   0.740   5.151   1.952 -1.0631  0.9967 -0.8432
 9038TIP3   OH248528   1.001   6.750   2.822  0.1591  0.2756 -0.1874
 9038TIP3    H148529   1.083   6.701   2.828 -0.6762 -1.1330  0.2880
 9038TIP3    H248530   0.968   6.754   2.912 -0.7036  0.0728 -0.4812
 9039TIP3   OH248531   0.615   4.481  12.756 -0.0150  0.3526 -0.3956
 9039TIP3    H148532   0.659   4.511  12.677 -1.7963  0.3701 -1.4266
 9039TIP3    H248533   0.684   4.438  12.807  1.1174  0.0792 -2.0789
 9040TIP3   OH248534   0.601   0.452   6.375  0.2097 -0.1375 -0.1236
 9040TIP3    H148535   0.690   0.487   6.367  0.4295 -0.8130 -0.7459
 9040TIP3    H248536   0.552   0.520   6.422  1.1154  0.1298  0.4549
 9041TIP3   OH248537   3.987   2.192  12.576 -0.0855 -0.0088  0.3925
 9041TIP3    H148538   4.074   2.199  12.615  0.1806 -3.0130  0.6336
 9041TIP3    H248539   4.003   2.149  12.492 -1.2568  0.3087 -0.0006
 9042TIP3   OH248540   3.978   0.252   4.440 -0.1848  0.1196  0.2074
 9042TIP3    H148541   3.936   0.200   4.509  2.6606 -0.5336  1.6027
 9042TIP3    H248542   4.007   0.187   4.376  1.0338  0.2180  0.6307
 9043TIP3   OH248543   5.139   6.229  10.990 -0.6749 -0.3960 -0.1667
 9043TIP3    H148544   5.139   6.311  10.941  0.1767 -2.2514 -3.6321
 9043TIP3    H248545   5.203   6.243  11.060  2.3154  0.8396 -2.8941
 9044TIP3   OH248546   2.812   5.511   1.088 -0.3063  0.0626  0.8188
 9044TIP3    H148547   2.777   5.598   1.108 -0.5320 -0.0165  0.7645
 9044TIP3    H248548   2.739   5.451   1.105 -1.2447  0.1563 -2.2712
 9045TIP3   OH248549   1.787   2.775   1.364  0.1619 -0.6246  0.5334
 9045TIP3    H148550   1.804   2.688   1.400 -0.0492 -0.3285  1.3804
 9045TIP3    H248551   1.708   2.804   1.411 -1.1615 -0.9095 -1.4003
 9046TIP3   OH248552   1.425   1.953   3.526  0.2399 -0.1476  0.2026
 9046TIP3    H148553   1.414   1.858   3.515  1.3374 -0.2083 -0.4936
 9046TIP3    H248554   1.424   1.988   3.437  0.4134  0.4396  0.4264
 9047TIP3   OH248555   3.598   6.034   4.777 -0.5316  0.2065  0.0749
 9047TIP3    H148556   3.620   5.951   4.820 -0.5435 -0.0265 -0.3602
 9047TIP3    H248557   3.526   6.070   4.829 -1.5007 -0.7582 -0.5458
 9048TIP3   OH248558   1.308   2.475  15.539 -0.0885 -0.4436 -0.2693
 9048TIP3    H148559   1.362   2.538  15.491  0.9465 -1.3522 -0.3177
 9048TIP3    H248560   1.232   2.460  15.482 -0.7195  1.2800  0.0534
 9049TIP3   OH248561   4.227   2.352   3.053  0.2843 -0.7180  0.3444
 9049TIP3    H148562   4.264   2.438   3.071 -1.9991  0.9626 -2.0639
 9049TIP3    H248563   4.283   2.315   2.985 -1.0917  0.9574 -1.8682
 9050TIP3   OH248564   0.724   6.655   1.643  0.4141 -0.3838  0.7560
 9050TIP3    H148565   0.708   6.598   1.719 -0.4274 -0.9743  0.1509
 9050TIP3    H248566   0.740   6.741   1.682 -3.0462  0.0485  1.5850
 9051TIP3   OH248567   1.859   1.510  15.254 -0.2364  0.3641 -0.1648
 9051TIP3    H148568   1.941   1.524  15.302  1.4438 -2.2098 -2.0140
 9051TIP3    H248569   1.803   1.462  15.316 -0.7335  2.7193  1.3529
 9052TIP3   OH248570   3.325   5.484  16.477  0.3271 -0.4625 -0.1733
 9052TIP3    H148571   3.324   5.518  16.387 -0.0714 -0.2144 -0.0805
 9052TIP3    H248572   3.416   5.459  16.492  0.4486 -0.2632 -0.5591
 9053TIP3   OH248573   3.532   1.813   4.394  0.1553  0.1120 -0.0441
 9053TIP3    H148574   3.489   1.880   4.340  0.5937 -1.3472 -2.3266
 9053TIP3    H248575   3.461   1.757   4.424  0.1286 -0.5997 -1.3695
 9054TIP3   OH248576   1.443   0.841   3.717 -0.0201 -0.2811  0.2475
 9054TIP3    H148577   1.463   0.807   3.804  0.2532  1.3962  0.8743
 9054TIP3    H248578   1.353   0.814   3.700  0.2497 -1.4670  0.6098
 9055TIP3   OH248579   2.741   5.789  13.155 -0.0676 -0.4372  0.1699
 9055TIP3    H148580   2.677   5.799  13.225  0.4258 -2.1643  0.9433
 9055TIP3    H248581   2.713   5.850  13.087 -0.8962  0.8749  1.6268
 9056TIP3   OH248582   0.221   5.737  12.939  0.0024 -0.1209  0.1837
 9056TIP3    H148583   0.200   5.681  12.865 -1.6729 -0.2867  0.7541
 9056TIP3    H248584   0.212   5.681  13.016  2.0425 -0.0410  0.5429
 9057TIP3   OH248585   4.872   4.135  17.308 -0.0973 -0.5435 -0.0967
 9057TIP3    H148586   4.859   4.172  17.220 -3.8235 -1.3353 -0.0565
 9057TIP3    H248587   4.832   4.199  17.367  0.4866 -0.9983  0.8121
 9058TIP3   OH248588   0.941   2.051   1.757  0.2563  0.2055  0.5487
 9058TIP3    H148589   0.891   2.074   1.835 -1.2891 -0.6452 -0.1406
 9058TIP3    H248590   1.018   2.107   1.760 -0.8963  1.8161  1.5024
 9059TIP3   OH248591   2.461   5.094  13.730  0.0289 -0.2713 -0.0096
 9059TIP3    H148592   2.462   5.120  13.637  0.8955 -1.1155 -0.2488
 9059TIP3    H248593   2.511   5.162  13.775 -0.0206 -0.0896 -0.2276
 9060TIP3   OH248594   4.424   5.359  12.062 -0.2597  0.1775  0.5050
 9060TIP3    H148595   4.374   5.302  12.003  0.9692 -0.6163  0.1857
 9060TIP3    H248596   4.400   5.448  12.035 -1.8435 -0.1625  0.6846
 9061TIP3   OH248597   6.138   0.884   2.722 -0.0710  0.0888 -0.2934
 9061TIP3    H148598   6.155   0.812   2.783 -2.1783  0.5501  0.9814
 9061TIP3    H248599   6.157   0.963   2.772  1.4825  0.4773 -1.4273
 9062TIP3   OH248600   2.842   6.118   2.507  0.4684  1.0293 -0.2235
 9062TIP3    H148601   2.823   6.053   2.575  0.2011  1.3486  0.0127
 9062TIP3    H248602   2.759   6.164   2.495 -0.2908 -0.7520 -2.6854
 9063TIP3   OH248603   4.852   4.026  11.652 -0.2194 -0.4666 -0.3650
 9063TIP3    H148604   4.849   4.098  11.715 -0.3232 -0.0109 -0.8866
 9063TIP3    H248605   4.941   4.028  11.617 -0.6127  0.2936 -1.3839
 9064TIP3   OH248606   1.636   3.970  10.893 -0.2755  0.3310 -0.6625
 9064TIP3    H148607   1.628   3.903  10.825 -0.3808 -0.8085  0.4433
 9064TIP3    H248608   1.718   4.014  10.873  0.7597 -1.3626 -0.3639
 9065TIP3   OH248609   3.158   4.890  16.491 -0.0999  0.0607  0.3643
 9065TIP3    H148610   3.120   4.852  16.412 -0.8095  0.9208  0.2922
 9065TIP3    H248611   3.141   4.825  16.559  1.0026 -0.9469 -0.2747
 9066TIP3   OH248612   5.360   1.948   3.285 -0.3514 -0.0264  0.2450
 9066TIP3    H148613   5.409   2.031   3.287  0.1166 -0.3162  1.2327
 9066TIP3    H248614   5.377   1.913   3.197  1.0493 -0.0139  0.4833
 9067TIP3   OH248615   0.107   3.221   3.937  0.3891 -0.4849  0.2817
 9067TIP3    H148616   0.145   3.218   4.025  1.2588 -2.0797 -0.1115
 9067TIP3    H248617   0.183   3.220   3.878 -0.1917  0.1236 -0.5034
 9068TIP3   OH248618   1.280   5.224   0.270  0.2270 -0.2094  0.4529
 9068TIP3    H148619   1.240   5.163   0.333  0.8689  0.0499  1.1280
 9068TIP3    H248620   1.374   5.218   0.287  0.6239 -1.6377 -1.8686
 9069TIP3   OH248621   1.552   1.054  16.722 -0.4142 -0.0032 -0.1205
 9069TIP3    H148622   1.519   1.076  16.634 -1.4447  0.5373  0.3842
 9069TIP3    H248623   1.501   0.978  16.748 -0.9962  0.5883  0.5027
 9070TIP3   OH248624   4.875   6.421   1.106 -0.6813  0.5965  0.0106
 9070TIP3    H148625   4.850   6.492   1.165 -2.6033  1.0465 -1.2566
 9070TIP3    H248626   4.967   6.438   1.086 -0.2412  0.9734  2.0580
 9071TIP3   OH248627   0.889   3.044   6.011  0.5273 -0.0030  0.3174
 9071TIP3    H148628   0.925   2.956   6.021  0.0700 -0.6279 -2.5112
 9071TIP3    H248629   0.795   3.030   6.000  0.3942  0.8670  0.2941
 9072TIP3   OH248630   1.079   3.049   0.953  0.8342 -0.0852  0.4064
 9072TIP3    H148631   1.033   3.063   1.036 -1.3469  0.7936 -0.8825
 9072TIP3    H248632   1.172   3.054   0.976  0.2827  1.2287  2.6112
 9073TIP3   OH248633   0.819   4.230  11.749  0.7862 -0.2984 -0.2996
 9073TIP3    H148634   0.782   4.315  11.771 -2.0606 -1.4412 -0.3090
 9073TIP3    H248635   0.758   4.192  11.686  0.7991 -3.1914  1.2493
 9074TIP3   OH248636   2.330   2.819   1.048  0.0662  0.1574 -0.6126
 9074TIP3    H148637   2.271   2.825   1.122  2.1456 -1.0683  1.2558
 9074TIP3    H248638   2.291   2.752   0.991 -2.0305  1.7710 -1.1946
 9075TIP3   OH248639   2.641   6.150  13.067  0.3464  0.4665 -0.1081
 9075TIP3    H148640   2.732   6.164  13.042 -0.4620  2.9350 -2.0986
 9075TIP3    H248641   2.593   6.147  12.985 -1.9014  4.3521  0.7619
 9076TIP3   OH248642   2.575   4.344   4.883  0.0902  0.4118  0.1090
 9076TIP3    H148643   2.587   4.342   4.978 -1.0353  1.2688  0.2884
 9076TIP3    H248644   2.527   4.425   4.867  0.7797  0.5785 -1.2622
 9077TIP3   OH248645   1.943   3.874  13.896 -0.0363 -0.5305 -0.0341
 9077TIP3    H148646   1.850   3.882  13.916 -0.3895 -0.7450 -1.5121
 9077TIP3    H248647   1.980   3.959  13.920 -0.7205 -0.2303 -0.0202
 9078TIP3   OH248648   0.826   3.979  13.772  0.1198 -0.2581 -0.3834
 9078TIP3    H148649   0.744   3.946  13.809 -0.2697  0.3422 -0.6905
 9078TIP3    H248650   0.821   3.957  13.679  0.1752  0.0294 -0.4557
 9079TIP3   OH248651   4.773   0.802  13.883 -0.3144 -0.0492  0.5546
 9079TIP3    H148652   4.756   0.892  13.909  0.6534  0.3008  0.0185
 9079TIP3    H248653   4.868   0.798  13.869 -0.4148 -1.0054  0.0416
 9080TIP3   OH248654   5.116   6.654  13.546 -0.1818 -0.1438  0.1841
 9080TIP3    H148655   5.092   6.578  13.598 -3.3986 -0.5990 -1.6693
 9080TIP3    H248656   5.186   6.623  13.488 -0.6316 -1.3285  0.2541
 9081TIP3   OH248657   5.391   5.214  13.102  0.4858  0.0803 -0.1332
 9081TIP3    H148658   5.339   5.134  13.116 -1.4446  1.2095 -0.4341
 9081TIP3    H248659   5.480   5.183  13.090 -0.2535 -2.0591 -0.5353
 9082TIP3   OH248660   6.757   5.540  17.173 -0.2730  0.5228  0.4519
 9082TIP3    H148661   6.809   5.461  17.182 -2.1755 -0.7935  0.4434
 9082TIP3    H248662   6.789   5.598  17.243  0.8164 -0.4135  0.7623
 9083TIP3   OH248663   0.204   4.868  15.879  0.4190  0.2977  0.2565
 9083TIP3    H148664   0.233   4.959  15.873  0.0550  0.4391  0.5994
 9083TIP3    H248665   0.116   4.869  15.840  1.2719 -0.3347 -1.8368
 9084TIP3   OH248666   0.602   0.818  14.920 -0.7262  0.4688 -0.1281
 9084TIP3    H148667   0.509   0.842  14.921 -1.4737 -1.8671  3.4096
 9084TIP3    H248668   0.623   0.799  15.011  3.4044  1.2013 -0.7166
 9085TIP3   OH248669   2.751   4.070  11.395 -0.1575 -0.0920 -0.1707
 9085TIP3    H148670   2.703   4.044  11.473  0.7331 -0.4720  0.2728
 9085TIP3    H248671   2.772   4.162  11.409 -1.1100  0.1912 -0.5627
 9086TIP3   OH248672   1.282   2.514   1.610 -0.2112  0.3694  0.2544
 9086TIP3    H148673   1.209   2.513   1.671  0.0706  0.3140  0.5890
 9086TIP3    H248674   1.241   2.529   1.524 -0.6426 -0.0145  0.3930
 9087TIP3   OH248675   5.489   6.233   5.267 -0.1194  0.2393 -0.3569
 9087TIP3    H148676   5.516   6.295   5.335 -1.0399 -0.2192  0.4610
 9087TIP3    H248677   5.479   6.150   5.313  2.0408 -0.7891 -1.6132
 9088TIP3   OH248678   1.962   2.290  13.320  0.2680 -0.0490  0.1859
 9088TIP3    H148679   2.051   2.305  13.288  0.6128 -0.0705  1.1047
 9088TIP3    H248680   1.961   2.198  13.345  0.2398  0.1486  0.9285
 9089TIP3   OH248681   2.896   4.501  13.973  0.1685 -0.5380 -0.1812
 9089TIP3    H148682   2.950   4.579  13.959  0.7261 -1.0395 -0.8834
 9089TIP3    H248683   2.852   4.487  13.889 -0.8773 -0.2732  0.3127
 9090TIP3   OH248684   0.415   3.833   4.615  0.7908 -0.3474 -0.3216
 9090TIP3    H148685   0.354   3.863   4.548  0.7317 -0.3477 -0.2682
 9090TIP3    H248686   0.389   3.743   4.633 -0.0831  0.0902  0.6987
 9091TIP3   OH248687   2.752   3.455   2.207 -0.1188  0.6126  0.0806
 9091TIP3    H148688   2.798   3.449   2.123  0.1831 -1.3903  0.3346
 9091TIP3    H248689   2.660   3.462   2.184 -0.0651 -0.2459 -0.4435
 9092TIP3   OH248690   3.388   1.676  11.768 -0.1415  0.5651  0.1300
 9092TIP3    H148691   3.402   1.762  11.729  0.9709  0.2528 -0.2068
 9092TIP3    H248692   3.401   1.615  11.695  0.0717  0.0724  0.5746
 9093TIP3   OH248693   5.806   6.674  15.980 -0.6520  0.0002 -0.5229
 9093TIP3    H148694   5.848   6.596  16.016 -0.0739  0.7939  0.5941
 9093TIP3    H248695   5.718   6.646  15.957 -0.1591 -1.2041 -1.0451
 9094TIP3   OH248696   1.163   0.657  14.849  0.3514  0.2157  0.0776
 9094TIP3    H148697   1.242   0.702  14.879  0.5473 -0.7128  0.9880
 9094TIP3    H248698   1.187   0.564  14.847 -0.4421  0.0095 -0.5320
 9095TIP3   OH248699   2.877   5.885   2.027 -0.1398 -0.0216 -0.8989
 9095TIP3    H148700   2.825   5.958   1.995 -0.3635  0.2640  0.0681
 9095TIP3    H248701   2.872   5.892   2.123  0.6213 -0.7413 -0.7906
 9096TIP3   OH248702   3.937   1.629   0.181 -0.1389 -0.3154 -0.2859
 9096TIP3    H148703   3.902   1.623   0.092  1.6994 -0.9094 -1.0206
 9096TIP3    H248704   3.881   1.694   0.224 -1.3127 -0.2974 -1.7438
 9097TIP3   OH248705   1.162   5.102   1.917  0.5122 -0.3062  0.3843
 9097TIP3    H148706   1.226   5.131   1.852  0.3310 -1.5211 -0.3654
 9097TIP3    H248707   1.209   5.038   1.970  0.3129 -0.2008  0.6873
 9098TIP3   OH248708   0.709   4.128   6.102  0.0039 -0.1624  0.5572
 9098TIP3    H148709   0.616   4.146   6.091  0.2270  1.3524  0.9351
 9098TIP3    H248710   0.737   4.186   6.173  1.3227 -0.2794  0.1673
 9099TIP3   OH248711   6.198   5.513  14.129  0.1980 -0.0536 -0.1384
 9099TIP3    H148712   6.204   5.585  14.191 -1.2878 -1.9534  2.4027
 9099TIP3    H248713   6.107   5.516  14.098  0.2907 -0.4823 -0.4534
 9100TIP3   OH248714   6.626   3.200   4.763  0.4256 -0.0336  0.8239
 9100TIP3    H148715   6.620   3.175   4.856  0.4474  0.7799  1.0479
 9100TIP3    H248716   6.633   3.116   4.717 -1.7924 -0.5811  1.3662
 9101TIP3   OH248717   0.737   2.781  12.304  0.1810  0.1481  0.0286
 9101TIP3    H148718   0.676   2.839  12.350 -0.8556  0.0155 -1.1572
 9101TIP3    H248719   0.700   2.694  12.313  0.9547 -0.1425  0.5120
 9102TIP3   OH248720   0.430   4.267  11.431 -0.4025  0.3640  0.2781
 9102TIP3    H148721   0.378   4.327  11.485  1.0999  1.8029  0.2043
 9102TIP3    H248722   0.494   4.230  11.492  0.9375  1.5605 -0.3501
 9103TIP3   OH248723   4.083   3.904  13.517 -0.1922 -0.5076 -0.3503
 9103TIP3    H148724   4.118   3.975  13.463  0.3609 -0.6909 -0.2350
 9103TIP3    H248725   4.073   3.831  13.456  1.3163 -1.0059 -0.0317
 9104TIP3   OH248726   0.147   2.077   3.538 -0.4913 -0.0642  0.0654
 9104TIP3    H148727   0.105   2.162   3.523  0.4294  0.2990 -0.5059
 9104TIP3    H248728   0.193   2.059   3.457  1.2274 -0.0077  0.9865
 9105TIP3   OH248729   1.375   0.115   2.497  0.2502  0.1411 -0.3335
 9105TIP3    H148730   1.425   0.113   2.415  1.2433 -0.9731  0.2818
 9105TIP3    H248731   1.285   0.096   2.470  0.3940  0.7053 -1.2698
 9106TIP3   OH248732   3.815   5.461   5.601  0.6479 -0.2597 -0.0886
 9106TIP3    H148733   3.809   5.553   5.576  1.9888 -0.4783 -1.3684
 9106TIP3    H248734   3.898   5.454   5.648 -0.5250 -0.4152  2.0944
 9107TIP3   OH248735   2.143   1.591  13.119 -0.3408 -0.2260  0.3745
 9107TIP3    H148736   2.101   1.505  13.125  0.0535 -0.5242 -0.8128
 9107TIP3    H248737   2.084   1.641  13.062  0.8001 -0.6029 -1.1904
 9108TIP3   OH248738   6.633   4.001   4.440  0.2241 -0.5667  0.8108
 9108TIP3    H148739   6.544   4.023   4.412 -0.6237 -1.2748  2.7416
 9108TIP3    H248740   6.684   3.998   4.359 -1.6160 -0.6222 -0.4071
 9109TIP3   OH248741   2.859   1.159  15.088  0.2133 -0.4830  0.0304
 9109TIP3    H148742   2.905   1.183  15.008  0.5287  0.3654  0.4498
 9109TIP3    H248743   2.802   1.234  15.106 -2.0735 -1.8796 -0.9748
 9110TIP3   OH248744   0.818   1.280   1.405  0.0535  0.0050  0.2880
 9110TIP3    H148745   0.836   1.248   1.316 -3.0469 -1.1289 -0.0670
 9110TIP3    H248746   0.819   1.201   1.459 -1.0465  0.2394  0.6724
 9111TIP3   OH248747   4.347   5.589   4.212 -0.8299  0.1232 -0.2511
 9111TIP3    H148748   4.270   5.565   4.264  0.9512 -1.6882  1.7952
 9111TIP3    H248749   4.347   5.684   4.212 -2.5146  0.1601  0.5873
 9112TIP3   OH248750   5.809   4.003   0.119  0.2346 -0.6855 -0.3723
 9112TIP3    H148751   5.862   3.932   0.081  1.1003  0.3201 -1.1071
 9112TIP3    H248752   5.733   3.958   0.156  0.3822 -1.9321 -1.4753
 9113TIP3   OH248753   4.465   1.275   4.709  0.2274  0.0201 -0.4997
 9113TIP3    H148754   4.479   1.359   4.666 -1.0128  0.4074 -0.1756
 9113TIP3    H248755   4.551   1.252   4.746  0.9902  0.3227 -1.9940
 9114TIP3   OH248756   0.091   4.945  12.343 -0.1755  0.1055 -0.1010
 9114TIP3    H148757   0.173   4.902  12.367  0.0236  2.1600  3.5844
 9114TIP3    H248758   0.023   4.893  12.387 -0.7382 -0.4380 -1.5292
 9115TIP3   OH248759   3.448   2.541   5.008  0.0279  0.4142 -0.0655
 9115TIP3    H148760   3.375   2.593   5.042  0.2130  0.8641 -0.3629
 9115TIP3    H248761   3.460   2.570   4.918 -0.4259 -0.7481 -0.5292
 9116TIP3   OH248762   4.144   3.220  14.809  0.0281  0.0041  0.3069
 9116TIP3    H148763   4.090   3.264  14.874 -0.4906  1.4594 -1.0487
 9116TIP3    H248764   4.121   3.261  14.726  2.1931 -0.3171 -0.5269
 9117TIP3   OH248765   1.974   2.698  11.639 -0.0648 -0.3202 -0.4125
 9117TIP3    H148766   1.941   2.722  11.725 -0.2016 -0.6406 -0.3768
 9117TIP3    H248767   2.006   2.609  11.649  1.0426  0.0693 -0.3854
 9118TIP3   OH248768   6.255   2.199   3.908  0.3780 -0.0664 -0.4701
 9118TIP3    H148769   6.211   2.169   3.828  1.5857  1.1378 -1.6515
 9118TIP3    H248770   6.198   2.268   3.942 -0.9359 -1.6433  0.6308
 9119TIP3   OH248771   0.766   4.955  13.562 -0.6814 -0.0354  0.1748
 9119TIP3    H148772   0.738   4.917  13.479 -2.1926  2.3693 -0.5391
 9119TIP3    H248773   0.756   5.050  13.549  2.1801  0.6559  2.0277
 9120TIP3   OH248774   2.971   6.368   3.981  0.6739 -0.3785  0.2264
 9120TIP3    H148775   3.030   6.300   3.948 -0.9533 -0.3759 -3.0405
 9120TIP3    H248776   2.892   6.359   3.928  0.1813  3.7515 -0.0294
 9121TIP3   OH248777   4.937   0.501   6.121  0.1170 -0.1604 -0.0480
 9121TIP3    H148778   4.877   0.565   6.160  0.1913 -0.3844  0.4353
 9121TIP3    H248779   4.923   0.510   6.027 -2.7110 -2.1054  0.0531
 9122TIP3   OH248780   5.002   3.601  13.413  0.0543  0.1553 -0.7101
 9122TIP3    H148781   4.956   3.520  13.388 -0.0481  0.3332 -1.1041
 9122TIP3    H248782   5.084   3.597  13.364  0.7265 -0.4444  0.4357
 9123TIP3   OH248783   4.450   0.846   2.145  0.4937  0.1779  0.4353
 9123TIP3    H148784   4.421   0.899   2.071  1.0584 -0.2406 -0.0993
 9123TIP3    H248785   4.369   0.818   2.188 -0.0195 -1.7887 -1.5997
 9124TIP3   OH248786   6.272   6.148   4.260 -0.0089 -0.1570 -0.3752
 9124TIP3    H148787   6.345   6.156   4.199  0.1202 -0.7206 -0.3041
 9124TIP3    H248788   6.311   6.162   4.347  0.2497 -1.5586 -0.2357
 9125TIP3   OH248789   1.545   3.598   4.791 -0.6479 -0.2524 -0.1336
 9125TIP3    H148790   1.459   3.631   4.765 -1.1060 -0.0385  1.5195
 9125TIP3    H248791   1.546   3.606   4.887 -0.1615 -3.4637  0.2725
 9126TIP3   OH248792   4.787   6.772  15.451  0.0471  0.2735 -0.6662
 9126TIP3    H148793   4.775   6.704  15.517  0.1736  0.9678  0.0834
 9126TIP3    H248794   4.877   6.760  15.421  1.0199  1.7488  1.3998
 9127TIP3   OH248795   2.573   5.948  11.947  0.6497  0.3637  0.1262
 9127TIP3    H148796   2.505   5.888  11.915  1.2030 -0.6803  0.8302
 9127TIP3    H248797   2.549   5.964  12.038  1.0204  0.4690  0.2045
 9128TIP3   OH248798   1.493   1.501  17.227 -0.3102  0.4896 -0.4439
 9128TIP3    H148799   1.412   1.514  17.178 -1.4158  1.1975  1.4858
 9128TIP3    H248800   1.500   1.406  17.238 -1.4547  0.4810  0.2935
 9129TIP3   OH248801   2.749   4.934  12.358  0.0865 -0.5189 -0.3582
 9129TIP3    H148802   2.745   5.028  12.343 -0.5459 -0.7861 -2.0285
 9129TIP3    H248803   2.784   4.926  12.447 -0.8527  1.3018  0.2312
 9130TIP3   OH248804   5.372   1.486  16.736  0.2219  0.0020  0.3254
 9130TIP3    H148805   5.347   1.509  16.646  0.7236 -1.3956 -0.1935
 9130TIP3    H248806   5.289   1.480  16.783 -0.2205 -1.3083 -0.5695
 9131TIP3   OH248807   4.740   5.891  16.678 -0.0256  0.7176 -0.1559
 9131TIP3    H148808   4.821   5.916  16.723  0.9901 -0.4087 -1.2602
 9131TIP3    H248809   4.670   5.927  16.733  1.2166  2.4998  0.3564
 9132TIP3   OH248810   6.746   0.010   2.382  0.6925 -0.3260 -0.4935
 9132TIP3    H148811   6.703  -0.056   2.328 -0.2714 -0.0815 -0.0517
 9132TIP3    H248812   6.728   0.093   2.338  1.0122 -0.2483 -0.4846
 9133TIP3   OH248813   3.931   4.124   2.989  0.0031 -0.3453  0.8556
 9133TIP3    H148814   4.008   4.073   3.015 -0.2145 -1.5891 -0.8596
 9133TIP3    H248815   3.866   4.059   2.964 -0.9618  0.7409  0.4763
 9134TIP3   OH248816   1.211   1.364   5.817  0.6732  0.3753  0.0391
 9134TIP3    H148817   1.301   1.337   5.800  0.3390 -0.2779 -0.7537
 9134TIP3    H248818   1.158   1.308   5.761 -0.3115 -0.0063  1.2869
 9135TIP3   OH248819   5.457   5.240   2.674  0.1215  0.5994  0.4195
 9135TIP3    H148820   5.370   5.261   2.640 -1.2052 -2.3784  1.5656
 9135TIP3    H248821   5.510   5.226   2.596 -0.4143  2.3158 -0.3012
 9136TIP3   OH248822   4.019   2.427  11.933  0.4823 -0.2574 -0.0724
 9136TIP3    H148823   3.994   2.518  11.917 -1.2328 -0.5460  0.6964
 9136TIP3    H248824   4.013   2.386  11.847 -1.5750 -0.2245 -0.0069
 9137TIP3   OH248825   0.071   2.573   0.279  0.8871 -0.0950 -0.2883
 9137TIP3    H148826   0.154   2.526   0.267  1.2563  0.0574  1.3915
 9137TIP3    H248827   0.098   2.664   0.297  0.2146  0.6147 -2.5681
 9138TIP3   OH248828   1.218   0.945   0.200 -0.0611  0.3094  0.6191
 9138TIP3    H148829   1.245   0.910   0.115 -0.8626  1.2216 -0.0296
 9138TIP3    H248830   1.290   0.921   0.260 -0.1646 -1.6565  0.0467
 9139TIP3   OH248831   5.646   1.139   2.284  0.3402 -0.0173  0.1303
 9139TIP3    H148832   5.741   1.127   2.273  0.6515  2.0642  0.0464
 9139TIP3    H248833   5.626   1.098   2.367  1.3656 -0.3247  0.2404
 9140TIP3   OH248834   4.653   2.735   5.560  0.1375 -0.2173  0.0948
 9140TIP3    H148835   4.639   2.823   5.596 -0.6154  0.2488 -1.2560
 9140TIP3    H248836   4.584   2.725   5.494  1.6827 -0.8715 -1.5015
 9141TIP3   OH248837   3.875   0.362  16.248 -0.4626 -0.5078  0.3091
 9141TIP3    H148838   3.911   0.449  16.267  0.9352 -0.1855 -3.0107
 9141TIP3    H248839   3.794   0.380  16.200  1.0948 -0.7610 -2.7044
 9142TIP3   OH248840   6.475   2.088  11.996  0.2716 -0.0083 -0.0426
 9142TIP3    H148841   6.422   2.156  11.955  0.5275  0.5434  0.5157
 9142TIP3    H248842   6.557   2.090  11.946 -0.3365 -1.1076 -1.1367
 9143TIP3   OH248843   3.535   0.553   1.947 -0.1221 -0.0765  0.5387
 9143TIP3    H148844   3.530   0.648   1.954 -2.7111 -0.0412 -0.5106
 9143TIP3    H248845   3.455   0.521   1.989 -0.3449 -1.6253 -0.9215
 9144TIP3   OH248846   1.965   2.570   3.112 -0.1618 -1.0736  0.1204
 9144TIP3    H148847   1.887   2.610   3.074 -0.4170 -1.8649 -0.2110
 9144TIP3    H248848   2.038   2.619   3.074 -0.4543 -1.1860 -0.6046
 9145TIP3   OH248849   2.997   0.668   5.589 -0.4924  0.3133  0.0499
 9145TIP3    H148850   3.004   0.763   5.590 -3.1372  0.5671  0.6635
 9145TIP3    H248851   2.926   0.648   5.649  1.0849 -2.2139  1.2670
 9146TIP3   OH248852   2.897   3.534   1.294 -0.5323  0.0825  0.6592
 9146TIP3    H148853   2.958   3.590   1.343  1.1878 -0.9202 -0.2388
 9146TIP3    H248854   2.816   3.585   1.290  0.9520  2.5663 -0.1940
 9147TIP3   OH248855   0.852   2.835   4.407  0.1702 -0.0607  0.1172
 9147TIP3    H148856   0.839   2.763   4.468 -1.5943  0.2444  0.1512
 9147TIP3    H248857   0.925   2.885   4.443 -0.5975 -0.0998  1.7833
 9148TIP3   OH248858   0.710   0.802  11.310 -0.5409 -0.0192 -0.5519
 9148TIP3    H148859   0.644   0.777  11.375 -1.2758  0.3394 -1.1410
 9148TIP3    H248860   0.676   0.882  11.271  1.8200  2.0975  1.3839
 9149TIP3   OH248861   2.232   0.967   1.877 -0.1505  0.0921 -0.0363
 9149TIP3    H148862   2.282   0.902   1.828  0.9938  0.8859  0.0473
 9149TIP3    H248863   2.237   1.046   1.824 -1.4435  0.1598 -0.0901
 9150TIP3   OH248864   4.596   2.727   0.225  0.6213 -0.0772 -0.0436
 9150TIP3    H148865   4.501   2.742   0.223  0.6019 -0.1685  0.1734
 9150TIP3    H248866   4.633   2.808   0.190  0.4958  0.3154  0.7083
 9151TIP3   OH248867   6.541   6.554  14.057 -0.0307 -0.6244 -0.5617
 9151TIP3    H148868   6.543   6.610  14.135  0.7382 -0.1211 -0.9327
 9151TIP3    H248869   6.624   6.571  14.013  1.0451 -3.3438  0.2006
 9152TIP3   OH248870   3.401   3.883  13.661  0.5880  0.3774 -0.1359
 9152TIP3    H148871   3.398   3.902  13.568  0.9140  2.3617  0.2162
 9152TIP3    H248872   3.333   3.938  13.700  0.8415  0.0204  0.8627
 9153TIP3   OH248873   0.315   3.415  16.524  0.1825 -0.3050  0.5268
 9153TIP3    H148874   0.288   3.507  16.516  0.1942 -0.2878  0.6962
 9153TIP3    H248875   0.382   3.415  16.592  1.2440 -0.2146 -0.4932
 9154TIP3   OH248876   3.349   5.238  16.713  0.1118 -0.1992 -0.5044
 9154TIP3    H148877   3.378   5.328  16.697 -3.8950  1.8554  2.0682
 9154TIP3    H248878   3.379   5.219  16.802  1.8207 -1.9413 -1.3930
 9155TIP3   OH248879   1.273   6.476  12.409  0.4551  0.3389  0.9218
 9155TIP3    H148880   1.198   6.427  12.374  1.2298 -0.3139  0.1265
 9155TIP3    H248881   1.300   6.533  12.337  2.0498 -0.9898  0.3967
 9156TIP3   OH248882   0.687   6.385  16.711 -0.4010  0.6017 -0.0781
 9156TIP3    H148883   0.768   6.343  16.740 -0.2407  1.1073  0.2110
 9156TIP3    H248884   0.711   6.438  16.636 -0.7987 -0.6174 -1.1055
 9157TIP3   OH248885   2.190   3.973   1.402  0.4544 -0.4246  0.4294
 9157TIP3    H148886   2.131   4.048   1.409  2.0370  0.9963 -0.6542
 9157TIP3    H248887   2.186   3.948   1.309  0.0459 -1.6224  0.7516
 9158TIP3   OH248888   2.805   3.068   5.033  0.6077  0.5743  0.0030
 9158TIP3    H148889   2.764   3.093   4.950  0.6172 -0.6284 -0.3744
 9158TIP3    H248890   2.872   3.004   5.008  0.6915  0.2938  0.9314
 9159TIP3   OH248891   0.561   1.230  13.408  0.0823  0.5574  0.2645
 9159TIP3    H148892   0.541   1.195  13.321  1.1841  0.9196 -0.1625
 9159TIP3    H248893   0.481   1.218  13.458  0.8241 -4.3054  0.7379
 9160TIP3   OH248894   4.794   0.913   2.714 -0.5881 -0.0198  0.1158
 9160TIP3    H148895   4.702   0.913   2.685 -0.3706  2.2542 -0.8338
 9160TIP3    H248896   4.838   0.971   2.652  1.5654 -1.2117  0.4439
 9161TIP3   OH248897   5.448   1.802   4.857 -0.3308 -0.3664  0.1252
 9161TIP3    H148898   5.489   1.882   4.827  1.2691 -1.9151 -2.0563
 9161TIP3    H248899   5.364   1.799   4.811  0.3251 -0.7030 -1.0932
 9162TIP3   OH248900   3.937   6.217   3.017 -1.0132 -0.3776 -0.5640
 9162TIP3    H148901   4.030   6.201   3.003 -0.5954  1.4599 -0.1136
 9162TIP3    H248902   3.924   6.197   3.110 -1.6728 -3.0931 -1.1553
 9163TIP3   OH248903   5.138   3.668  13.665 -0.0488  0.4729 -0.1362
 9163TIP3    H148904   5.150   3.753  13.707  1.3750 -0.0650  0.6213
 9163TIP3    H248905   5.097   3.688  13.581  1.8670  2.0934 -0.7505
 9164TIP3   OH248906   4.680   3.223  12.552 -0.0482  0.1158  0.1886
 9164TIP3    H148907   4.626   3.301  12.563  1.1920  1.1044 -0.4048
 9164TIP3    H248908   4.770   3.255  12.559  0.5090 -1.1319 -0.8344
 9165TIP3   OH248909   5.298   5.564  17.270 -0.2102 -0.2743  0.2994
 9165TIP3    H148910   5.263   5.523  17.349  0.6046 -1.2648  0.1674
 9165TIP3    H248911   5.387   5.590  17.294  0.0322 -0.5538 -0.2792
 9166TIP3   OH248912   0.864   4.873  14.529 -0.0801  0.4730  0.3367
 9166TIP3    H148913   0.806   4.950  14.527  3.2689  3.2297  0.6688
 9166TIP3    H248914   0.899   4.867  14.440  1.5432  0.9493  0.9137
 9167TIP3   OH248915   1.330   2.712  13.824  0.6928  0.1495  0.7324
 9167TIP3    H148916   1.413   2.754  13.800  0.5414  0.1365  0.1722
 9167TIP3    H248917   1.332   2.627  13.779  0.1515  0.3655  0.2910
 9168TIP3   OH248918   6.556   5.041  16.698  0.0778 -0.1282 -0.2425
 9168TIP3    H148919   6.577   5.126  16.735 -0.6934  0.1833 -0.4858
 9168TIP3    H248920   6.641   4.999  16.685  0.4159  0.1709  0.8631
 9169TIP3   OH248921   1.910   5.091   3.155  0.1607  0.4864  0.4490
 9169TIP3    H148922   1.946   5.073   3.068 -1.7730  0.4841 -0.3895
 9169TIP3    H248923   1.864   5.174   3.146  1.2365  1.2784  1.9009
 9170TIP3   OH248924   4.062   4.775   3.538  0.0980 -0.3320 -0.1648
 9170TIP3    H148925   4.034   4.865   3.527 -1.6043 -0.8165 -0.0076
 9170TIP3    H248926   3.981   4.724   3.540  0.8537 -1.6083  2.1877
 9171TIP3   OH248927   4.991   3.763   5.489  0.4660 -0.2445 -0.2536
 9171TIP3    H148928   5.032   3.727   5.410  1.6339 -0.7238  0.5355
 9171TIP3    H248929   4.898   3.747   5.477  0.5039  0.5826 -1.9698
 9172TIP3   OH248930   6.754   2.840   1.733 -0.0259  0.3771  0.3076
 9172TIP3    H148931   6.737   2.923   1.688  0.4369 -0.1569 -0.8970
 9172TIP3    H248932   6.848   2.825   1.720 -0.0331 -0.1486  0.8436
 9173TIP3   OH248933   4.402   1.935   1.303  0.3245 -0.3073  0.0022
 9173TIP3    H148934   4.459   1.907   1.374 -1.1413 -0.2142  1.2807
 9173TIP3    H248935   4.377   1.854   1.258  0.4992 -0.4662  0.1896
 9174TIP3   OH248936   1.944   6.476   2.919 -0.4941 -0.5348 -0.6670
 9174TIP3    H148937   1.917   6.487   2.828 -0.9977  0.2250 -0.4315
 9174TIP3    H248938   2.039   6.464   2.914 -0.2245  1.4613 -1.1667
 9175TIP3   OH248939   1.254   2.295   6.097  0.1389 -0.2599  0.3183
 9175TIP3    H148940   1.293   2.214   6.063 -3.2592 -1.9633  0.0717
 9175TIP3    H248941   1.216   2.337   6.020 -2.1386 -0.8898  1.0387
 9176TIP3   OH248942   2.869   4.743  14.648  0.0182 -0.4386  0.3407
 9176TIP3    H148943   2.842   4.652  14.638 -0.3190 -0.4244  1.0699
 9176TIP3    H248944   2.917   4.745  14.731 -0.2134  0.1015  0.4688
 9177TIP3   OH248945   6.648   1.367   3.967 -0.6223 -0.1557 -0.2443
 9177TIP3    H148946   6.722   1.307   3.958 -1.0995 -0.6565 -0.8381
 9177TIP3    H248947   6.683   1.452   3.940  0.4188  0.1355  1.8005
 9178TIP3   OH248948   0.543   2.366   2.413  0.0197 -0.0324  0.1842
 9178TIP3    H148949   0.502   2.283   2.391 -0.7324  0.1980  0.6765
 9178TIP3    H248950   0.610   2.379   2.345 -1.5435  0.1623 -1.3938
 9179TIP3   OH248951   3.510   5.827  14.536 -0.0036 -0.8890 -0.8332
 9179TIP3    H148952   3.495   5.909  14.582 -0.7496 -1.0852 -0.7144
 9179TIP3    H248953   3.531   5.853  14.446  0.2979 -0.5539 -0.6672
 9180TIP3   OH248954   3.467   3.457  13.098  0.2625 -0.0805 -0.3585
 9180TIP3    H148955   3.550   3.502  13.084  0.5057 -0.2539  0.4365
 9180TIP3    H248956   3.488   3.364  13.086  0.5380 -0.2625  1.2284
 9181TIP3   OH248957   3.541   0.832  14.645 -0.2552 -0.0706  0.1244
 9181TIP3    H148958   3.457   0.829  14.690  0.6293 -0.5252  1.8005
 9181TIP3    H248959   3.564   0.741  14.630 -0.3418  0.0663 -0.9043
 9182TIP3   OH248960   2.909   5.115   1.696  0.4297  0.0269  0.1295
 9182TIP3    H148961   2.887   5.150   1.783  0.8418  0.4130  0.0858
 9182TIP3    H248962   2.902   5.191   1.638 -0.6485 -0.4089 -0.3154
 9183TIP3   OH248963   0.459   1.744   3.280  0.5959 -0.0375 -0.4688
 9183TIP3    H148964   0.462   1.685   3.204 -0.0135  2.0079 -2.1959
 9183TIP3    H248965   0.510   1.699   3.347  1.3396 -1.8823 -2.1458
 9184TIP3   OH248966   6.770   4.032   0.169 -0.2045  0.5863 -0.5489
 9184TIP3    H148967   6.765   3.975   0.246 -0.4818 -0.9752 -1.6765
 9184TIP3    H248968   6.855   4.011   0.130 -0.6242  0.3890 -1.3730
 9185TIP3   OH248969   6.667   3.884   1.833  0.4497 -0.2501  0.1275
 9185TIP3    H148970   6.612   3.872   1.756  2.6459  1.6918 -1.8687
 9185TIP3    H248971   6.748   3.838   1.812  0.9187 -0.0993  1.5187
 9186TIP3   OH248972   1.123   4.293   4.591 -0.2835 -0.8748 -0.8573
 9186TIP3    H148973   1.094   4.218   4.643  0.6994 -2.3112 -2.2913
 9186TIP3    H248974   1.106   4.268   4.500  1.5735 -0.0664 -1.4744
 9187TIP3   OH248975   4.947   3.922   3.085 -0.3025 -0.0419  0.1243
 9187TIP3    H148976   4.856   3.922   3.056  0.3337 -0.5459 -2.0454
 9187TIP3    H248977   4.969   3.830   3.096  0.1315  0.0415 -0.0170
 9188TIP3   OH248978   4.040   4.907   2.080 -0.3690 -0.8208  0.4746
 9188TIP3    H148979   4.077   4.861   2.004 -2.3386  0.1015 -1.1348
 9188TIP3    H248980   4.011   4.838   2.139  2.0798 -1.5590  0.9123
 9189TIP3   OH248981   6.141   1.544  12.599  0.0412 -0.4393  0.0263
 9189TIP3    H148982   6.117   1.470  12.655  0.8272 -2.4334 -2.1243
 9189TIP3    H248983   6.057   1.584  12.576 -0.5283 -1.4710  0.2046
 9190TIP3   OH248984   0.263   6.312   3.790  0.3972  0.4552 -0.1580
 9190TIP3    H148985   0.172   6.331   3.767  0.6120 -0.4293 -1.9660
 9190TIP3    H248986   0.271   6.216   3.782  1.2238  0.3912  1.0703
 9191TIP3   OH248987   5.908   3.546  14.374 -0.2265 -0.1494 -0.5740
 9191TIP3    H148988   5.862   3.569  14.293  0.3430 -1.2782 -1.2387
 9191TIP3    H248989   5.986   3.602  14.373 -0.5186  0.2673 -0.4936
 9192TIP3   OH248990   0.061   3.616   6.269 -0.2770 -0.2005 -0.0530
 9192TIP3    H148991   0.116   3.592   6.343  1.7953  0.7641 -1.1832
 9192TIP3    H248992   0.098   3.699   6.238 -2.0343  0.1938 -1.2317
 9193TIP3   OH248993   0.580   6.497  15.441 -0.2185  0.2844 -0.0675
 9193TIP3    H148994   0.575   6.576  15.387 -0.1200 -0.0016 -0.4955
 9193TIP3    H248995   0.666   6.460  15.421  0.4864  1.0044  1.4451
 9194TIP3   OH248996   3.297   4.249  11.049 -0.1909  0.0340  0.3592
 9194TIP3    H148997   3.268   4.177  10.992  0.2443  1.1582 -1.3798
 9194TIP3    H248998   3.391   4.255  11.033  0.2129 -0.4587  2.2631
 9195TIP3   OH248999   5.442   0.964   0.457 -0.5758 -0.9629 -0.7006
 9195TIP3    H149000   5.348   0.979   0.443 -0.8171 -0.0409  1.5236
 9195TIP3    H249001   5.481   1.051   0.454 -0.1886 -1.0615  0.8263
 9196TIP3   OH249002   3.287   0.599  14.824  0.1251  0.1046  0.4105
 9196TIP3    H149003   3.275   0.693  14.816 -1.2969  0.0744  1.5585
 9196TIP3    H249004   3.295   0.584  14.919 -1.2176 -1.0393  0.3839
 9197TIP3   OH249005   5.512   3.906  16.616 -0.2577  0.0991 -0.5296
 9197TIP3    H149006   5.606   3.896  16.631 -0.5494 -0.1545  1.3968
 9197TIP3    H249007   5.476   3.818  16.631 -0.8472  0.2588 -0.9611
 9198TIP3   OH249008   3.763   2.606  11.284  0.4035 -0.2391 -0.3895
 9198TIP3    H149009   3.773   2.593  11.189  0.3520 -0.5246 -0.3578
 9198TIP3    H249010   3.850   2.633  11.313  0.1579  0.9009 -0.6811
 9199TIP3   OH249011   3.364   0.640   3.070  0.7383 -0.2688  0.3257
 9199TIP3    H149012   3.277   0.631   3.108  0.6718 -1.3895 -0.0517
 9199TIP3    H249013   3.348   0.643   2.975  1.1695 -1.4593  0.2067
 9200TIP3   OH249014   0.291   2.268  17.199 -0.0911  0.0072  0.5453
 9200TIP3    H149015   0.373   2.286  17.153 -0.5215 -0.2677 -0.3671
 9200TIP3    H249016   0.256   2.354  17.220  0.9587  0.1170  1.9383
 9201TIP3   OH249017   2.245   3.393   4.301 -0.1861  0.5838 -0.4836
 9201TIP3    H149018   2.204   3.436   4.226 -0.3297  1.5784  0.1510
 9201TIP3    H249019   2.337   3.385   4.277 -0.4541 -0.2550 -1.2778
 9202TIP3   OH249020   1.716   5.329   4.679 -0.1705  0.4391  0.3748
 9202TIP3    H149021   1.711   5.415   4.719 -0.3990  0.2199  0.8280
 9202TIP3    H249022   1.625   5.298   4.676 -0.0015 -0.1674  1.0793
 9203TIP3   OH249023   1.654   0.592   1.969  0.3614  0.8175 -0.0746
 9203TIP3    H149024   1.575   0.625   1.927  0.2833 -0.5608 -1.0531
 9203TIP3    H249025   1.630   0.582   2.061 -0.8351 -0.2389 -0.4766
 9204TIP3   OH249026   1.356   3.189  15.508 -0.2013  0.9119 -0.6676
 9204TIP3    H149027   1.285   3.242  15.471  0.6968  2.6943  0.0486
 9204TIP3    H249028   1.321   3.156  15.590 -0.8072  0.2907 -1.1652
 9205TIP3   OH249029   2.489   4.191  12.491  0.0960 -0.0023  0.0250
 9205TIP3    H149030   2.564   4.208  12.550 -0.3023  0.8331  0.3180
 9205TIP3    H249031   2.419   4.246  12.527 -1.3373 -2.3497  1.0315
 9206TIP3   OH249032   4.507   6.110   1.694 -0.0026  0.3810 -0.3146
 9206TIP3    H149033   4.449   6.062   1.752  0.8017 -0.7924 -0.4564
 9206TIP3    H249034   4.448   6.158   1.635 -0.8117  0.0650  0.2317
 9207TIP3   OH249035   4.550   0.621   5.295 -0.5076  0.1324 -0.1361
 9207TIP3    H149036   4.612   0.682   5.336  0.3744 -0.1865 -0.9468
 9207TIP3    H249037   4.464   0.653   5.321 -0.0348  1.2586  0.1164
 9208TIP3   OH249038   2.229   3.771  12.744  0.0630 -0.2549  0.2408
 9208TIP3    H149039   2.169   3.759  12.670 -1.8308 -1.7100  1.8967
 9208TIP3    H249040   2.286   3.695  12.741 -0.3722 -0.6022  0.5540
 9209TIP3   OH249041   5.580   6.604  17.006 -0.1446  0.2603 -0.7914
 9209TIP3    H149042   5.623   6.663  16.943  1.7980 -2.1396 -1.9123
 9209TIP3    H249043   5.506   6.568  16.958 -0.4052  0.6150 -0.6569
 9210TIP3   OH249044   2.506   0.368   0.703 -0.9332 -0.7028  0.1892
 9210TIP3    H149045   2.530   0.344   0.793 -0.6133  0.0385  0.3084
 9210TIP3    H249046   2.533   0.293   0.650  0.7974 -0.3074  0.4414
 9211TIP3   OH249047   5.179   2.063   5.503 -0.2104 -0.0310  0.0817
 9211TIP3    H149048   5.110   2.129   5.506  0.5231  0.9014 -1.7492
 9211TIP3    H249049   5.260   2.113   5.502  0.3517 -0.8954 -1.8278
 9212TIP3   OH249050   5.585   0.886  15.697  0.0076 -0.8304  0.1082
 9212TIP3    H149051   5.500   0.872  15.741  0.4473  0.6887  1.5723
 9212TIP3    H249052   5.569   0.863  15.606 -2.0751 -0.3156  0.2937
 9213TIP3   OH249053   1.856   3.592  11.454 -0.3667  0.1231 -0.6398
 9213TIP3    H149054   1.815   3.677  11.436 -0.4544  0.1374 -0.3760
 9213TIP3    H249055   1.909   3.574  11.377 -2.9052 -1.1409 -2.2323
 9214TIP3   OH249056   4.384   3.188  13.942 -0.6073  0.9647 -0.2268
 9214TIP3    H149057   4.306   3.141  13.914  1.0489 -0.9887 -1.9017
 9214TIP3    H249058   4.427   3.128  14.004  0.8039  0.8082 -1.2911
 9215TIP3   OH249059   6.311   3.670   5.968  0.1034 -0.7026 -0.0282
 9215TIP3    H149060   6.243   3.619   6.012 -0.7029 -0.7509 -1.2803
 9215TIP3    H249061   6.382   3.607   5.953  0.0055 -0.9116  0.3625
 9216TIP3   OH249062   6.036   1.878  15.940 -0.2604 -0.1773 -0.4845
 9216TIP3    H149063   6.115   1.833  15.909 -0.7239 -2.4696  1.4344
 9216TIP3    H249064   5.963   1.828  15.904 -0.8373  0.4957 -0.2786
 9217TIP3   OH249065   0.857   1.783   4.131 -0.1136 -0.3001  0.2730
 9217TIP3    H149066   0.849   1.794   4.226  2.0105  0.3161  0.4271
 9217TIP3    H249067   0.918   1.710   4.120 -0.4210 -0.4383 -0.6350
 9218TIP3   OH249068   0.938   4.528   5.136 -0.0033  0.4629  0.3157
 9218TIP3    H149069   0.861   4.493   5.091  0.9107  0.3544 -1.2542
 9218TIP3    H249070   0.908   4.609   5.178 -1.4970 -0.7446  1.7131
 9219TIP3   OH249071   3.454   4.241  11.421  0.2106 -0.9473  0.4125
 9219TIP3    H149072   3.534   4.244  11.474 -0.4651 -0.5219  1.4394
 9219TIP3    H249073   3.444   4.148  11.399  0.5844 -1.1084  0.8970
 9220TIP3   OH249074   3.960   0.096   4.692  0.3895  0.0496 -0.4156
 9220TIP3    H149075   4.013   0.136   4.761  0.4152  1.2572 -1.1180
 9220TIP3    H249076   3.885   0.059   4.738 -1.1895  3.4879  0.0081
 9221TIP3   OH249077   1.453   5.352  14.320 -0.0143  0.0367 -0.2970
 9221TIP3    H149078   1.543   5.355  14.352  0.1427  1.0169 -0.7849
 9221TIP3    H249079   1.454   5.285  14.252 -0.2123 -1.6303  1.2716
 9222TIP3   OH249080   6.344   1.935  13.751  0.3633 -0.0644  0.0011
 9222TIP3    H149081   6.384   1.871  13.692 -0.5517 -0.7186  0.0719
 9222TIP3    H249082   6.331   2.013  13.696  2.1041  0.3293  0.0914
 9223TIP3   OH249083   3.281   5.016   1.934 -0.1626 -0.5233  0.4560
 9223TIP3    H149084   3.353   4.994   1.994  0.5102 -1.3334 -0.6005
 9223TIP3    H249085   3.316   5.086   1.879  0.3245 -1.7484 -0.8750
 9224TIP3   OH249086   5.353   5.221   5.841 -0.6589  0.0620 -0.4148
 9224TIP3    H149087   5.408   5.205   5.918 -2.2380  0.9007  0.9662
 9224TIP3    H249088   5.366   5.144   5.786 -1.4982 -1.9298  1.9593
 9225TIP3   OH249089   0.300   2.192  13.119  0.4455 -0.6669 -0.1480
 9225TIP3    H149090   0.373   2.144  13.080 -0.8123 -1.3264 -1.7919
 9225TIP3    H249091   0.332   2.216  13.206  2.1894 -1.9290 -0.3728
 9226TIP3   OH249092   0.760   0.733  12.586 -0.1768  0.5401  0.0037
 9226TIP3    H149093   0.847   0.754  12.620 -0.2262 -0.0506  0.5004
 9226TIP3    H249094   0.776   0.685  12.505 -0.0555  2.7481 -1.3766
 9227TIP3   OH249095   0.231   6.234   0.146  0.1248  0.0102 -0.5751
 9227TIP3    H149096   0.178   6.290   0.089 -0.1981 -1.4804 -1.8216
 9227TIP3    H249097   0.180   6.153   0.153  1.3630 -0.7632 -0.2517
 9228TIP3   OH249098   0.514   1.875  16.026  0.0812  0.0148 -0.3055
 9228TIP3    H149099   0.465   1.821  16.088  0.6523 -0.3754 -0.1804
 9228TIP3    H249100   0.456   1.948  16.007 -0.4375 -0.2955  0.0463
 9229TIP3   OH249101   5.822   3.222  11.518  0.1336  0.3904 -0.2483
 9229TIP3    H149102   5.904   3.178  11.539  0.8521  1.6326 -0.3934
 9229TIP3    H249103   5.812   3.288  11.586 -0.4401  0.6499 -0.5779
 9230TIP3   OH249104   2.987   5.712   5.183 -0.1460  0.5356  0.4233
 9230TIP3    H149105   3.009   5.620   5.193  1.0497  0.7735  0.1471
 9230TIP3    H249106   2.924   5.715   5.110  1.1709  0.1057 -0.7639
 9231TIP3   OH249107   6.721   1.733  15.562 -0.4524  0.4506  0.8526
 9231TIP3    H149108   6.698   1.647  15.525  0.1878  1.0839 -1.1547
 9231TIP3    H249109   6.637   1.772  15.587 -1.0318  0.2800 -0.6931
 9232TIP3   OH249110   4.157   3.401  10.459  0.0212 -0.3387  0.3313
 9232TIP3    H149111   4.085   3.454  10.492  0.5451 -0.4331  1.6826
 9232TIP3    H249112   4.234   3.434  10.506  0.6316 -1.1632 -0.0680
 9233TIP3   OH249113   5.434   1.860  10.345 -0.4007  0.0230  0.5732
 9233TIP3    H149114   5.473   1.776  10.369  1.6226  0.5656 -0.5852
 9233TIP3    H249115   5.493   1.926  10.382 -1.4246  0.9353  0.6333
 9234TIP3   OH249116   0.190   5.454  14.477  0.0559 -0.0788 -0.0907
 9234TIP3    H149117   0.267   5.429  14.528  0.0661  1.4384  0.6770
 9234TIP3    H249118   0.158   5.533  14.519  0.3980  1.6030 -2.7559
 9235TIP3   OH249119   6.149   2.930   0.552  0.3653  0.4579 -0.0216
 9235TIP3    H149120   6.073   2.909   0.606  0.3336 -0.8889 -0.5697
 9235TIP3    H249121   6.147   3.026   0.546  0.4450  0.6987  2.4562
 9236TIP3   OH249122   3.575   4.215  10.938 -0.1867  0.2299 -0.2138
 9236TIP3    H149123   3.611   4.167  11.013 -0.9198  0.3827  0.2542
 9236TIP3    H249124   3.598   4.162  10.862 -0.6162 -0.6604  0.2545
 9237TIP3   OH249125   6.404   4.456   4.794 -0.2424  0.6258  0.4431
 9237TIP3    H149126   6.399   4.501   4.710 -0.3567  1.6860  0.9990
 9237TIP3    H249127   6.321   4.410   4.802  0.3513 -0.6883 -0.6682
 9238TIP3   OH249128   4.687   2.273  15.929  0.0806 -0.4281  0.2047
 9238TIP3    H149129   4.728   2.358  15.947  0.3752 -0.2125 -1.3317
 9238TIP3    H249130   4.725   2.214  15.994  1.0827  0.2725  0.2823
 9239TIP3   OH249131   0.180   5.298   4.802  0.6526  0.0624  0.3581
 9239TIP3    H149132   0.145   5.211   4.820 -2.5175  1.1189 -0.0866
 9239TIP3    H249133   0.155   5.351   4.878  1.1757  0.9528 -0.0649
 9240TIP3   OH249134   3.166   2.789   1.343 -0.8482 -0.6477 -0.0522
 9240TIP3    H149135   3.143   2.868   1.392 -0.9278 -0.6267 -0.1229
 9240TIP3    H249136   3.226   2.819   1.275  1.2055 -1.0279  1.4934
 9241TIP3   OH249137   0.974   6.482   2.640  0.2687 -0.1299 -0.0497
 9241TIP3    H149138   1.069   6.479   2.647  0.3554  2.6000  1.1139
 9241TIP3    H249139   0.943   6.455   2.726 -0.1308 -2.2070 -0.7819
 9242TIP3   OH249140   2.470   6.400  12.639 -0.2738 -0.1935  0.2445
 9242TIP3    H149141   2.425   6.427  12.720  1.2186 -0.9936  1.3951
 9242TIP3    H249142   2.559   6.379  12.667 -0.0306 -1.6022 -1.4182
 9243TIP3   OH249143   6.031   3.064   2.092 -0.1747  0.3633  0.9163
 9243TIP3    H149144   6.119   3.028   2.107 -0.3769 -0.2585  0.6294
 9243TIP3    H249145   5.992   3.070   2.179  0.1846  0.7405  1.0560
 9244TIP3   OH249146   1.991   1.891   0.858 -0.0593  0.8774  0.3122
 9244TIP3    H149147   1.981   1.954   0.787 -0.1807  0.0985 -0.3797
 9244TIP3    H249148   2.005   1.807   0.814  2.1701  0.7116  1.2124
 9245TIP3   OH249149   5.209   6.152   2.290  0.0957 -0.2407 -0.7025
 9245TIP3    H149150   5.185   6.213   2.359  1.6434 -0.9235  0.4967
 9245TIP3    H249151   5.127   6.109   2.267 -0.6366  0.7540 -0.0581
 9246TIP3   OH249152   1.624   4.731  10.766  0.4960  0.3212  0.4493
 9246TIP3    H149153   1.559   4.797  10.790  1.0503  0.6305  1.1157
 9246TIP3    H249154   1.703   4.757  10.812  1.0816 -0.0893 -0.3135
 9247TIP3   OH249155   5.828   0.155   0.413 -0.5143  0.0721 -0.0208
 9247TIP3    H149156   5.767   0.225   0.390  0.3955  0.7164 -0.5319
 9247TIP3    H249157   5.907   0.200   0.443 -0.0710 -0.7381  0.0711
 9248TIP3   OH249158   5.035   3.696   3.574  0.4012  0.4329  0.5141
 9248TIP3    H149159   5.011   3.621   3.519 -0.1707  1.2668 -0.4001
 9248TIP3    H249160   5.080   3.756   3.514  2.4666  0.0680  1.6234
 9249TIP3   OH249161   2.897   5.951  12.897  0.3542  0.3317  1.1069
 9249TIP3    H149162   2.987   5.919  12.903  0.3588  0.1114  0.1332
 9249TIP3    H249163   2.905   6.046  12.900  0.7222  0.3461  0.0959
 9250TIP3   OH249164   3.897   0.450   3.340 -0.3538 -0.1147  0.4635
 9250TIP3    H149165   3.842   0.388   3.292 -1.1468  0.4266  0.6689
 9250TIP3    H249166   3.980   0.403   3.353 -1.3033 -1.5530  1.5629
 9251TIP3   OH249167   6.022   5.855  14.015 -0.0961  0.0444  0.4780
 9251TIP3    H149168   5.992   5.841  13.925  0.6563 -2.3560  0.5519
 9251TIP3    H249169   5.941   5.872  14.065 -0.5627  0.8730 -0.5142
 9252TIP3   OH249170   5.666   3.713  16.761  0.2766  0.2539  0.1436
 9252TIP3    H149171   5.608   3.718  16.836 -0.7514 -1.4462 -0.5053
 9252TIP3    H249172   5.612   3.681  16.689  1.8347 -0.7905 -0.6455
 9253TIP3   OH249173   0.595   4.867  15.753 -0.0673 -0.0049  0.3473
 9253TIP3    H149174   0.598   4.959  15.725 -1.2012 -0.1552 -0.3422
 9253TIP3    H249175   0.585   4.817  15.672 -1.0320 -0.6186  0.8263
 9254TIP3   OH249176   0.581   5.599   1.197  0.2240 -0.1645 -0.5618
 9254TIP3    H149177   0.641   5.565   1.263 -1.1200  1.5885  1.7239
 9254TIP3    H249178   0.628   5.671   1.155 -0.0248  0.8145  0.7967
 9255TIP3   OH249179   6.054   0.574  11.733  0.2118  0.0501  0.2366
 9255TIP3    H149180   6.146   0.558  11.712  0.4381  0.3083  0.9914
 9255TIP3    H249181   6.031   0.651  11.680 -0.0209 -0.9032 -1.0997
 9256TIP3   OH249182   2.305   4.384   5.158  0.1708 -0.2250 -0.2809
 9256TIP3    H149183   2.258   4.388   5.075  0.6506  2.6797 -0.5230
 9256TIP3    H249184   2.254   4.322   5.211 -1.0512 -0.9392 -2.1840
 9257TIP3   OH249185   0.512   1.384  12.680  0.3825 -0.2043 -0.3392
 9257TIP3    H149186   0.568   1.400  12.605  0.3392 -0.3852 -0.4114
 9257TIP3    H249187   0.467   1.302  12.660  0.2497 -0.1707 -0.1896
 9258TIP3   OH249188   1.811   2.529  13.187  0.4283 -0.2269  0.7246
 9258TIP3    H149189   1.816   2.460  13.254  2.7856  0.2070  1.0829
 9258TIP3    H249190   1.898   2.529  13.147  0.0825  1.7295 -0.1008
 9259TIP3   OH249191   1.976   0.670   4.752 -0.1268  0.0640  0.3024
 9259TIP3    H149192   2.017   0.671   4.839 -0.3109 -1.8848  0.4565
 9259TIP3    H249193   2.019   0.741   4.705  1.8709 -0.4887  1.1549
 9260TIP3   OH249194   0.181   5.447   0.045 -0.7755 -0.3758 -0.3436
 9260TIP3    H149195   0.190   5.355   0.070 -0.1337 -0.3888 -0.6057
 9260TIP3    H249196   0.087   5.466   0.056 -0.5932 -0.4494  1.7813
 9261TIP3   OH249197   0.212   1.715   6.098  0.4503 -0.2248  0.3970
 9261TIP3    H149198   0.279   1.773   6.134  0.4507 -0.3445  0.5896
 9261TIP3    H249199   0.214   1.638   6.154  0.0258 -0.1539  0.5133
 9262TIP3   OH249200   1.656   2.143  13.051  0.0837 -0.3850 -0.7995
 9262TIP3    H149201   1.602   2.146  12.972 -3.1863 -3.9884  0.9530
 9262TIP3    H249202   1.611   2.201  13.112  0.1235 -0.8419 -0.3308
 9263TIP3   OH249203   6.608   3.172   5.058 -0.2786 -0.6580  0.0022
 9263TIP3    H149204   6.538   3.129   5.106 -0.2966  0.5688  1.1246
 9263TIP3    H249205   6.688   3.127   5.086 -0.4621 -1.0992 -0.1730
 9264TIP3   OH249206   3.211   2.509  16.461 -0.2436 -0.1007 -0.6933
 9264TIP3    H149207   3.215   2.415  16.443 -0.2661  0.2276 -2.6517
 9264TIP3    H249208   3.132   2.539  16.416  1.4407  1.3461 -2.8869
 9265TIP3   OH249209   2.410   2.840   6.050  0.1403 -0.0808  0.0374
 9265TIP3    H149210   2.472   2.889   5.996 -1.3746  0.2591 -1.4633
 9265TIP3    H249211   2.430   2.867   6.140  0.0446  2.4796 -0.6500
 9266TIP3   OH249212   1.318   6.729   0.919 -0.3714 -0.1420  0.0212
 9266TIP3    H149213   1.335   6.710   0.827 -0.2120 -0.9949  0.2191
 9266TIP3    H249214   1.296   6.644   0.958  1.8465 -0.2190  1.2567
 9267TIP3   OH249215   1.299   6.113  13.172  0.1799 -0.2098 -0.1823
 9267TIP3    H149216   1.271   6.182  13.233 -2.3446 -0.3585 -1.0736
 9267TIP3    H249217   1.382   6.145  13.137 -0.9058  2.4318 -0.5759
 9268TIP3   OH249218   3.586   1.106  16.127  0.5484  0.2241 -0.1400
 9268TIP3    H149219   3.504   1.064  16.098  0.2945 -0.2557  1.1973
 9268TIP3    H249220   3.650   1.083  16.060  0.1792 -1.5586  0.0718
 9269TIP3   OH249221   4.096   4.781  11.062 -0.6067  0.2435 -0.5040
 9269TIP3    H149222   4.018   4.807  11.012 -3.1079 -2.5764  1.5891
 9269TIP3    H249223   4.150   4.733  10.999 -1.5405  0.4920 -1.5297
 9270TIP3   OH249224   1.601   2.716  11.820 -0.4658 -0.5737  0.1620
 9270TIP3    H149225   1.532   2.765  11.864 -0.0670 -0.6149  0.8417
 9270TIP3    H249226   1.678   2.772  11.824 -0.6707 -0.1213 -1.4273
 9271TIP3   OH249227   4.289   4.129  12.091 -0.7876 -0.0709 -0.7933
 9271TIP3    H149228   4.220   4.167  12.146  1.3411  1.5533  0.9555
 9271TIP3    H249229   4.320   4.203  12.038  1.0116 -0.1837  0.0423
 9272TIP3   OH249230   2.037   3.785   0.705  0.8021 -0.6557 -0.2385
 9272TIP3    H149231   2.127   3.755   0.694  0.9351 -0.6241  0.7158
 9272TIP3    H249232   2.037   3.875   0.672  1.6013  0.0514  1.5497
 9273TIP3   OH249233   3.297   4.029   2.881 -0.6032  0.1909  0.3206
 9273TIP3    H149234   3.358   3.996   2.814  0.7070 -1.7212  2.3412
 9273TIP3    H249235   3.347   4.029   2.962 -2.5124  1.2603  1.5916
 9274TIP3   OH249236   6.655   1.346  16.130  0.4302 -0.2827 -0.1223
 9274TIP3    H149237   6.643   1.414  16.196 -0.8077 -1.6224  1.1000
 9274TIP3    H249238   6.585   1.360  16.067  0.9597  0.3416 -0.5803
 9275TIP3   OH249239   4.378   6.640   5.476 -0.2047 -0.1138  0.5366
 9275TIP3    H149240   4.360   6.638   5.382 -1.1770 -1.1543  0.7274
 9275TIP3    H249241   4.446   6.707   5.486 -0.7889  0.7128 -0.7815
 9276TIP3   OH249242   4.403   5.502   5.284  0.8324 -0.0391  0.2394
 9276TIP3    H149243   4.417   5.447   5.361  0.0229 -0.9820 -0.2710
 9276TIP3    H249244   4.322   5.470   5.246  0.9337  0.7826 -0.7092
 9277TIP3   OH249245   0.185   3.422  16.132 -0.3668 -0.0728 -0.5696
 9277TIP3    H149246   0.196   3.455  16.043 -0.5995 -0.2459 -0.6642
 9277TIP3    H249247   0.121   3.481  16.172 -1.0273 -0.5847 -0.8425
 9278TIP3   OH249248   1.533   2.978   5.210  0.2944 -0.4151 -0.3804
 9278TIP3    H149249   1.587   2.944   5.281 -2.0421 -0.8096  1.3106
 9278TIP3    H249250   1.484   3.051   5.249 -0.5845 -0.2227 -1.7690
 9279TIP3   OH249251   4.771   6.164  15.617 -0.0350 -0.4582  0.4255
 9279TIP3    H149252   4.811   6.190  15.700 -2.2002  2.4900  0.7151
 9279TIP3    H249253   4.824   6.208  15.550 -1.3527  1.7133  0.6888
 9280TIP3   OH249254   5.933   6.493  12.366 -0.1868 -0.7047 -0.5939
 9280TIP3    H149255   5.970   6.500  12.277 -1.1575  0.3663 -0.9371
 9280TIP3    H249256   5.998   6.537  12.421 -0.5101  0.4148 -1.0733
 9281TIP3   OH249257   1.909   4.215  15.994 -0.0157 -0.2367 -0.1733
 9281TIP3    H149258   1.972   4.280  16.024  0.4995 -0.5549 -0.5430
 9281TIP3    H249259   1.954   4.131  16.005  0.1326 -0.3876 -1.6317
 9282TIP3   OH249260   4.121   3.823   1.036  0.0440 -0.0975 -0.2352
 9282TIP3    H149261   4.053   3.762   1.063  0.5462 -0.4200  0.3128
 9282TIP3    H249262   4.123   3.889   1.105  0.5832 -0.3246 -0.0350
 9283TIP3   OH249263   5.513   5.473  14.705  0.1781  0.0413  0.4031
 9283TIP3    H149264   5.475   5.430  14.629  0.0035 -1.7055  1.4267
 9283TIP3    H249265   5.439   5.488  14.764  0.7212 -1.5551  1.5605
 9284TIP3   OH249266   6.319   4.015  13.465  0.0333 -0.4011  0.3989
 9284TIP3    H149267   6.262   4.013  13.542 -1.5762  0.6011 -0.6872
 9284TIP3    H249268   6.356   4.104  13.466  0.7883 -0.7127  0.5403
 9285TIP3   OH249269   2.789   0.672  12.127 -0.6376  0.4133  0.1263
 9285TIP3    H149270   2.730   0.697  12.198 -0.5058  1.1305 -0.0117
 9285TIP3    H249271   2.845   0.605  12.166  0.2303  1.6460  1.0864
 9286TIP3   OH249272   2.684   2.538  12.278 -0.1789 -0.6327 -0.4377
 9286TIP3    H149273   2.669   2.466  12.339 -1.0499  0.7392  1.0703
 9286TIP3    H249274   2.719   2.608  12.333 -2.3045  1.1502 -1.1951
 9287TIP3   OH249275   2.724   0.667  16.614 -0.1238 -0.2304  0.4008
 9287TIP3    H149276   2.674   0.662  16.696 -0.6437 -0.4655  0.0744
 9287TIP3    H249277   2.658   0.682  16.547  0.0853 -1.7912 -0.1959
 9288TIP3   OH249278   3.090   6.131   4.256  0.1958 -0.6440 -0.1238
 9288TIP3    H149279   3.175   6.088   4.249  0.0875 -1.0901  1.0779
 9288TIP3    H249280   3.084   6.186   4.178  1.5488 -0.6692 -0.2595
 9289TIP3   OH249281   2.442   1.046   0.668 -0.1099 -0.0408 -0.2906
 9289TIP3    H149282   2.399   1.049   0.753 -1.2959  0.2685 -0.8843
 9289TIP3    H249283   2.464   0.953   0.656  3.4924  0.3284  1.9494
 9290TIP3   OH249284   0.731   0.151   5.523  0.0617  0.3182  0.2763
 9290TIP3    H149285   0.691   0.136   5.437  2.2046 -0.3086 -0.6707
 9290TIP3    H249286   0.741   0.246   5.527  0.9609  0.2780 -0.6724
 9291TIP3   OH249287   2.095   0.631   5.000  0.7320  0.3094  0.6103
 9291TIP3    H149288   2.189   0.613   5.001  0.8440  0.8477  1.8348
 9291TIP3    H249289   2.079   0.676   5.082 -0.8891 -1.1769  1.1621
 9292TIP3   OH249290   4.084   2.586   0.762  0.3731  0.1660 -0.9133
 9292TIP3    H149291   4.004   2.552   0.802  0.9831 -0.4714 -0.1866
 9292TIP3    H249292   4.060   2.606   0.672 -0.5026 -0.3863 -0.8126
 9293TIP3   OH249293   5.579   2.862   3.602 -0.2465  0.0121 -0.4328
 9293TIP3    H149294   5.572   2.821   3.689  3.1869  0.3497  0.1536
 9293TIP3    H249295   5.519   2.936   3.605 -0.7994 -0.4579  1.3663
 9294TIP3   OH249296   5.738   1.016  16.420  0.2106  0.4961  0.1618
 9294TIP3    H149297   5.669   1.032  16.355  0.5755 -0.3377 -0.4622
 9294TIP3    H249298   5.804   1.083  16.402 -0.3721  1.2239  0.6851
 9295TIP3   OH249299   1.090   5.558  14.310  0.1701 -0.0945  0.1744
 9295TIP3    H149300   1.166   5.608  14.340 -0.2702  0.6904 -0.0029
 9295TIP3    H249301   1.087   5.482  14.368  0.6635  0.2433  0.6494
 9296TIP3   OH249302   4.177   1.807   6.382  0.6858  0.1928 -0.0874
 9296TIP3    H149303   4.173   1.811   6.287 -2.7728 -1.6610 -0.1728
 9296TIP3    H249304   4.177   1.899   6.410  3.0941  0.8014 -1.7721
 9297TIP3   OH249305   4.628   2.717   3.482 -0.0250  0.1074 -0.2053
 9297TIP3    H149306   4.678   2.642   3.515 -0.5295 -0.3349 -0.4290
 9297TIP3    H249307   4.537   2.687   3.481 -0.2235  0.7007 -0.3609
 9298TIP3   OH249308   2.997   2.948   4.291  1.0149 -0.2057  0.3119
 9298TIP3    H149309   3.077   2.942   4.343  1.1322 -0.5470  0.0977
 9298TIP3    H249310   2.976   3.041   4.290  1.0650 -0.1825  0.8827
 9299TIP3   OH249311   5.210   5.138   2.176  0.0961 -1.1418 -0.5245
 9299TIP3    H149312   5.125   5.180   2.187 -0.3541 -1.3943 -2.6280
 9299TIP3    H249313   5.196   5.047   2.201  0.5980 -0.5542  2.1893
 9300TIP3   OH249314   3.727   2.190  16.540  0.1153  0.1483  0.1866
 9300TIP3    H149315   3.645   2.234  16.563 -1.3565 -2.6032  0.6577
 9300TIP3    H249316   3.719   2.175  16.445 -0.3465 -0.8394  0.3700
 9301TIP3   OH249317   4.241   2.986  11.823 -1.1482 -0.1729 -0.3068
 9301TIP3    H149318   4.218   2.959  11.912 -1.9271  0.1240 -0.4096
 9301TIP3    H249319   4.289   3.068  11.834  0.9969 -1.3922 -0.0100
 9302TIP3   OH249320   3.315   1.000   4.786 -0.2639  0.0592  0.0949
 9302TIP3    H149321   3.229   0.964   4.810 -0.2912 -0.2326 -0.4140
 9302TIP3    H249322   3.374   0.925   4.789  0.2420  0.4859  1.6572
 9303TIP3   OH249323   3.777   4.313   2.157 -0.4760 -0.1668  0.6277
 9303TIP3    H149324   3.778   4.254   2.232 -0.1698  0.2636  0.9654
 9303TIP3    H249325   3.860   4.361   2.162 -0.3462 -0.2990 -0.1159
 9304TIP3   OH249326   0.628   5.348  14.932 -0.3111  0.3159 -0.3283
 9304TIP3    H149327   0.627   5.424  14.874  0.4834  0.0584 -0.7053
 9304TIP3    H249328   0.718   5.344  14.964 -0.9481  1.0156  1.7238
 9305TIP3   OH249329   6.248   4.560   2.329  0.7160  0.6931 -0.3112
 9305TIP3    H149330   6.224   4.537   2.239  0.5333 -1.7398  0.2909
 9305TIP3    H249331   6.185   4.513   2.383  2.0165  0.5237  1.1304
 9306TIP3   OH249332   0.178   6.333   1.526  0.1425  0.6720 -0.8610
 9306TIP3    H149333   0.123   6.314   1.450  0.9430  0.8220 -1.4927
 9306TIP3    H249334   0.198   6.247   1.563 -0.8214  0.6340 -0.3846
 9307TIP3   OH249335   0.534   6.084   3.045  0.5487  0.0416  0.3535
 9307TIP3    H149336   0.519   6.004   2.994  2.2630  0.0900 -0.3110
 9307TIP3    H249337   0.609   6.062   3.100  0.9056  1.1220  0.3166
 9308TIP3   OH249338   0.970   4.325  17.301 -0.1029  0.0341  0.0192
 9308TIP3    H149339   1.051   4.279  17.281 -0.7359 -2.5727  2.8084
 9308TIP3    H249340   0.995   4.391  17.366 -0.1258 -0.3948  0.4646
 9309TIP3   OH249341   6.493   1.318  12.189  0.3230  0.3063 -0.4062
 9309TIP3    H149342   6.557   1.293  12.122 -0.3191  0.9593 -1.2959
 9309TIP3    H249343   6.538   1.383  12.242  1.2214 -1.0345  0.5134
 9310TIP3   OH249344   4.955   4.758   0.550  0.0019 -0.5661 -0.4633
 9310TIP3    H149345   5.039   4.799   0.570 -0.0591 -1.1258  1.0835
 9310TIP3    H249346   4.969   4.664   0.564 -0.5367 -0.8042 -1.4474
 9311TIP3   OH249347   1.060   2.825   2.744 -0.1282  0.0784 -0.7014
 9311TIP3    H149348   1.039   2.917   2.728 -0.0244  0.0927 -0.7540
 9311TIP3    H249349   1.007   2.802   2.821  0.1218  0.2832 -0.4656
 9312TIP3   OH249350   6.007   4.822   3.441  0.1496 -0.1185  0.6998
 9312TIP3    H149351   5.935   4.765   3.413  0.9399 -0.2813 -1.1579
 9312TIP3    H249352   5.975   4.911   3.424  0.1414 -0.1657  0.4586
 9313TIP3   OH249353   3.661   1.835  12.689 -0.2884  0.3068  0.0045
 9313TIP3    H149354   3.736   1.777  12.696 -2.1812 -2.3996 -0.7584
 9313TIP3    H249355   3.689   1.903  12.627  1.7259 -0.1765  0.3084
 9314TIP3   OH249356   3.853   4.312   5.748 -0.2633  0.2836 -0.1847
 9314TIP3    H149357   3.919   4.281   5.809  1.5893 -0.9221 -2.6035
 9314TIP3    H249358   3.829   4.234   5.698 -0.4578  1.4735 -2.0371
 9315TIP3   OH249359   6.174   1.498  13.243  0.6720  0.2895  0.7880
 9315TIP3    H149360   6.209   1.472  13.328  1.6679  0.3176  0.3982
 9315TIP3    H249361   6.082   1.520  13.261  0.3258 -1.5252  1.5064
 9316TIP3   OH249362   6.717   6.174   5.103 -0.0545  0.1457 -0.3046
 9316TIP3    H149363   6.732   6.187   5.009  2.1618  0.0215 -0.0129
 9316TIP3    H249364   6.708   6.080   5.113 -1.1716  0.2212 -0.4824
 9317TIP3   OH249365   1.339   6.517  16.424  0.2322  0.3382 -0.1922
 9317TIP3    H149366   1.332   6.502  16.329 -2.5453  1.4114 -0.2259
 9317TIP3    H249367   1.321   6.431  16.462 -3.7142  0.7924 -0.6381
 9318TIP3   OH249368   2.958   6.747  15.850 -0.2503  0.6910  0.5030
 9318TIP3    H149369   2.930   6.815  15.788 -2.6241 -1.3392 -0.8211
 9318TIP3    H249370   2.877   6.705  15.879  1.1165 -2.0836  0.6771
 9319TIP3   OH249371   3.951   6.495  16.020 -0.7062  0.8341 -0.0097
 9319TIP3    H149372   3.884   6.459  15.961 -0.1439 -0.4242  0.0840
 9319TIP3    H249373   3.902   6.520  16.098 -1.1554  0.4939 -0.1734
 9320TIP3   OH249374   3.946   4.501   5.224  0.5694  0.3622 -0.1437
 9320TIP3    H149375   4.041   4.492   5.213  0.4841 -0.1953 -0.4790
 9320TIP3    H249376   3.910   4.429   5.173  0.0396 -0.7367  1.7087
 9321TIP3   OH249377   1.645   2.782   3.678 -0.3289 -0.2095 -0.1191
 9321TIP3    H149378   1.647   2.871   3.713 -1.5780 -0.3343  0.3158
 9321TIP3    H249379   1.730   2.771   3.635 -0.2638  1.2894 -0.4186
 9322TIP3   OH249380   2.131   3.308  10.881  0.3961 -0.5624 -0.0115
 9322TIP3    H149381   2.197   3.372  10.851  0.5728 -1.7684 -2.3990
 9322TIP3    H249382   2.175   3.224  10.875 -1.7431 -1.6223 -3.3235
 9323TIP3   OH249383   2.073   2.541   6.753  0.1903 -0.6291 -0.2272
 9323TIP3    H149384   2.059   2.636   6.748 -0.6591 -0.7610 -0.4336
 9323TIP3    H249385   2.155   2.532   6.803 -0.8676  0.1661  1.7892
 9324TIP3   OH249386   1.038   3.406   3.539 -0.0406 -0.3371  0.8092
 9324TIP3    H149387   1.083   3.322   3.540 -0.2658 -0.4571  0.9549
 9324TIP3    H249388   1.037   3.434   3.631  0.4362  0.0412  0.7022
 9325TIP3   OH249389   1.363   5.962  11.629  0.6544 -0.5039  0.1280
 9325TIP3    H149390   1.325   5.898  11.690  0.1291 -2.9436 -2.5541
 9325TIP3    H249391   1.290   6.017  11.604  0.5763 -0.3702  0.6297
 9326TIP3   OH249392   4.721   3.898  11.893  0.4197 -0.4533 -0.2346
 9326TIP3    H149393   4.745   3.873  11.983  1.1604 -0.8204 -0.5213
 9326TIP3    H249394   4.791   3.957  11.865 -0.5098  0.7220 -0.1164
 9327TIP3   OH249395   0.275   0.237   5.627  0.0465  0.0886 -0.2625
 9327TIP3    H149396   0.216   0.194   5.689  1.4180 -1.1102  0.2681
 9327TIP3    H249397   0.217   0.265   5.555 -1.5527  1.4520  1.4643
 9328TIP3   OH249398   0.436   3.093  12.831 -0.3102  0.3951  0.0012
 9328TIP3    H149399   0.353   3.088  12.879 -0.6522 -0.4996 -0.6560
 9328TIP3    H249400   0.456   3.187  12.827 -0.7898  0.5541  0.9985
 9329TIP3   OH249401   3.365   6.570   4.343 -0.2591  0.7388 -0.4698
 9329TIP3    H149402   3.307   6.496   4.324 -0.5385  0.8305 -0.0019
 9329TIP3    H249403   3.396   6.599   4.258 -1.8456  1.4364 -0.8504
 9330TIP3   OH249404   0.320   2.089   0.843  0.4746  0.0910 -0.3662
 9330TIP3    H149405   0.365   2.165   0.880 -1.6242  1.6153 -0.7656
 9330TIP3    H249406   0.390   2.033   0.812  2.1291  1.9941 -0.2957
 9331TIP3   OH249407   4.573   0.284   5.747  0.3281  0.0793 -0.8637
 9331TIP3    H149408   4.496   0.337   5.725 -0.0208 -0.1842 -0.3005
 9331TIP3    H249409   4.552   0.245   5.832  0.6734 -0.7942 -1.1668
 9332TIP3   OH249410   5.925   3.390   3.682  0.4228  0.1834  0.2951
 9332TIP3    H149411   5.966   3.413   3.765  0.0345 -1.0880  0.8607
 9332TIP3    H249412   5.951   3.299   3.666  1.8440  0.8945 -1.8182
 9333TIP3   OH249413   6.188   5.561  16.043 -0.2364  0.1104  0.2775
 9333TIP3    H149414   6.149   5.592  16.125 -0.9753  3.2472 -1.1048
 9333TIP3    H249415   6.199   5.640  15.991 -0.8563 -1.8579 -3.1447
 9334TIP3   OH249416   3.968   6.255  15.336 -0.4339  0.7479  0.4650
 9334TIP3    H149417   4.052   6.251  15.288 -1.2910 -1.5997 -1.0262
 9334TIP3    H249418   3.930   6.339  15.310  0.3058  0.6826 -0.9364
 9335TIP3   OH249419   5.168   1.136   2.969  0.2029  0.5469  0.0647
 9335TIP3    H149420   5.168   1.216   3.022 -1.4703  1.2644 -0.9396
 9335TIP3    H249421   5.075   1.118   2.954  0.3248 -3.1615  2.5241
 9336TIP3   OH249422   4.402   5.478   2.064 -0.4715 -0.2121  0.5832
 9336TIP3    H149423   4.364   5.511   1.983  0.5365 -1.7313 -0.5529
 9336TIP3    H249424   4.482   5.529   2.075 -0.1682 -0.5870  0.1462
 9337TIP3   OH249425   0.383   2.047   3.688 -0.3712  0.3950 -0.3671
 9337TIP3    H149426   0.425   1.963   3.671 -2.2495 -0.9984  1.3130
 9337TIP3    H249427   0.291   2.032   3.663 -0.7847  1.8722  0.2046
 9338TIP3   OH249428   5.623   5.037   5.880  0.3991  0.2734 -0.0733
 9338TIP3    H149429   5.706   4.990   5.890  0.3230  0.1693  0.0720
 9338TIP3    H249430   5.592   5.049   5.970  0.4363  0.6331 -0.1088
 9339TIP3   OH249431   6.208   2.264   0.333  0.0921 -0.1961 -0.2682
 9339TIP3    H149432   6.207   2.332   0.265  2.4373 -0.1868 -0.3769
 9339TIP3    H249433   6.261   2.193   0.296  0.9757 -0.4173  1.3166
 9340TIP3   OH249434   3.885   3.540  17.012 -0.0305  0.1177 -0.1130
 9340TIP3    H149435   3.812   3.493  16.973 -0.9915  0.4932  1.1773
 9340TIP3    H249436   3.960   3.519  16.956 -0.3237 -3.1825  0.5071
 9341TIP3   OH249437   6.126   6.034  11.577  0.3946 -0.0700 -0.2257
 9341TIP3    H149438   6.078   6.003  11.500  2.5203 -1.4922 -1.0459
 9341TIP3    H249439   6.065   6.020  11.650 -0.8402 -0.7395 -1.3460
 9342TIP3   OH249440   2.732   3.002  14.471  0.1702 -0.4625  0.0953
 9342TIP3    H149441   2.797   2.951  14.519 -0.1822 -0.6712  0.3560
 9342TIP3    H249442   2.711   3.075  14.530  0.5753 -0.0860 -0.2201
 9343TIP3   OH249443   3.354   4.714  13.217  1.0341  0.2346 -0.0631
 9343TIP3    H149444   3.285   4.659  13.253  2.0545 -0.4112  1.0060
 9343TIP3    H249445   3.335   4.720  13.123  0.5211 -1.3954 -0.0891
 9344TIP3   OH249446   5.426   4.067   3.999  0.1645  0.1320 -0.0909
 9344TIP3    H149447   5.476   4.145   4.024  0.9898 -0.2743 -0.4808
 9344TIP3    H249448   5.463   3.996   4.051 -1.3442  0.1685  1.1397
 9345TIP3   OH249449   4.922   1.729  12.975  0.0863 -0.0095 -0.2653
 9345TIP3    H149450   4.858   1.760  12.911 -0.5141 -3.1189 -1.3285
 9345TIP3    H249451   4.869   1.690  13.045  0.8053 -0.1050  0.2361
 9346TIP3   OH249452   4.267   2.141   2.261  0.0248  0.1349  0.4946
 9346TIP3    H149453   4.183   2.098   2.277  0.2669 -0.3483  0.4928
 9346TIP3    H249454   4.331   2.083   2.302  0.1573  1.7654  2.7915
 9347TIP3   OH249455   5.595   5.977  16.332 -0.1702 -0.1056  0.0129
 9347TIP3    H149456   5.521   5.946  16.383 -0.7190  0.7531 -0.2262
 9347TIP3    H249457   5.653   6.019  16.396 -1.2111  1.6309 -0.1183
 9348TIP3   OH249458   5.126   2.479  13.341 -0.0697  0.0218 -0.1633
 9348TIP3    H149459   5.166   2.395  13.364  0.6834  0.8031  1.5875
 9348TIP3    H249460   5.171   2.506  13.261  1.3915 -0.1442  0.5649
 9349TIP3   OH249461   1.650   5.262  14.127  0.1516  0.0322 -0.5473
 9349TIP3    H149462   1.727   5.239  14.178 -0.9239  2.4470  2.4832
 9349TIP3    H249463   1.628   5.182  14.079  1.9365 -2.1474  1.9616
 9350TIP3   OH249464   1.514   5.713  12.289 -0.0593  0.5031  0.1341
 9350TIP3    H149465   1.541   5.679  12.204  0.1207  0.9120  0.0243
 9350TIP3    H249466   1.566   5.793  12.300  0.4592  0.0784  0.9457
 9351TIP3   OH249467   0.110   3.761   0.776  0.2599 -0.3287 -0.5070
 9351TIP3    H149468   0.043   3.824   0.801  1.8837  1.3090 -0.1289
 9351TIP3    H249469   0.083   3.730   0.690 -0.9274  0.3573 -0.3977
 9352TIP3   OH249470   5.217   4.028  12.038 -0.5299  0.2366  0.0685
 9352TIP3    H149471   5.173   3.983  11.966 -0.1742  0.1916 -0.1234
 9352TIP3    H249472   5.302   3.984  12.045 -0.7477 -0.0877  0.8359
 9353TIP3   OH249473   2.372   2.987  11.145 -0.7466 -0.3743 -0.1470
 9353TIP3    H149474   2.322   3.060  11.109 -0.1945 -0.3703 -0.9356
 9353TIP3    H249475   2.449   2.980  11.089 -0.3009 -0.9431  0.5124
 9354TIP3   OH249476   0.170   5.740  14.665  0.1161  0.0936 -0.5633
 9354TIP3    H149477   0.115   5.683  14.719  0.7685 -0.1442 -0.1407
 9354TIP3    H249478   0.252   5.747  14.714  1.1730 -1.0775 -2.0595
 9355TIP3   OH249479   3.612   2.313  14.513  0.5364  0.3823  0.2774
 9355TIP3    H149480   3.605   2.405  14.536 -0.6984  0.4090 -0.1105
 9355TIP3    H249481   3.557   2.268  14.578 -0.3766  0.1330 -0.6386
 9356TIP3   OH249482   1.379   3.693  16.489  0.0977 -0.2091  0.8022
 9356TIP3    H149483   1.322   3.744  16.432 -0.5407  0.0738  1.6766
 9356TIP3    H249484   1.389   3.609  16.444 -0.3345  0.0306  0.2453
 9357TIP3   OH249485   0.598   4.196   0.206  0.1204 -0.7444  0.9082
 9357TIP3    H149486   0.623   4.216   0.116 -1.2065  2.3211  1.1074
 9357TIP3    H249487   0.537   4.123   0.199 -1.7415  0.8921 -0.9777
 9358TIP3   OH249488   1.551   2.364  11.314 -0.3251 -0.3736 -0.1994
 9358TIP3    H149489   1.613   2.306  11.272  0.3781 -0.1168  0.4495
 9358TIP3    H249490   1.565   2.449  11.273  0.0252 -0.2317  0.2017
 9359TIP3   OH249491   4.660   6.472  12.480  0.0462 -0.1780  0.0486
 9359TIP3    H149492   4.689   6.383  12.499 -0.5124 -0.6082 -1.0049
 9359TIP3    H249493   4.658   6.477  12.385  0.7492  1.2037  0.0764
 9360TIP3   OH249494   0.749   2.899   2.177  0.5213  0.7280  0.2789
 9360TIP3    H149495   0.798   2.940   2.106 -1.4361  3.3928  0.3540
 9360TIP3    H249496   0.758   2.959   2.251  0.6475 -0.8732  1.6199
 9361TIP3   OH249497   6.525   2.506  12.455  0.1752  0.1415  0.1720
 9361TIP3    H149498   6.558   2.424  12.492 -0.7410  0.7409  2.4742
 9361TIP3    H249499   6.436   2.487  12.428 -1.0299  0.9294  3.1991
 9362TIP3   OH249500   6.686   2.955  11.482  0.3761 -0.0823 -0.1643
 9362TIP3    H149501   6.617   2.947  11.416  0.0426 -1.0643  0.2855
 9362TIP3    H249502   6.663   3.035  11.530 -0.6998 -0.6070  0.2410
 9363TIP3   OH249503   0.396   5.180   3.213 -0.8370  0.1102 -0.3986
 9363TIP3    H149504   0.374   5.116   3.145 -0.9785 -0.6749  0.3636
 9363TIP3    H249505   0.399   5.264   3.167 -0.4053 -0.4713 -1.4703
 9364TIP3   OH249506   0.083   4.629   4.304 -0.0413  0.0960 -0.4254
 9364TIP3    H149507   0.152   4.691   4.330 -0.9573  0.3337  1.6040
 9364TIP3    H249508   0.127   4.544   4.299  0.6573  0.4542 -0.4653
 9365TIP3   OH249509   2.699   1.896   3.625 -0.3413  0.3196 -0.1526
 9365TIP3    H149510   2.648   1.965   3.667 -0.0332 -0.2043  1.1161
 9365TIP3    H249511   2.742   1.939   3.551 -1.4120  1.1096 -0.3346
 9366TIP3   OH249512   3.196   2.281  14.033 -0.3190 -0.3265 -0.0628
 9366TIP3    H149513   3.117   2.332  14.015 -1.2925 -1.4507  0.8368
 9366TIP3    H249514   3.164   2.192  14.049  1.0882 -0.7236  0.6998
 9367TIP3   OH249515   0.775   4.886   0.245  0.6808  0.5651 -0.3501
 9367TIP3    H149516   0.775   4.865   0.339  2.2992  2.0131  0.0213
 9367TIP3    H249517   0.818   4.811   0.204  1.1477  0.5025  0.2333
 9368TIP3   OH249518   6.523   6.518   4.335 -0.2296  0.1568 -0.2618
 9368TIP3    H149519   6.562   6.453   4.277  0.5867  1.0463 -0.7388
 9368TIP3    H249520   6.449   6.472   4.376  1.2286 -1.5443  0.5856
 9369TIP3   OH249521   2.085   4.927   4.158  0.5553 -1.0112 -0.6044
 9369TIP3    H149522   2.057   5.019   4.160  0.8132 -0.8760 -2.1718
 9369TIP3    H249523   2.084   4.900   4.250  0.3119  0.5053 -0.1324
 9370TIP3   OH249524   2.644   6.555   4.794  0.2179  0.7288  0.0458
 9370TIP3    H149525   2.714   6.579   4.855  2.0053 -2.7831 -0.3816
 9370TIP3    H249526   2.563   6.564   4.844  1.4717 -0.2870  2.3796
 9371TIP3   OH249527   4.252   1.378  14.228  0.0786  0.1863 -0.3763
 9371TIP3    H149528   4.257   1.391  14.133  0.8385  0.1720 -0.3419
 9371TIP3    H249529   4.343   1.378  14.257 -0.1268 -0.3257  0.2865
 9372TIP3   OH249530   1.868   1.671  14.228  0.0356 -0.1150  0.7300
 9372TIP3    H149531   1.807   1.744  14.220 -0.3073 -0.3290  1.3327
 9372TIP3    H249532   1.858   1.641  14.318  0.3254 -0.7732  0.5494
 9373TIP3   OH249533   1.739   4.518  14.667  0.1678 -0.1308 -0.4430
 9373TIP3    H149534   1.757   4.432  14.705 -0.7610 -0.2714 -0.3033
 9373TIP3    H249535   1.813   4.572  14.695  0.9471 -0.9704 -0.8456
 9374TIP3   OH249536   4.089   1.013   5.913  0.0547 -0.7685 -0.3849
 9374TIP3    H149537   4.134   0.981   5.991 -1.2927  0.7131  1.0977
 9374TIP3    H249538   3.997   1.017   5.939 -0.4469 -0.3768 -2.1134
 9375TIP3   OH249539   2.887   5.646   3.514  0.7159  0.1957  0.0445
 9375TIP3    H149540   2.925   5.598   3.440 -0.2156  0.3219 -0.5383
 9375TIP3    H249541   2.867   5.732   3.478 -0.7590 -0.0937  0.1271
 9376TIP3   OH249542   4.472   4.056   4.101 -1.0115 -0.2926  0.3639
 9376TIP3    H149543   4.467   4.055   4.006 -0.0222  0.2322  0.2947
 9376TIP3    H249544   4.548   4.002   4.122  0.7675  2.1733  0.6664
 9377TIP3   OH249545   3.743   0.748  16.889  0.0692  0.2347 -0.3380
 9377TIP3    H149546   3.804   0.805  16.934  0.3870  0.6837 -1.3200
 9377TIP3    H249547   3.737   0.783  16.801 -0.6876 -0.5143 -0.6012
 9378TIP3   OH249548   1.545   0.506  15.945  0.4195  0.4613  0.0106
 9378TIP3    H149549   1.562   0.448  15.870 -0.7639  2.9736 -2.4161
 9378TIP3    H249550   1.457   0.483  15.974  0.8328 -0.4373  0.5976
 9379TIP3   OH249551   0.740   1.945   1.518 -0.0022  0.0856 -0.3051
 9379TIP3    H149552   0.759   2.015   1.580  0.2198  0.0248 -0.3038
 9379TIP3    H249553   0.806   1.955   1.449 -0.0789 -0.0145 -0.3938
 9380TIP3   OH249554   6.388   5.082  12.700  0.1633  0.3638  0.4943
 9380TIP3    H149555   6.359   5.008  12.648  0.3226  0.1314  0.7357
 9380TIP3    H249556   6.480   5.094  12.675  0.8961 -1.0912  2.2517
 9381TIP3   OH249557   1.545   5.882  15.214 -0.0481 -0.4746  0.0226
 9381TIP3    H149558   1.463   5.929  15.227  0.6107  0.4884  0.7582
 9381TIP3    H249559   1.539   5.849  15.124 -1.0791 -0.1208 -0.0545
 9382TIP3   OH249560   0.969   5.417   3.211  0.0764  0.0437 -0.0638
 9382TIP3    H149561   0.969   5.481   3.140  0.0037  1.3714  1.0801
 9382TIP3    H249562   1.050   5.367   3.198 -0.7443 -0.8782 -2.0107
 9383TIP3   OH249563   1.631   3.263  13.564 -0.3592  0.0847 -0.0874
 9383TIP3    H149564   1.677   3.184  13.537  0.2282 -0.0098  1.1497
 9383TIP3    H249565   1.541   3.250  13.533  0.2067 -0.1031 -1.7720
 9384TIP3   OH249566   0.426   1.998  14.901  0.2951  0.6961  0.1051
 9384TIP3    H149567   0.354   1.996  14.837  0.6499 -3.0295 -0.3639
 9384TIP3    H249568   0.398   1.939  14.971  2.2030  0.4332  0.6998
 9385TIP3   OH249569   6.625   3.329   5.620  0.7252  0.1210 -1.1315
 9385TIP3    H149570   6.591   3.409   5.580 -0.5530 -0.3748 -1.1129
 9385TIP3    H249571   6.683   3.359   5.689 -1.9176  1.2029  0.8247
 9386TIP3   OH249572   4.202   1.363  11.027  0.1796 -0.5702 -0.2960
 9386TIP3    H149573   4.145   1.287  11.030 -1.1582  0.3470 -1.1488
 9386TIP3    H249574   4.142   1.438  11.020  1.4687  0.3895 -2.1330
 9387TIP3   OH249575   5.530   5.562   1.110  0.5061  0.2120 -0.2447
 9387TIP3    H149576   5.579   5.487   1.077 -0.1238 -0.4448  0.3022
 9387TIP3    H249577   5.535   5.626   1.038  2.0856  0.1440 -0.2356
 9388TIP3   OH249578   3.455   4.127   5.347  0.6482 -0.1451 -0.1712
 9388TIP3    H149579   3.488   4.211   5.376  1.2203 -0.0681 -1.0169
 9388TIP3    H249580   3.521   4.064   5.375  0.6980 -0.1941 -0.3972
 9389TIP3   OH249581   2.262   4.951   3.458  0.3461  0.0479 -0.4338
 9389TIP3    H149582   2.214   4.963   3.376 -2.2438 -0.0500  0.9676
 9389TIP3    H249583   2.332   4.890   3.436 -1.7454 -1.9089 -2.0902
 9390TIP3   OH249584   1.419   1.568  12.757  0.0127  0.2657 -0.7579
 9390TIP3    H149585   1.476   1.552  12.832  0.8259 -1.1804 -1.6392
 9390TIP3    H249586   1.330   1.560  12.793  0.3850 -1.3813 -0.1228
 9391TIP3   OH249587   3.659   6.762   6.369 -0.1817  0.3170  0.0768
 9391TIP3    H149588   3.644   6.713   6.450  1.3371 -0.7295 -0.2263
 9391TIP3    H249589   3.573   6.765   6.327 -0.6255 -0.8024  0.8281
 9392TIP3   OH249590   5.590   5.014   1.650  0.1983 -0.1053  0.1128
 9392TIP3    H149591   5.537   5.093   1.660  1.5099  0.7117  0.9093
 9392TIP3    H249592   5.681   5.044   1.662  0.7543 -1.6647  0.0560
 9393TIP3   OH249593   0.504   6.760  16.444  0.1686  0.2519  0.2996
 9393TIP3    H149594   0.586   6.716  16.422 -0.1820 -0.1054 -0.3060
 9393TIP3    H249595   0.447   6.744  16.369 -0.3521  0.7656  0.5786
 9394TIP3   OH249596   5.522   3.284  14.377  0.0170 -0.1822 -0.2552
 9394TIP3    H149597   5.502   3.331  14.296 -0.9701 -1.7323 -0.9515
 9394TIP3    H249598   5.471   3.203  14.371  1.0084 -0.9617  1.2781
 9395TIP3   OH249599   1.240   0.235   1.484 -0.3440  0.2898 -0.1216
 9395TIP3    H149600   1.185   0.276   1.418  0.1580  2.2312  0.5871
 9395TIP3    H249601   1.222   0.284   1.564  1.6770  0.3393  0.3511
 9396TIP3   OH249602   0.198   2.912  11.527  0.0975 -0.0505 -0.2923
 9396TIP3    H149603   0.115   2.936  11.486 -0.2732  0.7593  0.8943
 9396TIP3    H249604   0.196   2.954  11.612  2.8439  2.1305 -1.1636
 9397TIP3   OH249605   6.449   3.977  15.837  0.2814 -0.2580  0.3226
 9397TIP3    H149606   6.353   3.977  15.836  0.2678 -0.1308  0.9922
 9397TIP3    H249607   6.474   3.983  15.745 -0.3552 -0.3040  0.1426
 9398TIP3   OH249608   6.401   5.125  17.361  0.4279  0.4601  0.3672
 9398TIP3    H149609   6.457   5.203  17.353 -0.6527  1.1366 -0.9442
 9398TIP3    H249610   6.421   5.074  17.283  0.1300  0.0827  0.5399
 9399TIP3   OH249611   5.632   5.232   4.170 -0.8220 -0.1909  0.0064
 9399TIP3    H149612   5.541   5.262   4.166 -0.8786 -0.3488  0.1038
 9399TIP3    H249613   5.639   5.187   4.254 -0.5756  0.0751  0.1264
 9400TIP3   OH249614   1.583   3.506  13.221  0.2383 -0.7174 -0.0769
 9400TIP3    H149615   1.573   3.518  13.316 -2.0420 -0.8484 -0.2429
 9400TIP3    H249616   1.539   3.424  13.202 -0.6100  0.0065 -1.4283
 9401TIP3   OH249617   0.315   6.626  13.527  0.2729  0.0893 -0.0287
 9401TIP3    H149618   0.347   6.549  13.481  0.2785  0.5000 -0.7240
 9401TIP3    H249619   0.226   6.638  13.495  0.0041 -0.0625  0.6411
 9402TIP3   OH249620   1.085   0.641   2.734 -0.2618  0.3171 -0.2297
 9402TIP3    H149621   1.109   0.715   2.678  0.0414 -0.4138 -1.0830
 9402TIP3    H249622   1.137   0.654   2.814  1.3014 -0.0228 -1.1542
 9403TIP3   OH249623   0.295   5.720   5.821 -0.5607 -0.2400  0.1474
 9403TIP3    H149624   0.213   5.708   5.773 -1.7989 -0.6585  2.2483
 9403TIP3    H249625   0.277   5.790   5.883  0.5368 -0.6152  0.9308
 9404TIP3   OH249626   4.174   1.800   0.181  0.0056 -0.3675  0.2546
 9404TIP3    H149627   4.203   1.820   0.092  3.0851 -1.5794  0.8535
 9404TIP3    H249628   4.106   1.734   0.169 -0.1060 -0.0240 -1.2368
 9405TIP3   OH249629   3.450   3.251  11.478 -0.1777  0.0641  0.3690
 9405TIP3    H149630   3.395   3.206  11.415  0.5535  0.6948 -0.7625
 9405TIP3    H249631   3.512   3.185  11.508 -0.5958 -0.2661  0.5103
 9406TIP3   OH249632   6.217   4.684   3.568 -0.2461 -0.3305  0.6852
 9406TIP3    H149633   6.143   4.743   3.552  0.6161  0.3434 -1.1002
 9406TIP3    H249634   6.292   4.743   3.581  0.2252 -1.0087  1.0846
 9407TIP3   OH249635   1.457   5.010  11.884  0.3887 -0.3010 -0.0929
 9407TIP3    H149636   1.546   5.017  11.850  0.0147 -0.2361 -1.1004
 9407TIP3    H249637   1.403   4.991  11.807 -0.7285  1.5207  0.1873
 9408TIP3   OH249638   5.780   0.644  14.022  0.3301 -0.0342 -1.1031
 9408TIP3    H149639   5.848   0.651  13.955 -0.6843  2.0148 -2.0027
 9408TIP3    H249640   5.827   0.652  14.105  1.2048  1.7117 -1.7097
 9409TIP3   OH249641   6.100   3.483  13.342 -0.0928  0.0239  0.0101
 9409TIP3    H149642   6.123   3.396  13.376 -1.8121 -0.4322  0.0652
 9409TIP3    H249643   6.032   3.466  13.277 -1.0356  1.3915  0.6092
 9410TIP3   OH249644   5.377   6.642  14.508  0.3348  0.6149  0.6278
 9410TIP3    H149645   5.281   6.641  14.509  0.2991  1.9354  1.3764
 9410TIP3    H249646   5.402   6.552  14.490 -1.0465  0.3761 -0.2433
 9411TIP3   OH249647   4.019   0.132   6.161  0.0798  0.2484  0.4440
 9411TIP3    H149648   4.046   0.205   6.105  0.5593 -0.1896  0.0877
 9411TIP3    H249649   4.099   0.082   6.175 -0.2244 -0.1580  0.7580
 9412TIP3   OH249650   4.043   5.508   3.412 -0.2271 -0.0906 -0.2319
 9412TIP3    H149651   3.948   5.495   3.405 -0.1707 -0.3639 -0.5227
 9412TIP3    H249652   4.071   5.442   3.476 -0.6058  1.7770  1.9815
 9413TIP3   OH249653   1.555   5.918   3.019  0.4642  0.3242 -0.4201
 9413TIP3    H149654   1.577   5.879   3.104 -0.9189  1.2168  0.3813
 9413TIP3    H249655   1.603   6.000   3.018 -1.4512  1.5263  0.6506
 9414TIP3   OH249656   6.480   4.850   0.954 -0.0637 -0.2306 -0.5045
 9414TIP3    H149657   6.396   4.891   0.934  0.9848  2.5994  0.3744
 9414TIP3    H249658   6.512   4.818   0.870 -0.7136  1.3519 -1.3940
 9415TIP3   OH249659   3.562   3.545  12.168 -0.1137  0.0778  0.4133
 9415TIP3    H149660   3.515   3.498  12.236  1.3541 -0.6935  0.9390
 9415TIP3    H249661   3.542   3.497  12.087 -1.4312  0.6837  0.3476
 9416TIP3   OH249662   5.683   1.060  11.415 -0.1002 -0.0365  0.1876
 9416TIP3    H149663   5.724   1.056  11.328  0.8442 -1.8453  0.6689
 9416TIP3    H249664   5.747   1.106  11.469  0.7051 -1.5765  0.5972
 9417TIP3   OH249665   5.439   2.083  12.349 -0.2799 -0.5107 -0.3355
 9417TIP3    H149666   5.390   2.157  12.314 -1.0242 -0.8465 -0.0201
 9417TIP3    H249667   5.530   2.104  12.330 -0.5093  0.3133 -0.5720
 9418TIP3   OH249668   4.486   6.676  16.488 -0.0028 -0.0982  0.0692
 9418TIP3    H149669   4.457   6.592  16.450 -1.0233  0.6892 -0.9574
 9418TIP3    H249670   4.450   6.676  16.576 -0.5674 -0.4661 -0.1499
 9419TIP3   OH249671   5.107   5.194   1.371  0.0944  0.2217  0.5198
 9419TIP3    H149672   5.070   5.135   1.306  0.2331  0.3642  0.3090
 9419TIP3    H249673   5.199   5.167   1.378  1.1040  2.5649 -2.1038
 9420TIP3   OH249674   6.193   4.891  15.630  0.4183  0.0587 -0.2173
 9420TIP3    H149675   6.216   4.818  15.687 -2.1822 -0.5493  0.2150
 9420TIP3    H249676   6.148   4.953  15.687 -0.7550  0.2012 -1.2304
 9421TIP3   OH249677   3.471   0.587  12.153 -0.3554  0.2561 -0.4238
 9421TIP3    H149678   3.542   0.563  12.094 -1.1883  2.1412 -2.3510
 9421TIP3    H249679   3.391   0.565  12.105 -1.0632  0.9713  0.3760
 9422TIP3   OH249680   1.317   2.804  11.637 -0.2124 -0.0868  0.2018
 9422TIP3    H149681   1.326   2.790  11.731 -3.2039 -2.1883  0.3437
 9422TIP3    H249682   1.339   2.720  11.597 -0.3405  0.3484 -0.8434
 9423TIP3   OH249683   5.900   6.040   4.111  0.3728  0.1478  0.3684
 9423TIP3    H149684   5.878   6.131   4.131  0.7624  1.1797 -3.1996
 9423TIP3    H249685   5.856   6.022   4.028  1.7647 -2.3278  0.0550
 9424TIP3   OH249686   6.103   5.510  13.572  0.2003 -0.0042 -0.5393
 9424TIP3    H149687   6.060   5.503  13.487  0.1786 -0.4257 -0.4949
 9424TIP3    H249688   6.031   5.505  13.636  0.3143 -0.8210 -0.4610
 9425TIP3   OH249689   6.009   0.629  13.860 -0.0508  0.0983 -0.0492
 9425TIP3    H149690   6.024   0.535  13.861  0.7427  0.2159 -0.3168
 9425TIP3    H249691   6.046   0.659  13.777 -0.1138  0.6762  0.1241
 9426TIP3   OH249692   1.971   2.047  14.767 -0.0244 -0.0130 -0.4939
 9426TIP3    H149693   1.891   2.063  14.716 -0.3317  1.4682  0.3902
 9426TIP3    H249694   1.960   2.102  14.845  1.4214 -0.5529  0.1086
 9427TIP3   OH249695   1.262   1.104   0.814 -0.1828 -0.0007  0.7864
 9427TIP3    H149696   1.330   1.097   0.880 -0.5825 -0.9063  1.1232
 9427TIP3    H249697   1.182   1.074   0.858 -0.1721 -2.1246 -0.5080
 9428TIP3   OH249698   0.002   3.952   4.842 -0.2865 -0.1052  0.0986
 9428TIP3    H149699   0.068   3.937   4.911 -0.3305 -0.1460  0.1313
 9428TIP3    H249700  -0.020   3.865   4.811 -0.8508 -0.1401  0.5806
 9429TIP3   OH249701   1.849   3.816   5.446 -0.0058  0.0402 -0.3123
 9429TIP3    H149702   1.798   3.743   5.480  0.8731 -0.6811 -0.5127
 9429TIP3    H249703   1.936   3.780   5.431 -0.1814  0.4461 -2.7760
 9430TIP3   OH249704   0.915   0.210  15.011 -0.5277 -0.8059  0.0647
 9430TIP3    H149705   0.862   0.288  15.029 -1.1711 -1.1090 -0.4947
 9430TIP3    H249706   0.998   0.245  14.976 -1.4520 -0.3847 -1.8531
 9431TIP3   OH249707   2.450   4.173   5.795  0.0287  0.3310 -0.5089
 9431TIP3    H149708   2.403   4.252   5.822 -0.7481 -0.6043  0.9968
 9431TIP3    H249709   2.496   4.144   5.874  1.3778 -0.0094 -1.3866
 9432TIP3   OH249710   1.936   4.851  11.468 -0.4257 -0.2962  0.2430
 9432TIP3    H149711   2.017   4.884  11.508 -1.2167 -0.6833  2.3143
 9432TIP3    H249712   1.934   4.890  11.381  2.2497 -0.6962 -0.0798
 9433TIP3   OH249713   1.673   3.288  14.280  0.2763  0.2271  0.0779
 9433TIP3    H149714   1.676   3.352  14.351 -0.6466  0.0918  0.2557
 9433TIP3    H249715   1.730   3.217  14.309 -2.1400 -1.1017  2.0018
 9434TIP3   OH249716   0.682   2.499  15.848 -0.3011  0.0771 -0.1286
 9434TIP3    H149717   0.718   2.583  15.878 -1.3358 -0.5674  3.4027
 9434TIP3    H249718   0.758   2.450  15.819  0.4159  1.9284 -1.5966
 9435TIP3   OH249719   6.747   5.108  17.277 -0.3648 -0.0752  0.2285
 9435TIP3    H149720   6.742   5.068  17.190  0.3549 -1.4071  0.7635
 9435TIP3    H249721   6.838   5.136  17.286 -0.7075  1.1308  0.1245
 9436TIP3   OH249722   0.976   6.134   2.837 -0.1271 -0.1280 -0.1212
 9436TIP3    H149723   0.984   6.218   2.883 -1.9705  0.3586 -0.6173
 9436TIP3    H249724   0.999   6.155   2.746  0.2332 -0.3511 -0.0815
 9437TIP3   OH249725   2.981   6.285  13.737 -0.0577 -0.3753  0.4604
 9437TIP3    H149726   2.983   6.239  13.821  0.4379  0.6272  1.0012
 9437TIP3    H249727   3.059   6.255  13.691  0.2028 -0.1518  0.7624
 9438TIP3   OH249728   0.571   1.613   3.053 -0.3762  0.2881  0.1070
 9438TIP3    H149729   0.648   1.575   3.094 -1.1753 -0.2616  1.1568
 9438TIP3    H249730   0.574   1.582   2.962  0.1094 -0.5500  0.3978
 9439TIP3   OH249731   5.285   4.986  10.835  0.2392  0.0009  0.5624
 9439TIP3    H149732   5.337   5.065  10.823  1.5295 -1.0446 -1.2074
 9439TIP3    H249733   5.198   5.018  10.859  0.0073  2.1552 -2.5341
 9440TIP3   OH249734   3.141   2.795  12.665  0.4213 -0.0136  0.0171
 9440TIP3    H149735   3.079   2.817  12.734  0.2581  2.0035 -0.7043
 9440TIP3    H249736   3.119   2.854  12.593  0.7281 -1.9011 -1.7111
 9441TIP3   OH249737   6.004   0.884  11.891 -0.9176  0.2296 -0.0518
 9441TIP3    H149738   6.000   0.794  11.857  1.7524  0.3780 -0.9271
 9441TIP3    H249739   6.081   0.885  11.947  0.5084  2.5301 -1.8803
 9442TIP3   OH249740   5.969   2.017  16.907  0.7153  0.0904  0.9025
 9442TIP3    H149741   5.943   1.959  16.836 -1.5227  0.5672  1.2547
 9442TIP3    H249742   5.984   2.102  16.865  0.8953  0.0049  0.7966
 9443TIP3   OH249743   2.579   2.218  14.968 -0.1640  0.3969 -0.4439
 9443TIP3    H149744   2.595   2.165  15.046 -1.4464  3.4027  2.0617
 9443TIP3    H249745   2.647   2.286  14.972  0.0475  0.3350 -2.2810
 9444TIP3   OH249746   0.711   5.748  14.144  0.1275 -0.3637  0.1534
 9444TIP3    H149747   0.692   5.796  14.064 -0.3584 -1.5942 -0.4880
 9444TIP3    H249748   0.636   5.765  14.201  0.2832  0.1779  0.2052
 9445TIP3   OH249749   2.702   6.377  12.289 -0.2075  0.1542 -0.6614
 9445TIP3    H149750   2.712   6.339  12.202  0.8544 -0.8294 -0.1430
 9445TIP3    H249751   2.607   6.381  12.303 -0.3951  0.4450 -1.8964
 9446TIP3   OH249752   6.010   4.358  15.398 -0.0155 -0.0260  0.1231
 9446TIP3    H149753   5.974   4.413  15.468 -0.5355 -0.4512  0.1973
 9446TIP3    H249754   5.971   4.393  15.318  0.8841  0.7116 -0.0110
 9447TIP3   OH249755   0.370   1.751   0.151 -0.4372 -0.1643  0.6621
 9447TIP3    H149756   0.385   1.838   0.188 -0.5844  1.0652 -1.9426
 9447TIP3    H249757   0.421   1.692   0.207  0.0484  1.6399  2.2264
 9448TIP3   OH249758   2.294   5.082  12.076  0.1167  0.1977 -0.3029
 9448TIP3    H149759   2.376   5.128  12.093 -0.5917  0.2973  4.0529
 9448TIP3    H249760   2.238   5.147  12.033  1.4731  0.9813 -0.9305
 9449TIP3   OH249761   5.268   2.854   1.540 -0.0225 -0.1021 -0.2751
 9449TIP3    H149762   5.276   2.866   1.445 -1.9685  0.5023 -0.4139
 9449TIP3    H249763   5.279   2.760   1.554  0.8030 -0.1281 -1.0263
 9450TIP3   OH249764   3.111   1.258  16.469  0.2326  0.4589 -0.2561
 9450TIP3    H149765   3.155   1.215  16.396 -0.2142  0.2362 -0.3937
 9450TIP3    H249766   3.179   1.263  16.537  0.4924  0.1781 -0.4886
 9451TIP3   OH249767   3.196   1.895   1.677 -0.5011 -0.1389  0.4742
 9451TIP3    H149768   3.141   1.967   1.647 -1.6322 -0.7700  0.9774
 9451TIP3    H249769   3.221   1.849   1.598  0.2312  0.7877  0.1475
 9452TIP3   OH249770   5.574   3.170   5.914  0.3426  0.2752  0.0082
 9452TIP3    H149771   5.527   3.252   5.928  1.4244  0.8274  0.6395
 9452TIP3    H249772   5.613   3.151   5.999  0.2153 -0.8366 -0.1693
 9453TIP3   OH249773   5.048   4.953  10.498  0.2747 -0.0165 -0.2836
 9453TIP3    H149774   5.133   4.996  10.496  0.4097 -0.0291  2.1940
 9453TIP3    H249775   4.990   5.016  10.541 -0.7903 -0.3266 -1.2146
 9454TIP3   OH249776   3.551   4.230   1.628  0.6271  0.0660 -0.7528
 9454TIP3    H149777   3.628   4.194   1.673  1.4442  2.6353  0.0747
 9454TIP3    H249778   3.512   4.290   1.691 -2.6557 -1.7648 -0.8402
 9455TIP3   OH249779   5.097   6.283  17.165 -0.3854  0.1775 -0.0630
 9455TIP3    H149780   5.013   6.305  17.126  0.1038  0.7264 -0.8566
 9455TIP3    H249781   5.158   6.283  17.091  0.4476  0.5563  0.6021
 9456TIP3   OH249782   3.913   2.065  16.242  0.2079 -0.0671 -0.1048
 9456TIP3    H149783   3.887   2.052  16.151 -0.6302  0.9581 -0.0335
 9456TIP3    H249784   3.919   2.160  16.252 -0.6480 -0.1228  1.1573
 9457TIP3   OH249785   4.730   2.846   2.083 -0.2013  0.1234 -0.4919
 9457TIP3    H149786   4.704   2.931   2.118 -2.1975  0.1448 -1.9036
 9457TIP3    H249787   4.650   2.809   2.047  0.5004 -2.5918  0.4684
 9458TIP3   OH249788   5.122   3.018   1.709  0.5426 -0.3651  0.4919
 9458TIP3    H149789   5.175   3.014   1.788  1.5032  0.5673 -0.0732
 9458TIP3    H249790   5.174   2.972   1.643  0.2633 -0.1674  0.1300
 9459TIP3   OH249791   3.904   5.107   4.356 -0.1644  0.0550 -0.6287
 9459TIP3    H149792   3.826   5.163   4.357 -2.6456 -3.1167 -0.7358
 9459TIP3    H249793   3.939   5.118   4.267 -0.9679  0.9245 -0.8642
 9460TIP3   OH249794   3.590   1.072  17.249 -0.0586 -0.0363 -0.2595
 9460TIP3    H149795   3.603   1.064  17.344 -2.6687  2.2490  0.3987
 9460TIP3    H249796   3.662   1.020  17.212  2.3377  0.6572  2.9047
 9461TIP3   OH249797   1.624   4.205   4.123 -0.1243 -0.0453  0.2391
 9461TIP3    H149798   1.544   4.233   4.079  0.8851  1.5501 -0.6699
 9461TIP3    H249799   1.692   4.210   4.056  0.7092 -1.6335  0.9159
 9462TIP3   OH249800   6.757   6.225   2.853  0.1979  0.4644 -0.0635
 9462TIP3    H149801   6.680   6.183   2.892  0.7858  0.5461  1.2094
 9462TIP3    H249802   6.790   6.284   2.921  0.1138  2.1155 -1.3645
 9463TIP3   OH249803   3.522   2.788  15.931  0.1654  0.2492  0.6909
 9463TIP3    H149804   3.450   2.743  15.976  1.4084 -2.0093  0.5312
 9463TIP3    H249805   3.536   2.737  15.851  1.7667  0.8111  0.5858
 9464TIP3   OH249806   4.195   4.739   6.658  0.2083 -0.5768  0.0636
 9464TIP3    H149807   4.272   4.795   6.653  0.3707 -0.6284  1.5798
 9464TIP3    H249808   4.143   4.763   6.581  1.6235 -0.3897 -0.8562
 9465TIP3   OH249809   3.507   0.955   1.976  0.1251  0.4305 -0.0310
 9465TIP3    H149810   3.568   0.926   1.907 -1.2969 -0.1795 -1.0731
 9465TIP3    H249811   3.527   0.898   2.050 -0.3340 -0.9870 -0.9453
 9466TIP3   OH249812   0.452   5.169  12.303  0.5437  0.1783  0.0962
 9466TIP3    H149813   0.492   5.212  12.227  1.1131 -0.6305 -0.0763
 9466TIP3    H249814   0.527   5.138  12.354  0.1906  1.2941  1.3539
 9467TIP3   OH249815   0.705   3.987  15.861 -0.0523  0.5616  0.2097
 9467TIP3    H149816   0.625   3.964  15.814  0.6536  0.3504 -0.9268
 9467TIP3    H249817   0.761   3.909  15.853  0.6333  1.0483  0.1530
 9468TIP3   OH249818   1.898   4.283   3.446  0.3009  0.3180  0.7816
 9468TIP3    H149819   1.961   4.340   3.491 -1.1050  1.6633  1.1099
 9468TIP3    H249820   1.813   4.325   3.459 -0.4946 -0.6444 -0.9282
 9469TIP3   OH249821   1.527   4.462   2.744  0.2711 -0.1641 -0.6608
 9469TIP3    H149822   1.584   4.386   2.730  0.4833 -0.1970  0.2879
 9469TIP3    H249823   1.443   4.425   2.768 -0.2305 -0.1175 -2.2383
 9470TIP3   OH249824   2.250   5.510  17.253 -0.0646  0.1658  0.0275
 9470TIP3    H149825   2.166   5.471  17.277  1.3313 -2.9127  0.3517
 9470TIP3    H249826   2.285   5.544  17.335 -0.6418  0.8400  0.0103
 9471TIP3   OH249827   5.607   3.441   3.027 -0.0419 -0.8947  0.6384
 9471TIP3    H149828   5.623   3.402   2.941 -1.4712 -1.4809  0.6210
 9471TIP3    H249829   5.647   3.527   3.022  0.0996 -1.0180 -0.5313
 9472TIP3   OH249830   4.669   1.907   2.695 -0.1001  0.4748  0.4996
 9472TIP3    H149831   4.651   1.828   2.643 -0.8377  0.2993  1.0008
 9472TIP3    H249832   4.739   1.881   2.754  1.2826  0.8974 -0.8797
 9473TIP3   OH249833   1.274   2.904  16.327 -0.1966  0.1467  0.1603
 9473TIP3    H149834   1.307   2.969  16.390  0.6110 -2.1917  2.3495
 9473TIP3    H249835   1.352   2.856  16.300 -0.8086 -0.1322 -1.1830
 9474TIP3   OH249836   5.651   3.060   1.928 -0.5338 -0.5169 -0.3539
 9474TIP3    H149837   5.650   3.057   2.023 -1.9053 -1.4869 -0.3614
 9474TIP3    H249838   5.744   3.050   1.904  0.1967  2.5070  0.8741
 9475TIP3   OH249839   4.502   1.978   6.020  0.5581  0.5445 -0.2594
 9475TIP3    H149840   4.447   2.054   6.040  1.8022  1.5109 -0.3562
 9475TIP3    H249841   4.522   1.940   6.105 -1.7372 -0.9640 -0.3078
 9476TIP3   OH249842   0.642   1.742  16.924  0.2171 -0.2506  0.0727
 9476TIP3    H149843   0.579   1.713  16.990 -0.4047  1.6658  0.3661
 9476TIP3    H249844   0.615   1.831  16.902  0.1012 -0.9565 -3.1486
 9477TIP3   OH249845   5.785   4.564   5.122  0.3166 -0.3451 -0.5644
 9477TIP3    H149846   5.838   4.498   5.076 -0.3102 -0.8797 -0.5240
 9477TIP3    H249847   5.842   4.641   5.125  2.4576 -1.8456  2.3746
 9478TIP3   OH249848   5.621   3.219  15.338  0.3505 -0.3178  0.5837
 9478TIP3    H149849   5.542   3.205  15.389  0.6612  0.8980  1.4494
 9478TIP3    H249850   5.601   3.295  15.283  1.3622  0.9662  1.8897
 9479TIP3   OH249851   4.581   4.822  12.969  0.4760  0.1624  0.5065
 9479TIP3    H149852   4.548   4.906  12.937 -1.5176 -0.9957 -0.6274
 9479TIP3    H249853   4.586   4.767  12.891 -1.2651 -1.7185  1.6315
 9480TIP3   OH249854   3.290   3.359  12.435  0.0210  0.5191 -0.6716
 9480TIP3    H149855   3.289   3.284  12.376 -0.3480 -0.5578  0.6607
 9480TIP3    H249856   3.277   3.434  12.377 -1.4820 -0.5765 -1.8449
 9481TIP3   OH249857   0.234   4.716   1.869  0.1650  0.5828  0.5502
 9481TIP3    H149858   0.309   4.716   1.928  1.4063  1.6865 -0.9403
 9481TIP3    H249859   0.237   4.801   1.826  0.7559 -0.9582 -2.7735
 9482TIP3   OH249860   1.671   3.275   4.956  0.0881  0.0638 -0.2405
 9482TIP3    H149861   1.693   3.215   5.028  0.1791  1.2320  0.7284
 9482TIP3    H249862   1.721   3.354   4.975 -0.0990  0.4878 -1.4623
 9483TIP3   OH249863   2.253   5.986   3.089 -0.0305  0.3782  0.2195
 9483TIP3    H149864   2.277   6.078   3.089 -0.4019  0.4867  1.3083
 9483TIP3    H249865   2.317   5.944   3.147  0.2636 -0.0964 -0.4274
 9484TIP3   OH249866   5.936   6.423  11.854  0.1720  0.0147  0.1323
 9484TIP3    H149867   5.863   6.381  11.808  0.7732 -0.2055 -0.6343
 9484TIP3    H249868   5.963   6.359  11.919 -1.1719  0.6223  1.3632
 9485TIP3   OH249869   5.382   5.393   4.127  0.4945  0.4916 -0.2991
 9485TIP3    H149870   5.381   5.465   4.063  0.6114 -1.4884 -2.6959
 9485TIP3    H249871   5.314   5.333   4.095  2.0175 -1.5884  0.2145
 9486TIP3   OH249872   3.945   6.126  12.116  0.2181 -0.2862 -0.3912
 9486TIP3    H149873   3.911   6.209  12.151 -0.1861 -1.3325  1.8888
 9486TIP3    H249874   3.916   6.060  12.179  1.1380 -2.0859 -1.7663
 9487TIP3   OH249875   6.514   1.923   5.147 -0.2850  0.0348 -0.3001
 9487TIP3    H149876   6.499   1.979   5.070 -1.3804  0.5902  0.3028
 9487TIP3    H249877   6.605   1.940   5.171 -0.7600  2.0560  0.2364
 9488TIP3   OH249878   5.490   0.817  13.055 -0.1468  0.3029  0.2637
 9488TIP3    H149879   5.449   0.872  12.989 -0.2390 -0.8508 -0.6772
 9488TIP3    H249880   5.478   0.727  13.023  0.3898 -0.2477  1.5167
 9489TIP3   OH249881   0.634   2.437   6.789  0.0609  0.0531 -0.4718
 9489TIP3    H149882   0.608   2.501   6.723  1.2554  1.0904  0.0221
 9489TIP3    H249883   0.659   2.360   6.739  0.4609  0.6456 -1.2114
 9490TIP3   OH249884   3.007   3.480  13.035  0.2967 -1.3024  0.4254
 9490TIP3    H149885   2.917   3.513  13.032  0.5820 -0.4759  0.8083
 9490TIP3    H249886   3.032   3.471  12.943 -0.1695 -1.5334  0.3173
 9491TIP3   OH249887   1.647   2.529   3.943 -0.1573  0.0221 -0.0133
 9491TIP3    H149888   1.660   2.499   3.853  2.4410  1.1310 -0.0912
 9491TIP3    H249889   1.611   2.453   3.988  0.3792 -1.2015 -1.5410
 9492TIP3   OH249890   3.355   2.035  11.408 -0.0448 -0.3976  0.5153
 9492TIP3    H149891   3.383   2.102  11.346  1.1901  0.0671  1.5247
 9492TIP3    H249892   3.270   2.006  11.375 -0.5093  1.4842 -0.0949
 9493TIP3   OH249893   0.139   2.602   3.547  0.1637 -0.0930  0.4534
 9493TIP3    H149894   0.083   2.680   3.551  0.7302  0.3196  0.4625
 9493TIP3    H249895   0.227   2.636   3.531  0.2676 -0.7939 -0.5467
 9494TIP3   OH249896   1.885   6.166  12.938  0.2150  0.1742 -0.6872
 9494TIP3    H149897   1.901   6.259  12.955 -1.7361  0.8658 -2.3739
 9494TIP3    H249898   1.947   6.121  12.996  0.5667  2.4790  0.8649
 9495TIP3   OH249899   5.152   2.223   1.947 -0.3797 -1.1345  0.0185
 9495TIP3    H149900   5.185   2.168   2.018  2.9706  1.5930  0.8119
 9495TIP3    H249901   5.098   2.290   1.990  2.1572  0.8948  0.2513
 9496TIP3   OH249902   4.979   4.321  15.561 -0.2102  0.7635  0.2909
 9496TIP3    H149903   4.918   4.273  15.506  0.8924  1.3384 -1.5153
 9496TIP3    H249904   4.958   4.413  15.545 -0.5093  0.9478  1.6178
 9497TIP3   OH249905   1.035   6.515  14.774 -0.2390  0.1792  0.3625
 9497TIP3    H149906   1.080   6.491  14.693 -0.4937  0.5040  0.1186
 9497TIP3    H249907   1.099   6.499  14.843 -0.7857 -2.3194  0.3630
 9498TIP3   OH249908   6.531   5.453  12.640  1.2381  0.5328 -0.3484
 9498TIP3    H149909   6.512   5.537  12.599 -0.4586  0.5268  0.3497
 9498TIP3    H249910   6.549   5.473  12.731  1.9627  0.2346 -0.4156
 9499TIP3   OH249911   6.611   1.601  15.074  0.3446  0.2438 -0.0665
 9499TIP3    H149912   6.635   1.632  14.987 -1.6224 -1.4687 -1.3075
 9499TIP3    H249913   6.521   1.632  15.087  0.9299  1.3203  1.8306
 9500TIP3   OH249914   3.893   4.969  14.701 -0.5239  0.3208  0.5279
 9500TIP3    H149915   3.889   5.005  14.612 -1.3381  0.2233  0.5172
 9500TIP3    H249916   3.942   5.034  14.751  0.6147  0.0152 -0.1598
 9501TIP3   OH249917   2.110   0.235  13.114  0.2064 -0.8502 -0.6427
 9501TIP3    H149918   2.044   0.241  13.183 -0.2469  1.1917 -1.1793
 9501TIP3    H249919   2.061   0.209  13.036  0.2283 -0.4768 -0.7835
 9502TIP3   OH249920   6.119   2.157  12.889 -0.1874 -0.1535  0.5435
 9502TIP3    H149921   6.024   2.143  12.882  0.0503 -1.6568 -0.2612
 9502TIP3    H249922   6.129   2.251  12.901 -1.6673  0.4427 -2.1372
 9503TIP3   OH249923   6.203   5.008   0.512 -0.7869  0.1665  0.4863
 9503TIP3    H149924   6.126   5.014   0.455 -1.4845 -0.1537  1.3792
 9503TIP3    H249925   6.251   5.089   0.494 -1.9302  0.9321  0.7561
 9504TIP3   OH249926   4.329   1.580   5.030  0.0004  0.2601  0.1472
 9504TIP3    H149927   4.317   1.485   5.031 -0.2462  0.2639  2.0915
 9504TIP3    H249928   4.241   1.614   5.010 -0.3411  0.0854  1.2827
 9505TIP3   OH249929   4.638   4.139  11.126 -0.2305 -0.0482 -0.2992
 9505TIP3    H149930   4.695   4.190  11.184 -1.1293 -0.1582  0.7164
 9505TIP3    H249931   4.640   4.051  11.163 -2.1343  0.2523  0.6057
 9506TIP3   OH249932   5.713   2.884  12.691 -0.0738 -0.6645  0.0215
 9506TIP3    H149933   5.716   2.896  12.786  0.9868 -1.6128  0.1295
 9506TIP3    H249934   5.801   2.853  12.668 -0.7074 -1.7615 -1.0648
 9507TIP3   OH249935   1.738   6.209   4.377  0.3324  0.2550  0.4405
 9507TIP3    H149936   1.808   6.144   4.381 -0.5341 -0.6395  1.8269
 9507TIP3    H249937   1.694   6.203   4.461 -2.5002 -0.4359 -0.9674
 9508TIP3   OH249938   1.223   6.489   5.723  0.0905  0.1573 -0.1606
 9508TIP3    H149939   1.141   6.539   5.717  0.5021  0.9271  0.4447
 9508TIP3    H249940   1.271   6.530   5.795  1.0334 -0.2585 -0.5359
 9509TIP3   OH249941   4.770   2.868  17.014  0.3355  0.6423 -0.3731
 9509TIP3    H149942   4.710   2.942  17.002 -1.8602 -1.3559 -3.2176
 9509TIP3    H249943   4.743   2.828  17.096 -0.8725  0.9871 -0.5752
 9510TIP3   OH249944   3.111   4.179   5.756 -0.0990 -0.5819 -0.2393
 9510TIP3    H149945   3.120   4.259   5.704  2.8571 -0.4167  0.3384
 9510TIP3    H249946   3.074   4.209   5.839 -2.1637 -0.4150 -1.1534
 9511TIP3   OH249947   3.478   1.044   3.144  0.0038  0.0989 -0.3133
 9511TIP3    H149948   3.436   1.007   3.067 -0.0546 -0.8514  0.1655
 9511TIP3    H249949   3.406   1.077   3.198 -0.0715 -0.6092  0.0319
 9512TIP3   OH249950   2.566   1.025   2.026 -0.0959  0.2410 -0.0896
 9512TIP3    H149951   2.549   0.931   2.022  1.3546 -0.1111  1.0312
 9512TIP3    H249952   2.603   1.046   1.941 -0.0864 -0.2839 -0.2190
 9513TIP3   OH249953   2.273   5.797  16.712 -0.2020 -0.1174 -0.1219
 9513TIP3    H149954   2.365   5.820  16.723  0.2842 -1.2690 -1.4809
 9513TIP3    H249955   2.245   5.847  16.635 -0.3176 -0.7982 -0.5317
 9514TIP3   OH249956   2.760   6.155   1.777 -0.0728 -0.1573  0.5935
 9514TIP3    H149957   2.854   6.153   1.794  0.0001  0.6508  0.3266
 9514TIP3    H249958   2.721   6.103   1.847  0.7452 -2.6307 -0.6527
 9515TIP3   OH249959   3.411   3.908  10.997 -0.1865 -0.3130  0.3461
 9515TIP3    H149960   3.347   3.855  11.044 -0.8400  1.0242  0.9988
 9515TIP3    H249961   3.359   3.972  10.949  0.6418  0.8508  0.9443
 9516TIP3   OH249962   1.506   4.417  12.670  0.3476 -0.6304 -0.2691
 9516TIP3    H149963   1.425   4.427  12.621  0.4188 -1.3055 -0.5310
 9516TIP3    H249964   1.485   4.448  12.758  0.0870  0.1278 -0.5975
 9517TIP3   OH249965   6.426   2.069  14.641 -0.0941 -0.5694 -0.4922
 9517TIP3    H149966   6.456   2.126  14.712 -1.4270 -3.7307  2.9081
 9517TIP3    H249967   6.387   2.130  14.577 -0.5836  2.4256  2.3543
 9518TIP3   OH249968   0.091   6.269   3.426 -0.4956  0.3516  0.1391
 9518TIP3    H149969   0.172   6.311   3.456 -1.0914  1.2460  0.5165
 9518TIP3    H249970   0.034   6.341   3.400 -0.5960 -0.3386 -1.6582
 9519TIP3   OH249971   3.528   2.746  11.696  0.0246 -0.2101  0.1963
 9519TIP3    H149972   3.614   2.704  11.702  0.5391  0.5250 -1.3960
 9519TIP3    H249973   3.488   2.708  11.618 -1.1496 -0.6038  0.9646
 9520TIP3   OH249974   4.186   1.064   4.293  0.0113 -0.3394  0.1906
 9520TIP3    H149975   4.264   1.118   4.305 -1.7693  1.9111  2.8104
 9520TIP3    H249976   4.119   1.124   4.262 -0.7305 -2.2853 -2.3546
 9521TIP3   OH249977   6.323   6.629  15.788 -0.4482  0.1096  0.3483
 9521TIP3    H149978   6.367   6.578  15.856  0.5074 -0.2221 -0.4778
 9521TIP3    H249979   6.356   6.592  15.706 -1.6181  0.4578 -0.2964
 9522TIP3   OH249980   2.157   3.408   3.041  0.5984  0.1901 -0.3433
 9522TIP3    H149981   2.150   3.397   2.946  2.4198  3.7434 -1.0645
 9522TIP3    H249982   2.233   3.465   3.052 -0.3198  0.9206  3.1769
 9523TIP3   OH249983   1.362   0.082  13.458 -0.2123 -0.1909 -0.1967
 9523TIP3    H149984   1.290   0.127  13.502  0.7162 -0.5109  1.7754
 9523TIP3    H249985   1.366  -0.004  13.500 -0.2007 -1.0994 -1.9754
 9524TIP3   OH249986   0.231   5.321   2.898  0.1706  0.3338  0.3629
 9524TIP3    H149987   0.264   5.397   2.947  0.7733 -0.6011  1.4549
 9524TIP3    H249988   0.310   5.282   2.860  0.0579 -0.6438  1.1217
 9525TIP3   OH249989   1.825   0.998   4.170  0.2457  0.6044 -0.9084
 9525TIP3    H149990   1.891   0.935   4.201 -2.0690 -1.2066  0.8156
 9525TIP3    H249991   1.869   1.082   4.172  2.0392 -0.2458  1.9066
 9526TIP3   OH249992   4.075   3.483  12.278 -0.1446 -0.1901 -0.1943
 9526TIP3    H149993   4.106   3.573  12.273  0.4937 -0.3923  0.0145
 9526TIP3    H249994   3.999   3.486  12.336 -0.3260  0.2629 -0.4535
 9527TIP3   OH249995   0.690   2.790   7.387  0.6019  0.3833  0.5688
 9527TIP3    H149996   0.687   2.724   7.318  1.2814  0.0622  0.8355
 9527TIP3    H249997   0.689   2.873   7.341 -0.4932  0.2026  0.2356
 9528TIP3   OH249998   0.712   1.999  15.382 -0.1383 -0.2667 -0.0545
 9528TIP3    H149999   0.671   2.078  15.416  1.2911  0.5633 -0.1469
 9528TIP3    H250000   0.742   1.952  15.459 -2.0543 -1.3888  0.0739
 9529TIP3   OH250001   1.805   1.249   5.808  0.0188 -0.0288  0.1732
 9529TIP3    H150002   1.832   1.165   5.770  0.4017 -0.5964  1.6483
 9529TIP3    H250003   1.744   1.226   5.877  1.7801  0.7037  2.0761
 9530TIP3   OH250004   4.372   3.335   3.738 -0.3798  0.1689 -0.3311
 9530TIP3    H150005   4.422   3.397   3.792 -0.3206 -0.0343 -0.1495
 9530TIP3    H250006   4.285   3.336   3.777 -0.6632  0.8991 -0.9565
 9531TIP3   OH250007   5.482   0.235  13.667 -0.0536  0.4661  0.1396
 9531TIP3    H150008   5.389   0.222  13.685  0.3196  0.4397  2.3133
 9531TIP3    H250009   5.493   0.330  13.668 -0.4736  0.6352 -2.8217
 9532TIP3   OH250010   5.964   6.732  12.570  0.0372 -0.0808  0.4186
 9532TIP3    H150011   5.993   6.729  12.479 -0.2503  0.5963  0.3014
 9532TIP3    H250012   5.886   6.788  12.569  1.0617  1.4355  1.3432
 9533TIP3   OH250013   4.803   0.264  12.058 -0.1106  0.4721  0.0906
 9533TIP3    H150014   4.724   0.209  12.064  1.4497 -1.8756  0.3002
 9533TIP3    H250015   4.851   0.247  12.139  0.7207  1.7574 -0.0948
 9534TIP3   OH250016   5.692   4.118   3.720 -0.6342 -0.1055 -0.1385
 9534TIP3    H150017   5.701   4.043   3.778 -1.3741 -1.6590 -1.9445
 9534TIP3    H250018   5.598   4.125   3.703 -0.4655  0.5242 -0.8837
 9535TIP3   OH250019   6.133   0.174   6.190 -0.2894  0.8754 -0.9628
 9535TIP3    H150020   6.151   0.082   6.170 -1.6325  0.2391  0.5659
 9535TIP3    H250021   6.201   0.198   6.254 -0.9933  0.3978 -0.0215
 9536TIP3   OH250022   6.417   2.279   0.552 -0.0663 -0.0314 -0.0704
 9536TIP3    H150023   6.480   2.351   0.548 -0.4686  0.3612  0.5435
 9536TIP3    H250024   6.336   2.317   0.520 -0.5728  0.1228  1.3363
 9537TIP3   OH250025   4.365   4.874  12.348  0.2174 -0.1673  0.2110
 9537TIP3    H150026   4.425   4.947  12.365  1.5092 -0.8497 -1.2022
 9537TIP3    H250027   4.397   4.803  12.404 -1.0212  0.2702  1.5629
 9538TIP3   OH250028   6.111   4.789   0.663  0.1439 -0.4639  0.5256
 9538TIP3    H150029   6.141   4.877   0.640  1.8263 -1.0591  0.2757
 9538TIP3    H250030   6.049   4.767   0.594  2.1394 -0.6750 -1.3232
 9539TIP3   OH250031   2.073   2.970  11.551  0.4927  0.3907 -0.2212
 9539TIP3    H150032   2.158   2.950  11.512  0.9094 -0.2564  0.9736
 9539TIP3    H250033   2.024   2.889  11.543  1.6470 -0.8077  3.2431
 9540TIP3   OH250034   0.217   1.850  16.249 -0.1362 -0.4498  0.3421
 9540TIP3    H150035   0.247   1.941  16.246 -0.0115 -0.5098 -0.7548
 9540TIP3    H250036   0.189   1.836  16.339 -1.2594  1.0358  0.2540
 9541TIP3   OH250037   4.245   2.847  13.082 -0.7272  0.1821 -0.1645
 9541TIP3    H150038   4.260   2.913  13.150 -0.5064  0.8223 -0.8297
 9541TIP3    H250039   4.198   2.777  13.127 -2.3359  1.4587  0.2095
 9542TIP3   OH250040   0.556   0.874  16.073  0.6594  0.0768 -0.1585
 9542TIP3    H150041   0.575   0.836  16.159 -0.5884  0.0435  0.1139
 9542TIP3    H250042   0.611   0.823  16.013  0.1171 -1.2038  0.3793
 9543TIP3   OH250043   3.298   3.656   1.188 -0.0488  0.2998  0.5952
 9543TIP3    H150044   3.233   3.592   1.159 -0.2201  1.2805 -1.3441
 9543TIP3    H250045   3.317   3.631   1.278  0.9308 -3.3329 -0.4388
 9544TIP3   OH250046   0.730   5.495   2.466 -0.5260  0.4158  0.4635
 9544TIP3    H150047   0.772   5.522   2.385  0.0006  0.0361  0.5990
 9544TIP3    H250048   0.739   5.571   2.524  1.2649 -0.1124  0.9666
 9545TIP3   OH250049   4.017   3.044   6.780 -0.2794 -0.1969  0.6219
 9545TIP3    H150050   3.940   3.045   6.724  0.8403  1.1194 -1.0022
 9545TIP3    H250051   4.003   2.970   6.839 -1.0701 -2.3710 -2.0768
 9546TIP3   OH250052   2.561   0.028  15.781  0.3689  0.9085 -0.2234
 9546TIP3    H150053   2.540   0.011  15.689  1.3737  0.1924 -0.3408
 9546TIP3    H250054   2.630  -0.035  15.802  0.2126  1.1108  1.0073
 9547TIP3   OH250055   4.741   1.481  16.981 -0.2567 -0.1277  0.0300
 9547TIP3    H150056   4.817   1.474  17.038  0.1442 -2.0823 -0.6823
 9547TIP3    H250057   4.682   1.541  17.027  0.9719  0.0558  1.4251
 9548TIP3   OH250058   3.330   6.488   1.221 -0.2251 -0.2121 -0.6898
 9548TIP3    H150059   3.306   6.538   1.298 -0.6301 -0.3856 -0.6943
 9548TIP3    H250060   3.248   6.481   1.171  0.0472 -0.0380 -1.1701
 9549TIP3   OH250061   4.309   5.739   3.891  0.0155  0.0430 -0.2958
 9549TIP3    H150062   4.314   5.759   3.797 -0.6668  1.8791  0.0226
 9549TIP3    H250063   4.216   5.747   3.912  0.3213  0.9190  0.7935
 9550TIP3   OH250064   2.504   1.949   2.596 -0.0598 -0.2523 -0.2137
 9550TIP3    H150065   2.409   1.958   2.599 -0.0962 -0.0957 -1.3425
 9550TIP3    H250066   2.534   2.026   2.548  0.7252  0.1389  0.8538
 9551TIP3   OH250067   2.871   3.100   5.294  0.5894 -0.2975 -0.5780
 9551TIP3    H150068   2.801   3.051   5.338 -0.6203  1.5699 -0.3195
 9551TIP3    H250069   2.852   3.089   5.201  0.6588 -0.7503 -0.5446
 9552TIP3   OH250070   3.312   0.425   4.385  0.2717  0.5344  0.0761
 9552TIP3    H150071   3.395   0.415   4.432  0.9547  1.0587 -0.9625
 9552TIP3    H250072   3.338   0.433   4.293 -1.0001 -0.2570 -0.3832
 9553TIP3   OH250073   6.021   1.019   5.566 -0.0603 -0.2185 -0.4607
 9553TIP3    H150074   6.018   1.059   5.653  1.0262  1.0631 -0.9910
 9553TIP3    H250075   6.074   0.940   5.578 -0.5337 -0.4473  0.1830
 9554TIP3   OH250076   3.146   4.767  11.108 -0.1754 -0.0411 -0.4131
 9554TIP3    H150077   3.193   4.723  11.037 -1.1938  0.5572 -1.4971
 9554TIP3    H250078   3.134   4.857  11.077 -1.7289 -0.0875 -0.0288
 9555TIP3   OH250079   5.504   6.012  15.848 -0.3802 -0.7444  0.2619
 9555TIP3    H150080   5.508   5.920  15.876 -0.2806 -0.8884 -0.2056
 9555TIP3    H250081   5.583   6.025  15.797 -1.0124 -0.7767 -0.7573
 9556TIP3   OH250082   0.347   2.409   0.575  0.1385 -0.2604 -0.2833
 9556TIP3    H150083   0.293   2.332   0.591  1.1941 -0.9372  0.1552
 9556TIP3    H250084   0.300   2.481   0.618 -1.3564 -0.4422 -1.5300
 9557TIP3   OH250085   4.343   5.199   5.711  0.2584  0.0461 -0.4631
 9557TIP3    H150086   4.253   5.168   5.719  0.3169  0.1995  1.0937
 9557TIP3    H250087   4.362   5.238   5.796  1.3713  1.1698 -1.1960
 9558TIP3   OH250088   2.981   5.406   5.671  0.2904  0.1900  0.7119
 9558TIP3    H150089   3.066   5.371   5.700  0.3234  0.5697  1.0799
 9558TIP3    H250090   2.933   5.425   5.752 -0.9403 -1.8730  0.5156
 9559TIP3   OH250091   3.609   5.494   2.985  0.4726  0.0233 -0.5282
 9559TIP3    H150092   3.542   5.429   3.006  0.1819  0.0628 -1.3193
 9559TIP3    H250093   3.584   5.571   3.037 -0.1011  0.0397 -0.8167
 9560TIP3   OH250094   1.270   4.780   5.968  0.5319 -0.2671 -0.0637
 9560TIP3    H150095   1.180   4.768   5.940 -0.0505  0.4225  1.4072
 9560TIP3    H250096   1.276   4.730   6.050  1.4160 -0.1240 -0.0317
 9561TIP3   OH250097   5.830   1.450  11.316 -0.0385  0.5426 -0.5107
 9561TIP3    H150098   5.795   1.491  11.237 -0.6312  1.4598  0.2065
 9561TIP3    H250099   5.907   1.502  11.338  0.4460 -0.0491 -0.7812
 9562TIP3   OH250100   5.899   0.001   0.767 -0.2027  0.3756  0.4934
 9562TIP3    H150101   5.976   0.000   0.711 -0.5653 -0.0400 -0.0081
 9562TIP3    H250102   5.836   0.056   0.721 -0.4332  0.1897  0.5837
 9563TIP3   OH250103   3.683   6.054  16.435  0.6230  0.3036 -0.4120
 9563TIP3    H150104   3.589   6.063  16.445  0.4060  0.4070 -2.2684
 9563TIP3    H250105   3.716   6.047  16.525 -1.1378  0.2174  0.2640
 9564TIP3   OH250106   6.034   0.880  13.974  0.3354 -0.1562  0.2827
 9564TIP3    H150107   6.019   0.958  13.921 -2.0280  0.3980  1.6488
 9564TIP3    H250108   6.036   0.808  13.911 -0.3433  0.6980 -0.7489
 9565TIP3   OH250109   5.182   0.287   3.150 -0.8158  0.2743 -0.1277
 9565TIP3    H150110   5.101   0.265   3.195 -1.1193  0.3262 -0.6459
 9565TIP3    H250111   5.177   0.240   3.066  0.0302 -0.3337  0.1485
 9566TIP3   OH250112   3.289   1.417   6.060 -0.3452 -0.3228 -0.1245
 9566TIP3    H150113   3.274   1.437   5.968 -3.0454 -1.5343 -0.0400
 9566TIP3    H250114   3.371   1.368   6.061  1.2589  2.1467 -1.4533
 9567TIP3   OH250115   4.244   4.456   0.128 -0.1958 -0.0368 -0.5043
 9567TIP3    H150116   4.166   4.434   0.178 -2.3073  0.9172 -3.0932
 9567TIP3    H250117   4.263   4.378   0.076 -1.5297  0.7331 -2.2682
 9568TIP3   OH250118   1.703   1.148  11.962  0.2792  0.8374  0.2366
 9568TIP3    H150119   1.737   1.206  12.031  2.7896 -1.4140  1.0580
 9568TIP3    H250120   1.675   1.070  12.009 -0.1903  0.1715 -1.1084
 9569TIP3   OH250121   5.610   5.179   4.444 -0.0377 -0.0965  0.4616
 9569TIP3    H150122   5.607   5.257   4.499 -0.5666 -0.2224  0.6217
 9569TIP3    H250123   5.535   5.127   4.473 -0.4825 -0.0458 -0.5663
 9570TIP3   OH250124   4.334   3.722   0.623 -0.0358 -0.6803 -0.0508
 9570TIP3    H150125   4.257   3.699   0.674  0.8315 -0.2372  1.5479
 9570TIP3    H250126   4.388   3.773   0.684  0.3863  1.2084 -1.8998
 9571TIP3   OH250127   0.809   4.023  13.105  0.4115  0.6120 -0.1086
 9571TIP3    H150128   0.727   3.977  13.084  0.4213  1.2015 -1.5598
 9571TIP3    H250129   0.870   3.952  13.127  0.3153 -0.1124 -1.9248
 9572TIP3   OH250130   1.701   3.456   0.764 -1.1430 -0.2607 -0.6701
 9572TIP3    H150131   1.706   3.371   0.808 -1.5632 -0.5990 -1.2606
 9572TIP3    H250132   1.647   3.440   0.687 -2.8257  0.9699  0.1836
 9573TIP3   OH250133   2.445   2.398  16.958  0.7330  0.2893 -0.0375
 9573TIP3    H150134   2.457   2.411  17.052  0.8827 -1.3825  0.1977
 9573TIP3    H250135   2.350   2.391  16.947  0.7413  0.0530  0.0476
 9574TIP3   OH250136   1.018   5.897  14.083  0.2942  0.1783  0.4527
 9574TIP3    H150137   0.972   5.954  14.021  0.1047  0.3185  0.7205
 9574TIP3    H250138   1.094   5.865  14.034 -0.3735 -0.4962 -0.1773
 9575TIP3   OH250139   6.539   4.652  16.080 -0.2324  0.4096  0.0801
 9575TIP3    H150140   6.482   4.575  16.076 -0.2482  0.4827 -1.4465
 9575TIP3    H250141   6.497   4.716  16.022  0.9474  0.7928 -0.3661
 9576TIP3   OH250142   0.469   3.019   1.784  0.4155  0.4349  0.6073
 9576TIP3    H150143   0.504   3.078   1.851 -0.2319  2.3012 -0.6039
 9576TIP3    H250144   0.457   3.075   1.707 -0.6724 -1.2037 -0.4786
 9577TIP3   OH250145   0.267   1.230   0.647 -0.5553  0.2341  0.5266
 9577TIP3    H150146   0.267   1.235   0.551 -0.3529 -2.0338  0.3619
 9577TIP3    H250147   0.222   1.310   0.674 -0.7628  0.8596 -1.4588
 9578TIP3   OH250148   2.245   2.365  13.976 -0.3294  0.0723 -0.0445
 9578TIP3    H150149   2.232   2.419  14.054 -1.1938 -0.6683  0.3458
 9578TIP3    H250150   2.268   2.279  14.010 -0.4218 -0.1819 -0.6155
 9579TIP3   OH250151   1.920   4.776   2.616 -0.2906 -0.1354 -0.1629
 9579TIP3    H150152   1.900   4.683   2.601  0.4635 -0.6898  1.8352
 9579TIP3    H250153   1.839   4.812   2.652 -0.1704 -0.3693  0.3489
 9580TIP3   OH250154   6.061   3.652  15.414 -0.2170 -0.2230 -0.2916
 9580TIP3    H150155   5.970   3.679  15.400  0.0491  0.7922 -0.1743
 9580TIP3    H250156   6.077   3.671  15.506  0.3172  0.2925 -0.4807
 9581TIP3   OH250157   6.270   6.339  15.329 -0.7458 -0.0667 -0.5040
 9581TIP3    H150158   6.199   6.297  15.377 -1.2052  3.1754  2.0473
 9581TIP3    H250159   6.230   6.417  15.290  1.2439  1.7981  0.9034
 9582TIP3   OH250160   3.421   4.632   3.986 -0.1629  0.0372  0.5556
 9582TIP3    H150161   3.381   4.552   4.020 -0.2936  0.2503  0.9050
 9582TIP3    H250162   3.367   4.703   4.021 -0.6739  0.2438 -0.5838
 9583TIP3   OH250163   0.585   0.452  13.596  0.1019 -0.3209  0.5635
 9583TIP3    H150164   0.570   0.399  13.518  4.3347 -1.1182  0.0579
 9583TIP3    H250165   0.643   0.523  13.566 -0.2219  0.8493  2.5003
 9584TIP3   OH250166   5.732   3.915  14.761 -0.0830 -0.8498 -0.4942
 9584TIP3    H150167   5.739   3.832  14.714  0.2586 -1.0620 -0.0765
 9584TIP3    H250168   5.639   3.923  14.781 -0.2508 -0.7077 -1.2841
 9585TIP3   OH250169   5.127   2.056   4.458  0.8857 -0.1181 -0.3312
 9585TIP3    H150170   5.083   1.971   4.449  0.3405  0.2994 -2.0479
 9585TIP3    H250171   5.087   2.111   4.391  0.8551  1.6841  1.0878
 9586TIP3   OH250172   5.544   4.188   1.199  0.2509 -0.4475  0.1290
 9586TIP3    H150173   5.517   4.097   1.190 -0.6520 -0.3047  1.2828
 9586TIP3    H250174   5.614   4.187   1.264 -0.7265 -0.1669  1.2137
 9587TIP3   OH250175   5.851   4.159  16.095 -0.5284  0.3729 -0.2343
 9587TIP3    H150176   5.854   4.218  16.170 -1.1476  1.0204 -0.7033
 9587TIP3    H250177   5.770   4.109  16.108  0.5763 -1.2673  0.7889
 9588TIP3   OH250178   1.623   4.869  17.120  0.4910 -0.1035 -0.7168
 9588TIP3    H150179   1.689   4.886  17.187 -0.8863 -1.3350  1.0468
 9588TIP3    H250180   1.585   4.955  17.102  0.8125  0.2331  0.1606
 9589TIP3   OH250181   4.814   2.824  15.365 -0.1734  0.0488  0.3230
 9589TIP3    H150182   4.825   2.734  15.395 -1.6627 -0.2717 -0.0286
 9589TIP3    H250183   4.721   2.843  15.380 -0.2133  1.0001 -1.0092
 9590TIP3   OH250184   1.641   3.045   3.869  0.1510 -0.6018  0.2663
 9590TIP3    H150185   1.665   3.101   3.944  1.7414 -1.2718  0.3039
 9590TIP3    H250186   1.597   2.970   3.909 -2.0651  0.5974  0.2100
 9591TIP3   OH250187   1.623   1.664   3.130 -0.0736  0.0827  0.3010
 9591TIP3    H150188   1.645   1.685   3.040  1.2527  0.6996  0.7475
 9591TIP3    H250189   1.669   1.582   3.147 -1.5184 -0.8293 -0.0150
 9592TIP3   OH250190   1.179   4.346  13.198  0.1537  0.2606 -0.8138
 9592TIP3    H150191   1.230   4.292  13.137 -0.2020  0.7712 -1.5747
 9592TIP3    H250192   1.091   4.310  13.194  0.7278 -1.7841  1.8419
 9593TIP3   OH250193   1.475   4.403  14.293  0.5956 -0.0851  0.9247
 9593TIP3    H150194   1.475   4.313  14.326 -1.2585 -1.1896 -1.7081
 9593TIP3    H250195   1.564   4.434  14.307  0.6734 -1.3723  4.1796
 9594TIP3   OH250196   5.156   0.385  14.319 -0.1444  0.0378 -0.1247
 9594TIP3    H150197   5.093   0.436  14.266  0.2082  0.1262 -0.4634
 9594TIP3    H250198   5.165   0.302  14.272  1.1200  0.5878 -0.9023
 9595TIP3   OH250199   6.664   3.914   3.892 -0.0917  0.0270 -0.3885
 9595TIP3    H150200   6.628   3.963   3.966 -0.3322 -1.2098  0.3293
 9595TIP3    H250201   6.590   3.904   3.831  0.3134  1.8122 -1.2683
 9596TIP3   OH250202   5.409   6.558   2.012  0.2845  0.3591 -0.0417
 9596TIP3    H150203   5.363   6.638   2.038 -0.9703  1.2775 -4.2811
 9596TIP3    H250204   5.344   6.488   2.023  0.5118  0.3238  1.1981
 9597TIP3   OH250205   5.679   6.076   3.530 -0.3148 -0.2771  0.2499
 9597TIP3    H150206   5.741   6.010   3.564 -0.7738 -0.2410  1.1790
 9597TIP3    H250207   5.625   6.027   3.469  0.1925 -0.4660 -0.0596
 9598TIP3   OH250208   1.327   3.131   4.124 -0.3251 -0.4069 -0.3934
 9598TIP3    H150209   1.382   3.062   4.161  0.8886  1.2678  1.1040
 9598TIP3    H250210   1.262   3.148   4.193  0.2120  0.8272 -0.1752
 9599TIP3   OH250211   3.464   5.916  12.888 -1.3083 -0.3391 -0.5686
 9599TIP3    H150212   3.503   5.859  12.821 -0.0290 -0.6399  0.3830
 9599TIP3    H250213   3.481   6.005  12.856 -0.4740 -0.4784 -0.5478
 9600TIP3   OH250214   6.030   4.209   1.662 -0.7101 -0.1224  0.2069
 9600TIP3    H150215   5.950   4.250   1.697 -0.3014 -0.0105  1.0285
 9600TIP3    H250216   6.053   4.264   1.588 -2.2131 -1.0044 -0.9726
 9601TIP3   OH250217   2.411   6.518   6.708  0.4168 -0.4461 -0.4797
 9601TIP3    H150218   2.329   6.530   6.757  1.1158  0.9948  0.4072
 9601TIP3    H250219   2.388   6.457   6.638 -0.6839 -2.4490  1.4990
 9602TIP3   OH250220   6.375   6.509   1.426 -0.4207 -0.2772  0.0174
 9602TIP3    H150221   6.318   6.565   1.374 -0.7491 -0.7402 -0.1250
 9602TIP3    H250222   6.348   6.420   1.405 -0.5738 -0.4775  0.9986
 9603TIP3   OH250223   6.582   0.217  11.235 -0.8377 -0.3507 -0.1266
 9603TIP3    H150224   6.522   0.289  11.253 -0.5033 -0.1048  0.0007
 9603TIP3    H250225   6.598   0.222  11.141  0.9068  1.0983  0.1991
 9604TIP3   OH250226   2.577   2.107   3.745  0.1073 -0.0659  0.1058
 9604TIP3    H150227   2.575   2.161   3.824  0.0815  1.5357 -0.9406
 9604TIP3    H250228   2.585   2.170   3.673 -1.2012 -1.3669 -1.2656
 9605TIP3   OH250229   4.768   5.155  15.632 -0.4870  0.3068 -0.1671
 9605TIP3    H150230   4.814   5.161  15.715  0.2922 -2.2688 -0.3043
 9605TIP3    H250231   4.783   5.239  15.589  2.3317  0.3522  0.7109
 9606TIP3   OH250232   0.212   1.938   4.550  0.2066  0.2023 -0.3497
 9606TIP3    H150233   0.292   1.968   4.593  0.7979 -0.6803 -0.7990
 9606TIP3    H250234   0.213   1.983   4.465 -0.5332  1.3033  0.2043
 9607TIP3   OH250235   0.220   1.540  11.584 -0.3323 -0.2289  0.2105
 9607TIP3    H150236   0.232   1.510  11.494 -0.0290 -0.5940  0.3682
 9607TIP3    H250237   0.133   1.579  11.585 -0.5408 -0.6772 -0.1207
 9608TIP3   OH250238   4.579   1.307  15.451  0.2264  0.3380 -0.4670
 9608TIP3    H150239   4.614   1.278  15.535 -2.7450  2.8449  1.9207
 9608TIP3    H250240   4.616   1.394  15.438  1.0276 -0.2069 -2.0793
 9609TIP3   OH250241   4.850   2.970  12.531  0.3398 -0.0890 -0.2632
 9609TIP3    H150242   4.884   2.994  12.618  0.3886 -0.8698 -0.0601
 9609TIP3    H250243   4.868   3.047  12.477 -2.4316  1.6811  1.1056
 9610TIP3   OH250244   5.365   3.752   4.127  0.3475  0.3830 -0.6396
 9610TIP3    H150245   5.394   3.793   4.208 -2.3953 -0.1366  0.7071
 9610TIP3    H250246   5.447   3.730   4.081  2.0334  0.1888  2.2091
 9611TIP3   OH250247   0.423   4.199  17.077 -0.3984  0.0409  0.3723
 9611TIP3    H150248   0.417   4.272  17.140  0.2628 -0.5349  1.1313
 9611TIP3    H250249   0.431   4.121  17.132 -0.2331 -0.5234 -0.4373
 9612TIP3   OH250250   3.511   0.582   5.817  0.1127 -0.2561  0.3284
 9612TIP3    H150251   3.470   0.638   5.884  0.5441  1.0744 -0.4883
 9612TIP3    H250252   3.596   0.560   5.854  0.3326  0.4382  0.2493
 9613TIP3   OH250253   5.605   1.644   0.873 -0.3320 -0.0518  0.2733
 9613TIP3    H150254   5.638   1.560   0.903 -0.6900  0.0131  0.8609
 9613TIP3    H250255   5.643   1.655   0.785 -0.7941 -1.1155 -0.0708
 9614TIP3   OH250256   0.733   6.576   0.858 -0.1792  0.4397  0.0496
 9614TIP3    H150257   0.819   6.601   0.893 -0.8137  1.2718  1.0550
 9614TIP3    H250258   0.716   6.490   0.896 -0.3625  0.8457  0.8952
 9615TIP3   OH250259   1.255   6.295  17.131  0.2605 -0.6134  0.4462
 9615TIP3    H150260   1.211   6.329  17.053  0.3930 -1.8580 -0.1871
 9615TIP3    H250261   1.343   6.333  17.127  0.2777 -0.6927 -0.0260
 9616TIP3   OH250262   4.556   1.064  16.053  0.0081  0.1370 -0.1536
 9616TIP3    H150263   4.480   1.024  16.012 -0.6987  0.5679  0.6939
 9616TIP3    H250264   4.608   0.990  16.086 -0.5816 -0.1378  0.1815
 9617TIP3   OH250265   2.610   6.191  10.254 -0.4261 -0.3900  0.0459
 9617TIP3    H150266   2.596   6.278  10.291 -2.0569 -0.3999 -0.4532
 9617TIP3    H250267   2.653   6.141  10.324  0.8257  0.8862  0.2197
 9618TIP3   OH250268   0.769   3.120   5.557 -0.0759 -0.2291  0.0475
 9618TIP3    H150269   0.717   3.051   5.597 -0.9560 -0.1337 -0.8965
 9618TIP3    H250270   0.860   3.090   5.566 -0.5001 -2.5351 -2.0797
 9619TIP3   OH250271   4.556   2.835   3.837  0.2735  0.4861 -0.1497
 9619TIP3    H150272   4.571   2.755   3.887  0.7334  1.1589  0.8076
 9619TIP3    H250273   4.639   2.851   3.792  0.3387  0.6860  0.0411
 9620TIP3   OH250274   3.141   2.926   6.261 -0.3139  0.4449  0.1504
 9620TIP3    H150275   3.114   3.011   6.226  0.4969  0.3111 -0.8639
 9620TIP3    H250276   3.236   2.926   6.251 -0.2376 -0.2881  0.8230
 9621TIP3   OH250277   1.033   6.393   0.889  0.4295  0.3347  0.3124
 9621TIP3    H150278   1.126   6.379   0.874  0.2096  0.7012 -1.7436
 9621TIP3    H250279   0.990   6.357   0.811 -1.0313  1.2927  0.6249
 9622TIP3   OH250280   6.061   6.485  15.184  0.8166  0.1778 -0.2210
 9622TIP3    H150281   5.979   6.490  15.235  0.7758  0.1459 -0.2832
 9622TIP3    H250282   6.073   6.573  15.150  1.3816  0.4607  0.6801
 9623TIP3   OH250283   3.579   5.924   2.965  0.1730  0.0311  0.6562
 9623TIP3    H150284   3.510   5.859   2.973 -0.3330  0.4175 -0.3141
 9623TIP3    H250285   3.645   5.883   2.909 -1.7556  1.5086 -3.0301
 9624TIP3   OH250286   2.296   0.647   5.629 -0.0258 -0.1765  0.5784
 9624TIP3    H150287   2.254   0.584   5.570  0.7673 -0.8842  0.7428
 9624TIP3    H250288   2.243   0.645   5.708  1.9328 -3.4279  2.0243
 9625TIP3   OH250289   1.168   5.897   2.502  0.0528  0.0932 -0.6749
 9625TIP3    H150290   1.230   5.883   2.431 -1.2956 -1.1521 -1.6568
 9625TIP3    H250291   1.164   5.992   2.513  0.8709  0.2604 -1.7075
 9626TIP3   OH250292   5.560   2.067   4.257  0.3864  0.7007 -0.5790
 9626TIP3    H150293   5.586   1.975   4.262  1.3796  0.7571 -3.2511
 9626TIP3    H250294   5.643   2.115   4.250 -0.1621  1.4915 -2.2899
 9627TIP3   OH250295   4.882   3.330  17.197  0.5780 -0.0271  0.4331
 9627TIP3    H150296   4.887   3.381  17.277  0.6135 -1.2464  1.2379
 9627TIP3    H250297   4.886   3.239  17.226 -0.1932 -0.5171 -0.8975
 9628TIP3   OH250298   4.779   2.140   5.946  0.2705  0.1583  0.1299
 9628TIP3    H150299   4.797   2.231   5.966 -0.6579  0.2031  0.8488
 9628TIP3    H250300   4.684   2.136   5.934  0.2813 -0.7360  0.2318
 9629TIP3   OH250301   6.257   1.008  16.425  0.4765  0.2869 -0.5744
 9629TIP3    H150302   6.284   0.939  16.486  1.6526 -0.0297 -1.4006
 9629TIP3    H250303   6.262   1.089  16.476 -0.0775 -0.1342  0.1662
 9630TIP3   OH250304   1.477   6.233   5.972 -0.3839  0.4240  0.1295
 9630TIP3    H150305   1.395   6.234   6.021 -2.6305 -1.6057 -3.1824
 9630TIP3    H250306   1.527   6.161   6.011 -0.2751  1.3744  1.8688
 9631TIP3   OH250307   5.087   1.339   1.036  0.3311  0.5553  0.4887
 9631TIP3    H150308   5.105   1.432   1.024 -1.3295  0.8385 -0.0372
 9631TIP3    H250309   5.157   1.294   0.988  0.4678  1.5499 -0.2687
 9632TIP3   OH250310   0.897   5.313   5.128  0.0514 -0.3091  0.5610
 9632TIP3    H150311   0.990   5.306   5.151  0.0820  0.1321  0.5743
 9632TIP3    H250312   0.885   5.249   5.057  1.0714  1.7488 -1.5984
 9633TIP3   OH250313   3.886   6.168   0.180 -0.2440 -0.4182 -0.5519
 9633TIP3    H150314   3.869   6.137   0.269 -0.5794  0.4775 -0.2950
 9633TIP3    H250315   3.980   6.150   0.167 -0.8629 -3.8154 -1.3604
 9634TIP3   OH250316   5.229   6.273   0.032 -0.8671  0.2740 -0.2642
 9634TIP3    H150317   5.180   6.276  -0.050 -2.9935  2.8259  0.9555
 9634TIP3    H250318   5.293   6.344   0.024 -1.5779  1.0181  0.5442
 9635TIP3   OH250319   3.248   0.778   3.953 -0.1426  0.1592 -0.7255
 9635TIP3    H150320   3.320   0.718   3.936 -0.4559  0.3306 -2.9745
 9635TIP3    H250321   3.290   0.856   3.991  0.4074 -0.9248  1.0225
 9636TIP3   OH250322   3.334   2.524  16.920 -0.1315  0.6953 -0.6503
 9636TIP3    H150323   3.287   2.565  16.848 -0.2192 -0.6686 -1.4107
 9636TIP3    H250324   3.424   2.514  16.889 -0.4711 -1.1499 -1.1674
 9637TIP3   OH250325   5.466   0.610   0.079 -0.8711  0.3710  0.4035
 9637TIP3    H150326   5.528   0.563   0.023 -2.6510 -1.7607  0.0787
 9637TIP3    H250327   5.520   0.675   0.124  1.1249  0.3194 -1.6870
 9638TIP3   OH250328   0.034   2.680  12.344 -0.2425 -0.2499  0.5729
 9638TIP3    H150329   0.034   2.586  12.364  1.2104 -0.3695  0.1377
 9638TIP3    H250330   0.059   2.685  12.252  1.8514  0.6229  1.1402
 9639TIP3   OH250331   0.695   4.829   3.582  0.0874 -0.0612 -0.0512
 9639TIP3    H150332   0.758   4.846   3.653 -0.3170 -0.6759  0.4605
 9639TIP3    H250333   0.616   4.799   3.627 -0.8354  1.3677 -0.6350
 9640TIP3   OH250334   1.892   1.090  12.941 -0.0299  0.4972  0.2276
 9640TIP3    H150335   1.967   1.135  12.903 -0.0129 -0.3649 -0.7782
 9640TIP3    H250336   1.817   1.144  12.918  0.2326  1.1959  0.9688
 9641TIP3   OH250337   3.550   5.825  15.354 -0.4139 -0.5316 -0.0825
 9641TIP3    H150338   3.603   5.786  15.284  0.3988  0.1865  0.1182
 9641TIP3    H250339   3.475   5.767  15.362  0.3300 -1.5658 -0.3945
 9642TIP3   OH250340   6.303   1.566   5.983 -0.1577 -0.1367  0.3199
 9642TIP3    H150341   6.347   1.607   6.058 -1.9128 -1.7184  2.3708
 9642TIP3    H250342   6.318   1.626   5.910  2.6735  0.8947  1.6139
 9643TIP3   OH250343   1.274   5.471  15.753 -0.2891 -0.4329 -0.3417
 9643TIP3    H150344   1.254   5.417  15.829 -0.6015  0.5117  0.2584
 9643TIP3    H250345   1.246   5.559  15.777  2.6942  0.6050 -0.1957
 9644TIP3   OH250346   2.771   4.131  13.125  0.3379 -0.0966  0.2987
 9644TIP3    H150347   2.734   4.149  13.038  1.9782  0.1900 -0.3823
 9644TIP3    H250348   2.801   4.040  13.120  0.8236  0.0524  0.4026
 9645TIP3   OH250349   1.722   3.818  11.436  0.3450 -0.8854  0.3297
 9645TIP3    H150350   1.645   3.829  11.492  0.8526  0.9322  0.7209
 9645TIP3    H250351   1.719   3.893  11.377  2.0154 -0.5919  0.5923
 9646TIP3   OH250352   0.620   4.105   5.284  0.0799 -0.4188  0.1228
 9646TIP3    H150353   0.567   4.030   5.310  1.6708 -1.6708 -0.1066
 9646TIP3    H250354   0.556   4.175   5.268 -1.3891 -1.4859  1.0508
 9647TIP3   OH250355   6.490   5.227  15.568 -0.0547 -0.4260 -0.5831
 9647TIP3    H150356   6.394   5.233  15.561 -0.2324 -0.5395  1.3124
 9647TIP3    H250357   6.522   5.300  15.514 -1.2870  0.7369  0.1712
 9648TIP3   OH250358   1.885   2.813  15.734  0.6410 -0.1781  0.2087
 9648TIP3    H150359   1.955   2.878  15.732 -0.3276  0.8998  0.7955
 9648TIP3    H250360   1.813   2.853  15.686 -0.3585 -0.3315  1.5207
 9649TIP3   OH250361   0.688   4.205  13.894 -0.4900 -0.3183 -0.5701
 9649TIP3    H150362   0.757   4.149  13.858  0.7309  1.0163 -0.4065
 9649TIP3    H250363   0.680   4.178  13.986 -1.2697 -1.4897 -0.9674
 9650TIP3   OH250364   5.598   0.756  11.336 -0.0909 -0.5628 -0.4118
 9650TIP3    H150365   5.662   0.699  11.292 -0.0249  1.5582 -3.3387
 9650TIP3    H250366   5.646   0.836  11.354 -1.0995 -0.1273  0.4028
 9651TIP3   OH250367   4.232   2.111   4.926  0.3998 -0.3899  0.2836
 9651TIP3    H150368   4.323   2.086   4.911  0.4571  0.1854 -0.3778
 9651TIP3    H250369   4.234   2.207   4.923 -0.1415 -0.3587  0.7923
 9652TIP3   OH250370   0.055   1.210  11.314  0.4812  0.4853 -0.7964
 9652TIP3    H150371   0.030   1.190  11.404  2.9637 -1.8200 -0.5112
 9652TIP3    H250372  -0.021   1.255  11.278 -1.5993 -0.8087  1.6584
 9653TIP3   OH250373   5.819   5.591  16.933 -0.4072  0.2168  0.3672
 9653TIP3    H150374   5.775   5.530  16.992 -0.5890  1.1654  1.2445
 9653TIP3    H250375   5.832   5.670  16.986 -0.6490  1.1322 -0.8985
 9654TIP3   OH250376   2.484   5.490  12.347 -0.1608  0.3115  0.3198
 9654TIP3    H150377   2.552   5.431  12.316 -3.0230 -2.2074 -1.7274
 9654TIP3    H250378   2.498   5.496  12.441  1.4632 -2.0517  0.2946
 9655TIP3   OH250379   3.812   4.645  11.463  0.5533  0.2612  0.1527
 9655TIP3    H150380   3.771   4.697  11.532  0.2260 -0.6622  0.6672
 9655TIP3    H250381   3.830   4.708  11.393 -0.3702  0.9626  0.5278
 9656TIP3   OH250382   1.213   5.136  15.368 -0.1948 -0.2426 -0.4718
 9656TIP3    H150383   1.287   5.160  15.311 -0.5049  0.9390 -0.3935
 9656TIP3    H250384   1.253   5.121  15.454  0.0314 -0.1964 -0.5671
 9657TIP3   OH250385   3.629   4.337  16.383  0.1734 -0.1609 -0.4603
 9657TIP3    H150386   3.549   4.296  16.350 -1.2704  0.7244  1.7188
 9657TIP3    H250387   3.633   4.421  16.336  0.5395 -0.7298 -1.4765
 9658TIP3   OH250388   2.834   0.416   2.262  0.0693 -0.1047  0.4440
 9658TIP3    H150389   2.842   0.400   2.168  2.2075  0.3494  0.5069
 9658TIP3    H250390   2.802   0.333   2.299  0.1447 -0.5836 -0.5550
 9659TIP3   OH250391   1.943   3.652   0.137 -0.0056 -0.3412 -0.6131
 9659TIP3    H150392   1.983   3.721   0.084 -1.4478 -0.0573 -1.3816
 9659TIP3    H250393   1.952   3.682   0.227 -1.6281  1.4764 -0.9913
 9660TIP3   OH250394   0.348   0.774  14.998 -0.1420 -0.4700 -0.4053
 9660TIP3    H150395   0.285   0.702  15.000 -1.8735  0.9402 -1.6110
 9660TIP3    H250396   0.297   0.851  15.025  1.2787  0.5868 -0.6333
 9661TIP3   OH250397   4.104   3.586   1.776 -0.2735 -0.7970  0.1570
 9661TIP3    H150398   4.048   3.658   1.805 -0.9717 -1.4151  0.3796
 9661TIP3    H250399   4.110   3.529   1.853  0.7043 -0.7133  0.1456
 9662TIP3   OH250400   2.709   1.624  17.267 -1.1177 -0.4102  0.0361
 9662TIP3    H150401   2.660   1.617  17.185 -1.1439 -0.4462  0.0534
 9662TIP3    H250402   2.801   1.628  17.241 -1.1052 -0.7805  0.0191
 9663TIP3   OH250403   6.344   5.443   1.840 -0.2210 -0.0097 -0.0364
 9663TIP3    H150404   6.264   5.399   1.810  0.9311 -1.5137 -1.0907
 9663TIP3    H250405   6.392   5.374   1.887  1.2916  0.3045 -1.0661
 9664TIP3   OH250406   4.030   2.919  16.475  0.9488 -0.3341  0.3745
 9664TIP3    H150407   4.058   2.833  16.444 -0.4549 -0.8317  0.4464
 9664TIP3    H250408   3.997   2.904  16.563 -1.3798 -0.1758 -0.4049
 9665TIP3   OH250409   2.419   3.667   2.507 -0.4761  0.3367  0.3760
 9665TIP3    H150410   2.467   3.681   2.589  0.2302 -0.3091  0.0876
 9665TIP3    H250411   2.350   3.605   2.530  0.3880 -0.6927  0.2662
 9666TIP3   OH250412   4.990   4.164   2.813 -0.7747  0.2755  0.4577
 9666TIP3    H150413   5.036   4.221   2.875 -2.1345  1.3296  0.5545
 9666TIP3    H250414   5.042   4.168   2.733  0.8992 -0.9461  1.4237
 9667TIP3   OH250415   1.035   1.953  13.260  0.0868 -0.7558 -0.4829
 9667TIP3    H150416   0.979   1.884  13.294 -0.9378 -0.1880 -0.9931
 9667TIP3    H250417   1.124   1.927  13.286 -0.6882  0.9552  5.1542
 9668TIP3   OH250418   4.538   5.593   1.151  0.3984 -0.1844 -0.0552
 9668TIP3    H150419   4.586   5.651   1.092 -0.9011  0.5012 -0.4768
 9668TIP3    H250420   4.447   5.597   1.121 -0.2315 -0.1361  1.7274
 9669TIP3   OH250421   2.879   5.929   3.410 -0.4997 -0.0259  0.4581
 9669TIP3    H150422   2.934   6.000   3.443 -0.7412  0.1313  0.5278
 9669TIP3    H250423   2.889   5.932   3.315  0.5286 -0.7500  0.5329
 9670TIP3   OH250424   0.098   3.257  11.431  0.2376 -0.4119  0.4227
 9670TIP3    H150425   0.036   3.312  11.383 -0.5620  1.1534  2.9903
 9670TIP3    H250426   0.176   3.254  11.376 -0.1313  2.3677 -0.4217
 9671TIP3   OH250427   0.673   1.666   1.001 -0.3302  0.4362  0.1804
 9671TIP3    H150428   0.726   1.599   0.957 -1.4156 -1.5495  1.7377
 9671TIP3    H250429   0.683   1.648   1.094 -3.9760 -0.3510  0.5863
 9672TIP3   OH250430   1.281   4.167   0.191 -0.4663  0.4776 -0.3908
 9672TIP3    H150431   1.368   4.197   0.216 -0.4541  0.4008 -0.3417
 9672TIP3    H250432   1.267   4.088   0.242  0.3370 -0.7836 -2.0172
 9673TIP3   OH250433   5.663   2.311  16.822  0.0094 -0.5798 -0.2312
 9673TIP3    H150434   5.606   2.289  16.749 -0.1199 -0.1014 -0.2833
 9673TIP3    H250435   5.609   2.366  16.879 -0.2182 -1.8161  0.7674
 9674TIP3   OH250436   6.618   4.195   5.548 -0.3677  0.4285 -0.0489
 9674TIP3    H150437   6.683   4.213   5.480  0.9628 -0.3452  0.9544
 9674TIP3    H250438   6.543   4.158   5.501  1.0779 -1.4995 -1.0035
 9675TIP3   OH250439   4.761   4.160   4.224  0.3551 -0.4073  0.2466
 9675TIP3    H150440   4.750   4.065   4.219  0.0920 -0.4238  0.9741
 9675TIP3    H250441   4.840   4.178   4.173 -0.7542 -0.7680 -1.6771
 9676TIP3   OH250442   6.415   1.979   3.720 -0.1516 -0.3388 -0.4800
 9676TIP3    H150443   6.473   2.054   3.734  3.6432 -3.2753  1.3959
 9676TIP3    H250444   6.471   1.913   3.678 -2.5760 -2.9106  0.0485
 9677TIP3   OH250445   5.518   1.396  11.557  0.2404 -0.6734  0.1138
 9677TIP3    H150446   5.517   1.305  11.585  0.7449 -0.6675  0.1574
 9677TIP3    H250447   5.584   1.438  11.612 -0.4614 -0.1309  0.5573
 9678TIP3   OH250448   1.747   0.982   1.365 -0.3314 -0.3956 -0.6712
 9678TIP3    H150449   1.778   0.915   1.305 -0.3922  0.6594 -1.9204
 9678TIP3    H250450   1.718   1.054   1.309  1.6686  1.5655  0.6353
 9679TIP3   OH250451   1.730   4.165   3.887 -0.0461 -0.3685 -0.5209
 9679TIP3    H150452   1.819   4.198   3.878 -1.0681  3.4618  1.4126
 9679TIP3    H250453   1.688   4.187   3.805 -0.0202  0.8100 -0.2269
 9680TIP3   OH250454   0.938   4.478   0.287 -0.2125  0.3160  0.0572
 9680TIP3    H150455   0.961   4.482   0.194 -0.7969  0.0589 -0.1096
 9680TIP3    H250456   0.845   4.503   0.289 -0.3658 -0.2589  0.4980
 9681TIP3   OH250457   1.520   2.860  16.719 -0.0652  0.1971  0.5271
 9681TIP3    H150458   1.559   2.853  16.806  0.1959  0.1721  0.4098
 9681TIP3    H250459   1.513   2.954  16.703 -1.8235  0.2502  1.3303
 9682TIP3   OH250460   6.544   4.917  16.280  0.2505  0.1008  0.5709
 9682TIP3    H150461   6.477   4.931  16.213  1.3423  0.8709 -0.3979
 9682TIP3    H250462   6.507   4.850  16.338 -1.1330  0.1499 -0.2183
 9683TIP3   OH250463   1.414   6.610   6.194  0.6672  0.0670 -0.0797
 9683TIP3    H150464   1.382   6.524   6.224  1.3267 -1.0924 -2.4840
 9683TIP3    H250465   1.509   6.606   6.209  0.4917  1.2097  1.6199
 9684TIP3   OH250466   0.444   1.476  13.619 -0.1590 -0.3384  0.0705
 9684TIP3    H150467   0.537   1.463  13.599 -0.3629  1.2403 -2.2869
 9684TIP3    H250468   0.443   1.524  13.702  1.1272 -0.3008  0.0787
 9685TIP3   OH250469   2.786   5.226  14.975 -0.1246  0.1625 -0.0539
 9685TIP3    H150470   2.822   5.314  14.988 -1.0152  0.7107 -1.1026
 9685TIP3    H250471   2.792   5.184  15.061  1.5303  0.7734  0.1705
 9686TIP3   OH250472   0.092   4.441  15.735  0.6574  0.3248 -0.2369
 9686TIP3    H150473   0.087   4.504  15.807  0.3642 -0.0325  0.0595
 9686TIP3    H250474   0.001   4.415  15.719  0.7937 -0.1870 -0.2054
 9687TIP3   OH250475   0.213   4.231  14.005 -0.6265  0.0199 -0.4616
 9687TIP3    H150476   0.272   4.301  13.978 -0.2498  0.3048  1.0257
 9687TIP3    H250477   0.130   4.274  14.021 -0.0011  0.4759  1.9873
 9688TIP3   OH250478   3.843   3.696  11.969 -0.0366  0.2603 -0.2351
 9688TIP3    H150479   3.797   3.619  11.936  1.3977 -0.8758  0.3019
 9688TIP3    H250480   3.790   3.726  12.042 -0.7618 -0.0454 -0.6254
 9689TIP3   OH250481   6.471   3.462   3.692  0.7827  0.2237  0.0707
 9689TIP3    H150482   6.462   3.536   3.752  1.2609 -0.0481  0.4811
 9689TIP3    H250483   6.454   3.500   3.605 -1.0919  0.3793  0.4539
 9690TIP3   OH250484   2.301   1.069   3.387 -0.3630  0.4205 -0.3297
 9690TIP3    H150485   2.258   1.045   3.469 -1.5786 -0.1497 -1.1016
 9690TIP3    H250486   2.394   1.064   3.406 -0.6280 -0.0657  0.9099
 9691TIP3   OH250487   1.211   3.306  15.289  0.0128 -0.1240 -0.1453
 9691TIP3    H150488   1.118   3.306  15.313  0.2095  1.6437  0.7634
 9691TIP3    H250489   1.211   3.334  15.197 -0.3428  0.4188  0.0109
 9692TIP3   OH250490   0.726   1.660  16.655 -0.2547  0.1313 -0.1336
 9692TIP3    H150491   0.740   1.718  16.729 -0.6134  0.9918 -0.7261
 9692TIP3    H250492   0.670   1.590  16.689 -1.1508  0.9918  0.1975
 9693TIP3   OH250493   4.330   0.905  16.753  0.2940 -0.6096 -0.1277
 9693TIP3    H150494   4.241   0.941  16.746  0.7274  0.2446 -1.7924
 9693TIP3    H250495   4.323   0.837  16.820 -0.9409  1.4077  1.9468
 9694TIP3   OH250496   3.755   6.220  13.399 -0.3600  0.2161  0.2324
 9694TIP3    H150497   3.725   6.274  13.472  1.2842  0.4570  0.7673
 9694TIP3    H250498   3.706   6.138  13.408  0.6118 -0.1932  2.2975
 9695TIP3   OH250499   1.080   0.070   4.118  0.1103 -0.1173  0.5900
 9695TIP3    H150500   1.137   0.145   4.103  0.7052 -0.8086 -0.8066
 9695TIP3    H250501   1.135  -0.006   4.101 -0.3070 -0.9345  2.5747
 9696TIP3   OH250502   2.975   1.025  12.400 -0.5086 -0.0757 -0.5782
 9696TIP3    H150503   3.055   1.076  12.388  0.4588 -1.8499 -2.1555
 9696TIP3    H250504   2.918   1.054  12.329 -0.3577 -0.4571 -0.8553
 9697TIP3   OH250505   2.781   1.185   1.517  0.9618  0.9547  0.3025
 9697TIP3    H150506   2.832   1.248   1.568  0.2285  2.5096 -0.8069
 9697TIP3    H250507   2.816   1.192   1.428  2.0259 -1.5048  0.4555
 9698TIP3   OH250508   5.513   5.197   6.081  0.6423  0.3881  0.0180
 9698TIP3    H150509   5.606   5.177   6.092  0.0264 -1.9648  2.0121
 9698TIP3    H250510   5.491   5.250   6.157  0.0939 -0.3179  0.3690
 9699TIP3   OH250511   4.202   4.638   0.975  0.1021  0.1402  0.3978
 9699TIP3    H150512   4.270   4.570   0.976 -0.6375 -0.6144  1.2223
 9699TIP3    H250513   4.187   4.656   0.883 -0.5790 -1.7372  0.1108
 9700TIP3   OH250514   5.413   0.424  16.985 -0.1693 -0.1455 -0.0644
 9700TIP3    H150515   5.434   0.503  17.034 -0.1401 -0.4688  0.4514
 9700TIP3    H250516   5.493   0.372  16.986  0.2599  0.4238 -1.6088
 9701TIP3   OH250517   3.115   4.276  14.984  0.0664 -1.3305  0.3238
 9701TIP3    H150518   3.173   4.321  15.046 -0.7291  0.9051 -0.4645
 9701TIP3    H250519   3.157   4.288  14.899  0.3150 -2.9949  0.1593
 9702TIP3   OH250520   2.341   4.152  16.179  0.1484 -0.0680  0.4713
 9702TIP3    H150521   2.368   4.243  16.185  0.4225  0.1030 -1.9819
 9702TIP3    H250522   2.250   4.151  16.209 -0.1783  1.2289 -0.3778
 9703TIP3   OH250523   3.266   4.104   0.256 -0.0222  0.2487  0.4971
 9703TIP3    H150524   3.323   4.162   0.205  1.4062 -2.3513 -1.0652
 9703TIP3    H250525   3.310   4.096   0.341  2.4394 -2.1446 -0.8646
 9704TIP3   OH250526   2.501   5.623   6.084 -0.6436 -0.1280  0.2429
 9704TIP3    H150527   2.508   5.580   6.170 -0.6825 -0.1037  0.2584
 9704TIP3    H250528   2.409   5.612   6.059 -1.4151  2.4287  1.5526
 9705TIP3   OH250529   4.789   1.552   4.689  0.7618 -0.2627  1.5768
 9705TIP3    H150530   4.862   1.604   4.722  1.8299 -0.2913 -0.5248
 9705TIP3    H250531   4.830   1.489   4.629 -1.0648  1.0349 -1.2555
 9706TIP3   OH250532   1.679   5.685   5.774 -0.3002  0.0959  0.5926
 9706TIP3    H150533   1.770   5.670   5.800 -0.5480  1.5367  2.5668
 9706TIP3    H250534   1.679   5.675   5.679  1.8461 -0.2562  0.5754
 9707TIP3   OH250535   4.253   1.823   5.847  0.1009  0.2198 -0.1668
 9707TIP3    H150536   4.331   1.847   5.796  0.4158  2.3540  1.2085
 9707TIP3    H250537   4.185   1.810   5.781  1.5014 -1.4552 -1.3890
 9708TIP3   OH250538   0.738   0.475  15.373 -0.1011  0.5872  0.0443
 9708TIP3    H150539   0.807   0.438  15.428 -0.5995  0.2381  0.4418
 9708TIP3    H250540   0.658   0.431  15.402 -0.2351 -0.3991 -1.6694
 9709TIP3   OH250541   2.364   4.993  16.860  0.2236 -0.7700 -0.0491
 9709TIP3    H150542   2.386   4.917  16.913 -1.5174 -0.1439  1.6826
 9709TIP3    H250543   2.437   5.054  16.874  0.1652 -0.9322  0.9952
 9710TIP3   OH250544   3.370   4.869   5.573 -0.1959 -0.7175 -0.3731
 9710TIP3    H150545   3.277   4.889   5.585  0.1505  1.5153 -0.9603
 9710TIP3    H250546   3.409   4.952   5.547  2.0321 -1.5479  0.1140
 9711TIP3   OH250547   0.630   2.982   4.935 -0.1243 -0.5222  0.1566
 9711TIP3    H150548   0.669   3.067   4.913 -0.1087 -0.4938  0.2921
 9711TIP3    H250549   0.675   2.919   4.879  0.0530 -0.4769  0.2489
 9712TIP3   OH250550   1.565   3.127  16.752  0.1235  0.2584 -0.2553
 9712TIP3    H150551   1.606   3.177  16.681  0.6939  1.2829  0.7529
 9712TIP3    H250552   1.577   3.182  16.829 -1.9007 -0.1082  0.3547
 9713TIP3   OH250553   6.075   4.840  14.071  0.3720  0.0963  0.4805
 9713TIP3    H150554   6.148   4.812  14.126  0.1048  2.7896  2.4154
 9713TIP3    H250555   6.116   4.899  14.007  0.0325  0.9861  1.0695
 9714TIP3   OH250556   0.333   6.592  15.987  0.5201  0.5061 -0.0988
 9714TIP3    H150557   0.363   6.564  15.901  0.9702  1.7287 -0.3634
 9714TIP3    H250558   0.386   6.670  16.007  0.9979 -0.2157  1.6452
 9715TIP3   OH250559   1.262   0.552  10.497  0.0838 -0.6662 -0.2941
 9715TIP3    H150560   1.172   0.573  10.523 -0.4259 -1.5568 -1.2519
 9715TIP3    H250561   1.302   0.516  10.576  0.2016  1.4589  0.6622
 9716TIP3   OH250562   0.713   3.182  15.244  0.0850 -0.3227  0.2715
 9716TIP3    H150563   0.651   3.255  15.238 -0.8047 -1.0992 -0.2937
 9716TIP3    H250564   0.792   3.221  15.280 -1.0537  0.4993  2.0054
 9717TIP3   OH250565   3.481   4.039  14.300  0.2358  0.0525 -0.2161
 9717TIP3    H150566   3.526   4.048  14.384 -2.7954  0.6578  1.4812
 9717TIP3    H250567   3.389   4.022  14.323 -0.6295 -0.3709 -3.4256
 9718TIP3   OH250568   1.826   0.203  11.321  0.0866 -0.1703 -0.0095
 9718TIP3    H150569   1.777   0.177  11.242  0.5405  0.5272 -0.5370
 9718TIP3    H250570   1.916   0.214  11.290  0.2664  0.1264  0.6138
 9719TIP3   OH250571   2.314   5.370  13.781 -0.1966 -0.9837  0.0312
 9719TIP3    H150572   2.379   5.361  13.712  0.8384  0.5459  0.7504
 9719TIP3    H250573   2.234   5.334  13.744  0.5321 -0.9168 -1.6659
 9720TIP3   OH250574   0.927   0.184  15.301 -0.3515  0.6152  0.0302
 9720TIP3    H150575   0.839   0.151  15.322  0.2528 -1.1495 -0.1187
 9720TIP3    H250576   0.924   0.204  15.208 -0.9477  1.8173  0.2757
 9721TIP3   OH250577   6.293   0.890  14.382 -0.2299 -0.0138  0.1285
 9721TIP3    H150578   6.284   0.916  14.290  0.9305 -0.6168 -0.1768
 9721TIP3    H250579   6.345   0.810  14.379 -0.1568 -0.0277  1.3175
 9722TIP3   OH250580   4.817   1.154   1.456  0.0203  0.0775 -0.1136
 9722TIP3    H150581   4.740   1.205   1.429  0.2161  0.2210 -0.3955
 9722TIP3    H250582   4.871   1.147   1.378  0.7360  0.7652  0.3062
 9723TIP3   OH250583   3.045   2.912  12.162  0.2856  0.0610 -0.7264
 9723TIP3    H150584   3.125   2.959  12.185  1.6984 -1.9538 -1.2882
 9723TIP3    H250585   3.070   2.856  12.089 -2.0541  0.4865 -1.9634
 9724TIP3   OH250586   2.178   4.076   1.772  0.1022  0.3838 -0.4388
 9724TIP3    H150587   2.228   4.000   1.802 -2.6032 -0.9738  1.0519
 9724TIP3    H250588   2.087   4.045   1.769 -0.7617  2.7819 -2.6238
 9725TIP3   OH250589   2.559   1.302   0.697 -0.5478 -0.4414  0.2618
 9725TIP3    H150590   2.502   1.352   0.638  0.6958 -1.1929 -1.6595
 9725TIP3    H250591   2.539   1.211   0.679  0.5750 -0.7003  0.2614
 9726TIP3   OH250592   2.187   6.171   2.449  0.6599  0.2801  0.3932
 9726TIP3    H150593   2.172   6.216   2.366  0.0523 -1.5218 -0.5361
 9726TIP3    H250594   2.117   6.201   2.506 -0.0229  0.1482 -0.3650
 9727TIP3   OH250595   0.800   4.947   0.557  0.0671 -0.8008  0.2961
 9727TIP3    H150596   0.706   4.956   0.541  0.0731 -0.8626  0.2225
 9727TIP3    H250597   0.838   5.029   0.525  0.0198 -0.7035  0.4868
 9728TIP3   OH250598   0.739   4.250   4.424  0.1358 -0.3830  0.5315
 9728TIP3    H150599   0.832   4.231   4.411  0.2297  0.4524 -0.1242
 9728TIP3    H250600   0.713   4.297   4.345 -0.7871 -0.3883  0.8188
 9729TIP3   OH250601   2.873   0.115   2.967 -0.4706 -0.1796 -0.3351
 9729TIP3    H150602   2.964   0.136   2.947 -0.7866  1.8454  0.1703
 9729TIP3    H250603   2.857   0.155   3.053 -2.7026  2.4616 -1.8133
 9730TIP3   OH250604   2.741   6.159  11.369  0.7414 -0.2060 -0.1958
 9730TIP3    H150605   2.756   6.192  11.457  0.0240 -0.5007  0.0476
 9730TIP3    H250606   2.819   6.185  11.320  1.3474 -0.4157  0.6279
 9731TIP3   OH250607   4.163   4.110  13.742 -0.6005  0.1531 -0.5605
 9731TIP3    H150608   4.124   4.115  13.830  0.7566 -0.2407  0.0925
 9731TIP3    H250609   4.116   4.039  13.699 -1.9127  0.9569 -0.4937
 9732TIP3   OH250610   1.373   2.506  13.674 -0.3523  0.1722  0.0326
 9732TIP3    H150611   1.426   2.532  13.599  1.3699  0.1146  1.1759
 9732TIP3    H250612   1.374   2.410  13.673 -0.9202  0.1621 -0.2454
 9733TIP3   OH250613   6.361   2.991  16.224  0.2515 -0.0680 -0.0903
 9733TIP3    H150614   6.424   3.042  16.276 -1.3136  1.8187  0.0880
 9733TIP3    H250615   6.389   2.900  16.235  1.7611  0.5323  1.5846
 9734TIP3   OH250616   1.155   1.463  14.433 -0.4843 -0.3498  0.5528
 9734TIP3    H150617   1.166   1.441  14.341  1.7091  2.3567  0.0286
 9734TIP3    H250618   1.170   1.381  14.480  1.6438 -1.1976 -1.4126
 9735TIP3   OH250619   1.879   1.408  14.076  0.7547  0.8965  0.3530
 9735TIP3    H150620   1.893   1.319  14.108  1.5617  1.0359  0.3984
 9735TIP3    H250621   1.898   1.465  14.151  0.8233  1.1349  0.1593
 9736TIP3   OH250622   3.719   3.051   3.759 -0.0381 -0.2413  0.0661
 9736TIP3    H150623   3.726   2.975   3.817 -2.0630 -0.9709 -0.5828
 9736TIP3    H250624   3.660   3.023   3.689 -0.7592  1.8896 -0.2565
 9737TIP3   OH250625   4.956   3.674   0.207  0.4357 -0.7113 -0.3966
 9737TIP3    H150626   4.995   3.738   0.267 -1.5981  1.6150 -1.3905
 9737TIP3    H250627   4.878   3.642   0.253 -0.4243  0.1187 -1.2473
 9738TIP3   OH250628   0.630   2.561  16.610  0.0359  0.3604  0.5337
 9738TIP3    H150629   0.542   2.532  16.583 -0.4403 -0.2061  2.4952
 9738TIP3    H250630   0.618   2.653  16.634 -0.6092 -0.2631  2.8840
 9739TIP3   OH250631   1.936   1.802  17.303  0.1191  0.0145 -0.3570
 9739TIP3    H150632   1.904   1.892  17.296  0.5497  0.0676 -2.5898
 9739TIP3    H250633   1.857   1.749  17.309 -0.2983  0.4095 -1.7925
 9740TIP3   OH250634   6.336   1.016  11.770  0.1491 -0.1862 -0.4373
 9740TIP3    H150635   6.274   0.974  11.711  0.2973  0.4660 -1.0788
 9740TIP3    H250636   6.310   0.987  11.857 -0.4299 -0.7132 -0.7777
 9741TIP3   OH250637   2.277   6.304   2.226 -0.2099 -0.2167  0.0646
 9741TIP3    H150638   2.242   6.393   2.239  1.5024  0.5065 -0.0284
 9741TIP3    H250639   2.224   6.268   2.155 -0.7612  0.8242 -0.0747
 9742TIP3   OH250640   4.956   1.553   5.310 -0.1922  0.3407  0.1557
 9742TIP3    H150641   4.865   1.574   5.328  0.2139  2.4237 -0.0066
 9742TIP3    H250642   4.994   1.535   5.396 -0.6480 -0.1440  0.2600
 9743TIP3   OH250643   5.981   5.949   1.276 -0.4746 -0.7666  0.3081
 9743TIP3    H150644   5.912   5.892   1.240 -0.4762  1.0951 -2.9888
 9743TIP3    H250645   6.063   5.911   1.245 -0.3333 -0.2538  0.0434
 9744TIP3   OH250646   1.869   0.407   3.538 -0.1141 -0.0862  0.2475
 9744TIP3    H150647   1.864   0.376   3.448  0.2324  0.2497  0.1072
 9744TIP3    H250648   1.937   0.475   3.536 -0.0477 -0.1324  0.7753
 9745TIP3   OH250649   0.748   2.711   1.938 -0.8027 -0.2807  0.0976
 9745TIP3    H150650   0.760   2.796   1.897  1.3688 -0.9116 -0.6773
 9745TIP3    H250651   0.768   2.726   2.031  2.6780 -0.4696 -0.5078
 9746TIP3   OH250652   4.150   6.012  15.091  0.3310 -0.0619 -0.4313
 9746TIP3    H150653   4.183   6.073  15.157 -1.0534 -1.3051  1.5278
 9746TIP3    H250654   4.075   6.058  15.052  0.8405  0.4801 -0.7871
 9747TIP3   OH250655   5.951   4.001   4.602  0.3312 -0.1990  0.4904
 9747TIP3    H150656   5.898   4.079   4.584  0.0534 -0.3187  0.7799
 9747TIP3    H250657   6.018   4.002   4.534  0.2975  0.2630  0.4563
 9748TIP3   OH250658   4.565   3.904   5.539  0.4799  0.5980 -0.2373
 9748TIP3    H150659   4.551   3.846   5.614 -0.3228  0.0986 -0.7513
 9748TIP3    H250660   4.536   3.852   5.464  0.4363  1.4091 -0.7876
 9749TIP3   OH250661   4.464   5.471  10.791 -0.3078  0.3236  0.0729
 9749TIP3    H150662   4.388   5.501  10.841 -1.2240 -2.2647  0.3371
 9749TIP3    H250663   4.540   5.502  10.841 -1.1995  0.2624  1.5049
 9750TIP3   OH250664   4.929   6.282   2.753 -0.2131 -0.2770  0.0579
 9750TIP3    H150665   4.956   6.247   2.669  2.4455 -0.2142  0.8089
 9750TIP3    H250666   4.841   6.318   2.737 -1.4001 -3.5971 -1.6886
 9751TIP3   OH250667   2.202   5.546   2.069 -0.2851 -0.1973 -0.2196
 9751TIP3    H150668   2.109   5.523   2.071 -0.5484  0.7729 -0.5813
 9751TIP3    H250669   2.206   5.634   2.106  0.5282 -0.3384  0.0415
 9752TIP3   OH250670   2.163   3.104  13.376  0.2203 -0.4332  0.8011
 9752TIP3    H150671   2.132   3.178  13.323  1.1471 -0.7404 -0.2106
 9752TIP3    H250672   2.088   3.045  13.381  0.3293 -0.7873 -0.9146
 9753TIP3   OH250673   0.748   1.293   6.814 -0.0259  0.2727  0.1605
 9753TIP3    H150674   0.751   1.383   6.782  0.5214  1.0542  2.2436
 9753TIP3    H250675   0.840   1.269   6.826 -0.1198 -0.9123 -1.1676
 9754TIP3   OH250676   3.318   2.393   6.070 -0.3271  0.0398 -0.1036
 9754TIP3    H150677   3.389   2.425   6.125 -1.0663  1.1514  0.2587
 9754TIP3    H250678   3.304   2.302   6.097 -0.6886  0.5639  1.5985
 9755TIP3   OH250679   5.796   1.921   4.388 -0.0662 -1.1984  0.2613
 9755TIP3    H150680   5.725   1.856   4.387  1.1487 -2.5697  0.4975
 9755TIP3    H250681   5.870   1.877   4.348  0.4474  0.5124 -0.7948
 9756TIP3   OH250682   5.522   5.498  15.127  0.3761 -0.3272  0.2926
 9756TIP3    H150683   5.495   5.419  15.173 -0.6922 -0.1480 -0.0077
 9756TIP3    H250684   5.618   5.496  15.129  0.4490 -2.6155 -1.3711
 9757TIP3   OH250685   6.708   3.886  12.184  0.0380  0.6565 -0.7487
 9757TIP3    H150686   6.764   3.865  12.259  0.5677  1.9542 -0.7549
 9757TIP3    H250687   6.757   3.953  12.136 -0.1880 -0.2879 -2.3952
 9758TIP3   OH250688   6.083   6.511  15.738 -0.1040  0.4895 -0.1004
 9758TIP3    H150689   6.165   6.559  15.751 -0.0428  0.3874 -0.1017
 9758TIP3    H250690   6.036   6.560  15.671 -1.1234  1.9297  1.5778
 9759TIP3   OH250691   5.719   1.346   1.582  0.8040  0.4749 -0.4763
 9759TIP3    H150692   5.695   1.330   1.673 -0.6007  0.3616 -0.8310
 9759TIP3    H250693   5.790   1.285   1.564  0.2660 -0.3717  0.2010
 9760TIP3   OH250694   6.687   3.028   2.232  0.3376 -0.2320  0.0489
 9760TIP3    H150695   6.708   3.039   2.139 -0.0590  1.4829  0.1367
 9760TIP3    H250696   6.770   3.007   2.274  1.0481  1.7374 -0.3007
 9761TIP3   OH250697   6.258   4.880  14.544 -0.4646  0.3208 -0.4325
 9761TIP3    H150698   6.183   4.824  14.563  0.1489 -0.2552  0.3659
 9761TIP3    H250699   6.225   4.944  14.481 -1.3352 -0.5997 -0.9414
 9762TIP3   OH250700   4.364   1.358  16.558  0.0004  0.1894 -0.1343
 9762TIP3    H150701   4.413   1.422  16.506 -1.4866 -0.3470 -2.3186
 9762TIP3    H250702   4.286   1.405  16.588 -0.3682 -0.1875 -0.4912
 9763TIP3   OH250703   5.940   5.190   3.758  0.1252  0.0828 -0.4615
 9763TIP3    H150704   5.847   5.168   3.755 -0.2559  1.4118  0.8039
 9763TIP3    H250705   5.978   5.128   3.820 -0.2749  0.7024  0.4158
 9764TIP3   OH250706   1.858   2.037  12.323 -0.4007  0.1779  0.1404
 9764TIP3    H150707   1.878   2.093  12.247 -3.2300 -0.2108 -1.0178
 9764TIP3    H250708   1.895   2.084  12.398 -0.4742  2.3213 -1.0800
 9765TIP3   OH250709   1.780   5.815  13.215  0.0495  0.4282 -0.2597
 9765TIP3    H150710   1.806   5.845  13.128 -0.2139  0.2687 -0.3960
 9765TIP3    H250711   1.830   5.735  13.229  0.7879  0.9445  0.1238
 9766TIP3   OH250712   2.615   5.709   0.714  0.6601 -0.0464 -0.4245
 9766TIP3    H150713   2.699   5.684   0.751  0.7067  1.5767  0.6488
 9766TIP3    H250714   2.636   5.764   0.638  0.5646 -0.0773 -0.4746
 9767TIP3   OH250715   1.822   2.395  12.471 -0.0775 -0.3262 -0.2008
 9767TIP3    H150716   1.808   2.467  12.410  1.6824  0.5343  0.3354
 9767TIP3    H250717   1.751   2.333  12.453  0.0556  0.1605 -2.6941
 9768TIP3   OH250718   2.111   1.954   3.717 -0.3813  0.0349  0.1926
 9768TIP3    H150719   2.104   2.040   3.759  1.2564  0.1280  0.3475
 9768TIP3    H250720   2.202   1.927   3.733 -1.0689 -2.1023  0.8507
 9769TIP3   OH250721   3.890   3.582   0.756  0.3918 -0.2392  0.2583
 9769TIP3    H150722   3.834   3.616   0.826 -0.4343  1.3793 -1.1096
 9769TIP3    H250723   3.829   3.552   0.689  1.1659 -1.8523  0.2261
 9770TIP3   OH250724   6.152   5.106  13.664  0.2671  0.2809 -0.0713
 9770TIP3    H150725   6.103   5.160  13.726  1.7324  0.7288  0.7430
 9770TIP3    H250726   6.212   5.167  13.621 -1.8675  0.3672 -3.3277
 9771TIP3   OH250727   3.826   2.797  12.103 -0.0323 -0.1519 -0.2773
 9771TIP3    H150728   3.812   2.725  12.165 -0.3950  0.5973  0.5494
 9771TIP3    H250729   3.899   2.769  12.049 -1.4103 -2.0111 -1.3222
 9772TIP3   OH250730   3.425   1.570  13.084 -0.3131  0.2947 -0.3547
 9772TIP3    H150731   3.433   1.571  12.989  1.5131  0.3650 -0.2456
 9772TIP3    H250732   3.373   1.647  13.105 -2.0380 -0.5584 -1.3562
 9773TIP3   OH250733   5.565   3.190  14.668  0.2291  0.2200 -0.4751
 9773TIP3    H150734   5.588   3.272  14.624 -0.1879 -0.2320 -1.5689
 9773TIP3    H250735   5.564   3.125  14.598 -0.9617 -0.4294  0.1250
 9774TIP3   OH250736   4.776   2.327   2.367 -0.5400  0.1760  0.5051
 9774TIP3    H150737   4.771   2.335   2.462 -2.9114 -1.1007  0.5402
 9774TIP3    H250738   4.688   2.347   2.336  0.0827  0.1513 -1.4073
 9775TIP3   OH250739   5.558   1.506   2.484 -0.7261  0.0105 -0.0752
 9775TIP3    H150740   5.640   1.556   2.481 -1.1739  0.7297 -1.1263
 9775TIP3    H250741   5.559   1.455   2.403 -0.7102 -0.9959  0.5535
 9776TIP3   OH250742   1.878   6.407  15.105  0.1817  0.1378 -0.3205
 9776TIP3    H150743   1.911   6.342  15.043  0.1107  0.4730 -0.7138
 9776TIP3    H250744   1.900   6.371  15.191  1.3030  0.1957 -0.5630
 9777TIP3   OH250745   3.734   5.404   6.046 -0.6857 -0.2610 -0.5007
 9777TIP3    H150746   3.798   5.344   6.086  0.0316  0.6070 -0.3024
 9777TIP3    H250747   3.773   5.491   6.058 -1.3667  0.1841 -1.4109
 9778TIP3   OH250748   4.974   3.741   0.930 -0.1562 -0.5398  0.3048
 9778TIP3    H150749   5.006   3.723   0.841 -0.1016  0.5643  0.0892
 9778TIP3    H250750   4.943   3.656   0.962 -0.4133 -0.9036 -0.8636
 9779TIP3   OH250751   2.757   2.457  15.017 -0.4374 -0.1072  0.3253
 9779TIP3    H150752   2.852   2.456  15.029 -0.3153  2.4206  0.1425
 9779TIP3    H250753   2.726   2.523  15.080 -1.9551 -0.2603 -0.2271
 9780TIP3   OH250754   6.343   3.726  15.273  0.3330  0.3296  0.4249
 9780TIP3    H150755   6.302   3.722  15.359 -1.2386  0.7925 -0.2693
 9780TIP3    H250756   6.274   3.757  15.214  1.7045  1.2416 -0.7973
 9781TIP3   OH250757   3.236   0.612  17.095  0.2890 -0.4627 -0.0011
 9781TIP3    H150758   3.308   0.597  17.156 -0.2139 -0.0123  0.7112
 9781TIP3    H250759   3.268   0.683  17.038  0.1154  0.2996  0.8278
 9782TIP3   OH250760   2.428   4.122   1.493  0.1771  0.3988  0.4955
 9782TIP3    H150761   2.392   4.210   1.492 -0.5059  0.1293  0.0850
 9782TIP3    H250762   2.353   4.066   1.514  0.9108  0.0311  2.3862
 9783TIP3   OH250763   4.952   0.573  12.454 -0.2166  0.0629  0.1711
 9783TIP3    H150764   5.035   0.612  12.427 -0.3939  1.5035  1.5449
 9783TIP3    H250765   4.885   0.633  12.420 -0.5365  0.5258  1.5642
 9784TIP3   OH250766   3.780   1.525   6.749  0.2354 -0.4475 -0.2964
 9784TIP3    H150767   3.704   1.473   6.778  0.4204 -1.3572 -1.3552
 9784TIP3    H250768   3.789   1.503   6.656 -0.5714  2.6128 -1.1941
 9785TIP3   OH250769   0.861   1.933   1.273  0.6347 -0.0257 -0.0305
 9785TIP3    H150770   0.943   1.971   1.240  1.8265 -4.2863 -2.7810
 9785TIP3    H250771   0.797   1.951   1.205 -0.1453  1.1541  0.9717
 9786TIP3   OH250772   4.297   6.308   3.610  0.3328  0.4006 -0.0302
 9786TIP3    H150773   4.355   6.351   3.547  1.3371 -1.0106 -0.0984
 9786TIP3    H250774   4.219   6.286   3.559 -0.1647  2.0011 -0.0178
 9787TIP3   OH250775   0.848   1.326  12.756  0.3223  0.1274  0.2580
 9787TIP3    H150776   0.928   1.329  12.809 -0.3061 -0.5310  1.2906
 9787TIP3    H250777   0.874   1.361  12.671  1.6950 -0.0285  0.5837
 9788TIP3   OH250778   6.088   1.750   2.237  0.4514  0.4945 -0.3777
 9788TIP3    H150779   6.055   1.824   2.185  0.2385  0.3330 -0.4763
 9788TIP3    H250780   6.178   1.773   2.257  1.5883 -0.8189 -3.4319
 9789TIP3   OH250781   6.738   1.772   3.313 -0.7333 -0.2250 -0.7029
 9789TIP3    H150782   6.823   1.742   3.283  0.0033  0.5928  0.4687
 9789TIP3    H250783   6.752   1.797   3.405 -2.2410 -0.1203 -0.4701
 9790TIP3   OH250784   1.307   5.695  13.520  0.1695  0.0071 -0.3604
 9790TIP3    H150785   1.382   5.668  13.467 -0.3638 -1.0881 -0.5914
 9790TIP3    H250786   1.251   5.742  13.460  0.3783  0.2882 -0.3371
 9791TIP3   OH250787   1.643   5.772   1.795  0.2584  0.5387 -0.4568
 9791TIP3    H150788   1.608   5.769   1.884  0.6374 -1.3810 -0.3348
 9791TIP3    H250789   1.580   5.825   1.746 -1.8726 -1.2803  0.1706
 9792TIP3   OH250790   5.288   5.062  14.225  0.3271 -0.5803  0.0157
 9792TIP3    H150791   5.201   5.101  14.230  0.9519  0.7544  1.4594
 9792TIP3    H250792   5.305   5.051  14.131 -0.7089  0.7320 -0.3479
 9793TIP3   OH250793   1.281   3.386  12.739  0.5257 -0.2262  0.8092
 9793TIP3    H150794   1.287   3.426  12.826 -0.1609 -0.2943  0.8971
 9793TIP3    H250795   1.192   3.406  12.710  0.1990 -1.5531  0.8027
 9794TIP3   OH250796   3.150   4.399   5.496 -0.1415  0.4355 -0.2640
 9794TIP3    H150797   3.074   4.350   5.464  0.6882 -0.9463 -0.1978
 9794TIP3    H250798   3.178   4.452   5.421 -0.8229  0.5259 -0.4605
 9795TIP3   OH250799   0.802   5.633  12.455  0.3609  0.0616 -0.3714
 9795TIP3    H150800   0.814   5.591  12.369  0.1008  0.5960 -0.6756
 9795TIP3    H250801   0.715   5.672  12.450  0.5706  0.5725 -0.0644
 9796TIP3   OH250802   4.037   6.071   5.683 -0.8180 -0.0755 -0.1548
 9796TIP3    H150803   4.079   6.068   5.597 -2.0200  0.3492 -0.7831
 9796TIP3    H250804   4.096   6.023   5.740  1.3930  1.8891 -0.6114
 9797TIP3   OH250805   3.591   6.344   4.441  0.4413 -0.3230 -0.1560
 9797TIP3    H150806   3.525   6.334   4.373  0.1917 -1.3015  0.2210
 9797TIP3    H250807   3.541   6.345   4.523  0.6975  1.2682  0.0196
 9798TIP3   OH250808   6.089   0.764   4.051  0.6151 -0.3172  0.4838
 9798TIP3    H150809   6.079   0.686   4.105 -1.4476 -0.1603  0.4067
 9798TIP3    H250810   6.042   0.744   3.971 -0.2069  1.0895  0.5852
 9799TIP3   OH250811   4.835   2.288   1.662  0.4328 -0.0216  0.2007
 9799TIP3    H150812   4.923   2.251   1.671 -0.2005 -1.2842  1.6281
 9799TIP3    H250813   4.848   2.382   1.671  2.0237  0.1782 -2.9495
 9800TIP3   OH250814   6.470   4.863   2.564 -0.1151  0.5768  0.3396
 9800TIP3    H150815   6.376   4.878   2.566 -0.0797  0.7367  1.3904
 9800TIP3    H250816   6.499   4.903   2.482 -0.9429  0.6101  0.0579
 9801TIP3   OH250817   2.720   3.026   2.451 -0.4411  0.3480 -0.1691
 9801TIP3    H150818   2.682   2.966   2.387  1.4943  0.2768 -1.3315
 9801TIP3    H250819   2.770   2.970   2.510  0.9452  0.7408 -0.9450
 9802TIP3   OH250820   5.978   2.840  12.608  0.0892  0.7132  0.2256
 9802TIP3    H150821   6.000   2.925  12.572  1.7440  0.5645  0.8249
 9802TIP3    H250822   5.957   2.786  12.532  1.1558  1.0631 -0.3240
 9803TIP3   OH250823   3.078   1.472   3.383 -0.0711 -0.5987  0.2636
 9803TIP3    H150824   3.096   1.563   3.362 -1.0689 -0.6503 -0.9741
 9803TIP3    H250825   3.156   1.441   3.428 -0.6292  1.4963  2.9238
 9804TIP3   OH250826   0.764   0.335  14.761  0.4045 -0.5075  0.2544
 9804TIP3    H150827   0.850   0.293  14.761 -0.0236 -1.4132  0.0970
 9804TIP3    H250828   0.708   0.277  14.709  0.2701  1.3119 -1.8035
 9805TIP3   OH250829   5.054   1.972   1.574  1.0301 -0.0944  0.5349
 9805TIP3    H150830   5.067   2.061   1.606 -1.7056  0.7427 -0.3859
 9805TIP3    H250831   5.018   1.924   1.649 -0.4861  0.4778  0.2098
 9806TIP3   OH250832   5.321   1.801  12.036  0.4184 -0.0915 -0.2796
 9806TIP3    H150833   5.340   1.707  12.031 -1.3463 -0.6463  1.8917
 9806TIP3    H250834   5.407   1.842  12.039  1.3757 -1.2303 -4.7746
 9807TIP3   OH250835   6.561   5.303  16.054  0.4031  0.3342  0.3855
 9807TIP3    H150836   6.514   5.375  16.097 -0.8877 -0.4234  0.2881
 9807TIP3    H250837   6.497   5.264  15.996  1.0449 -0.9881  0.5365
 9808TIP3   OH250838   0.348   5.081   5.171  0.7360  0.4519  0.6161
 9808TIP3    H150839   0.442   5.071   5.190  0.2994 -1.7018  2.0248
 9808TIP3    H250840   0.340   5.050   5.080  1.3571  0.4079  0.5665
 9809TIP3   OH250841   0.298   0.387  16.848 -0.2938 -0.0805 -0.5771
 9809TIP3    H150842   0.376   0.342  16.815  0.2157  0.7648 -0.5742
 9809TIP3    H250843   0.309   0.478  16.819 -0.5457  0.3731  0.6508
 9810TIP3   OH250844   0.854   5.658  16.302  0.3933 -0.0181 -0.2074
 9810TIP3    H150845   0.815   5.618  16.224  2.1557 -1.4325 -0.4162
 9810TIP3    H250846   0.857   5.587  16.366  1.4728  0.3872  0.2046
 9811TIP3   OH250847   3.811   1.578   2.838  0.3326  0.1925  0.3030
 9811TIP3    H150848   3.822   1.672   2.828  2.2205  0.4498  3.5300
 9811TIP3    H250849   3.901   1.544   2.846 -0.3548 -1.6598  0.6190
 9812TIP3   OH250850   2.346   3.784   0.704  0.3740 -0.3743  0.3590
 9812TIP3    H150851   2.344   3.870   0.746 -0.9359 -1.1255  1.9840
 9812TIP3    H250852   2.435   3.752   0.718 -0.0564 -0.6782  2.8737
 9813TIP3   OH250853   2.074   4.159  16.893  0.2689  0.7862  0.7231
 9813TIP3    H150854   2.055   4.204  16.810 -0.8976  2.4590  1.8151
 9813TIP3    H250855   1.988   4.144  16.932  0.6599 -2.0392  0.6572
 9814TIP3   OH250856   6.180   3.213  13.317  0.1685  0.0426  0.4669
 9814TIP3    H150857   6.097   3.189  13.277  0.5443  0.2007 -0.4503
 9814TIP3    H250858   6.233   3.244  13.244  0.8371  0.4856  1.1241
 9815TIP3   OH250859   4.937   4.418   3.367 -0.5490 -0.1424 -0.0367
 9815TIP3    H150860   4.986   4.340   3.342 -0.4310 -0.1415  0.1854
 9815TIP3    H250861   4.959   4.483   3.300  0.0630 -0.0215  0.2786
 9816TIP3   OH250862   6.520   4.955   4.905  0.4582 -0.6668 -0.2686
 9816TIP3    H150863   6.548   4.886   4.845 -1.4698 -2.2632  0.5462
 9816TIP3    H250864   6.526   4.914   4.992 -1.2183 -0.0273  0.1815
 9817TIP3   OH250865   1.771   4.460   2.006  0.2075 -0.2022  0.5332
 9817TIP3    H150866   1.847   4.463   1.948  0.3305 -0.0666  0.6991
 9817TIP3    H250867   1.698   4.493   1.953  0.6197  1.4307  0.9250
 9818TIP3   OH250868   1.431   5.806   5.094 -0.6617 -0.0427 -0.2242
 9818TIP3    H150869   1.500   5.820   5.029 -1.0505  0.4468 -0.5411
 9818TIP3    H250870   1.398   5.894   5.113 -1.3067 -0.2846 -0.1995
 9819TIP3   OH250871   1.655   5.072   3.604 -0.4940 -0.5462  0.3921
 9819TIP3    H150872   1.647   5.146   3.543  0.2196 -0.7763  0.0050
 9819TIP3    H250873   1.566   5.054   3.632 -0.5021  1.9629  2.3327
 9820TIP3   OH250874   3.337   1.180   4.234  0.1237  0.0701  0.3483
 9820TIP3    H150875   3.407   1.195   4.297 -0.6831  2.0011  0.8457
 9820TIP3    H250876   3.256   1.196   4.283 -0.5887 -0.3122 -0.6735
 9821TIP3   OH250877   3.325   4.139  11.883 -0.5411  0.8148 -0.3068
 9821TIP3    H150878   3.363   4.052  11.896  0.1897  1.1112 -0.3752
 9821TIP3    H250879   3.253   4.144  11.946 -0.5834  0.1637 -0.3013
 9822TIP3   OH250880   4.583   6.750   2.709 -0.2992  0.2842 -0.3581
 9822TIP3    H150881   4.550   6.830   2.668 -0.1336  0.6177  0.1430
 9822TIP3    H250882   4.679   6.758   2.704 -0.2100  1.2229  1.6941
 9823TIP3   OH250883   0.307   6.715  16.264 -0.4179 -0.7904  0.2981
 9823TIP3    H150884   0.315   6.669  16.181 -0.4247 -1.9272  0.9092
 9823TIP3    H250885   0.220   6.756  16.260 -1.3992 -2.7352  0.6448
 9824TIP3   OH250886   3.415   0.205  14.347 -0.2138  0.1563 -0.2590
 9824TIP3    H150887   3.459   0.127  14.313 -1.1786 -1.5056  2.0439
 9824TIP3    H250888   3.457   0.221  14.431 -1.9798  0.3063  0.6381
 9825TIP3   OH250889   3.686   5.090   1.287 -0.6774 -0.4737 -0.1626
 9825TIP3    H150890   3.748   5.103   1.216 -1.4443 -0.1009 -0.7722
 9825TIP3    H250891   3.710   5.005   1.324  1.3129  0.4153  0.7633
 9826TIP3   OH250892   4.769   0.240   5.967  0.5777  0.4062  0.0106
 9826TIP3    H150893   4.789   0.147   5.959  0.1414  0.2826  0.2788
 9826TIP3    H250894   4.742   0.267   5.879  2.0272  0.6168 -0.3914
 9827TIP3   OH250895   0.382   1.335   5.051 -0.3774 -0.0614 -0.1832
 9827TIP3    H150896   0.388   1.245   5.017 -0.9505  0.1383 -0.8138
 9827TIP3    H250897   0.297   1.339   5.094  0.1159 -0.1487  0.8332
 9828TIP3   OH250898   6.350   2.799   0.753 -0.8832  0.3833  0.0684
 9828TIP3    H150899   6.271   2.784   0.805  0.4793 -1.7242  1.7413
 9828TIP3    H250900   6.367   2.893   0.761 -3.1628  0.8914 -0.3589
 9829TIP3   OH250901   1.722   6.512   5.603 -0.3811  0.4520 -0.6814
 9829TIP3    H150902   1.688   6.493   5.691  1.5225  0.7110  0.1536
 9829TIP3    H250903   1.724   6.608   5.598 -0.0251  0.4400 -0.8079
 9830TIP3   OH250904   4.625   1.331   0.270  0.8279 -0.0581 -0.6381
 9830TIP3    H150905   4.618   1.331   0.365  0.4365 -2.8251 -0.5731
 9830TIP3    H250906   4.707   1.285   0.252  2.0459  2.3862 -1.6700
 9831TIP3   OH250907   1.430   1.749  16.957 -0.0568  0.3735 -0.5493
 9831TIP3    H150908   1.394   1.687  16.894 -0.5753  0.8060 -0.6857
 9831TIP3    H250909   1.512   1.779  16.918  0.6217 -0.8333 -0.1056
 9832TIP3   OH250910   0.761   4.686  14.161 -0.0161  0.1417  0.1430
 9832TIP3    H150911   0.792   4.766  14.202 -0.3960  0.6894 -0.6271
 9832TIP3    H250912   0.840   4.635  14.144  0.3435  0.8654 -0.4266
 9833TIP3   OH250913   6.362   4.676  14.036  0.1064  0.3208 -0.4671
 9833TIP3    H150914   6.404   4.591  14.053 -2.3560 -1.0440 -0.7081
 9833TIP3    H250915   6.340   4.710  14.122  2.1906  1.3606 -0.3043
 9834TIP3   OH250916   0.966   4.749   4.050  0.3188  0.2212  0.2365
 9834TIP3    H150917   1.009   4.664   4.048  1.5860  0.8185  1.2293
 9834TIP3    H250918   0.910   4.746   4.127  0.8317  0.5032  0.6221
 9835TIP3   OH250919   1.463   1.824  10.660  0.4979 -0.0005  0.4867
 9835TIP3    H150920   1.402   1.874  10.715 -1.5422 -1.0844 -0.6664
 9835TIP3    H250921   1.519   1.778  10.723  0.3633  1.2582  1.5906
 9836TIP3   OH250922   4.977   4.914  11.320 -0.4083 -0.5920 -0.0067
 9836TIP3    H150923   5.024   4.982  11.368  0.2042 -1.1447  0.1761
 9836TIP3    H250924   4.893   4.955  11.298  0.1369  0.3882 -0.3149
 9837TIP3   OH250925   1.445   0.049  15.019 -0.1976 -0.4703 -0.0631
 9837TIP3    H150926   1.349   0.042  15.027 -0.3862 -1.5411 -2.3130
 9837TIP3    H250927   1.461   0.034  14.925  2.1915 -0.3659  0.2877
 9838TIP3   OH250928   5.370   5.331  11.770 -0.0676  0.4937  0.0853
 9838TIP3    H150929   5.409   5.413  11.739 -0.0336 -0.1189 -1.6011
 9838TIP3    H250930   5.282   5.356  11.798 -0.8753  0.8215 -2.4672
 9839TIP3   OH250931   2.880   5.765  12.548 -0.4692 -0.4344 -0.0855
 9839TIP3    H150932   2.968   5.801  12.537 -1.2529  1.5560 -0.1607
 9839TIP3    H250933   2.869   5.706  12.473  0.5775 -0.2656 -0.3862
 9840TIP3   OH250934   0.765   2.946  14.442 -0.0026  0.1495 -0.1558
 9840TIP3    H150935   0.740   2.959  14.351  0.8747  0.7453 -0.3201
 9840TIP3    H250936   0.825   2.871  14.440  1.7822  1.5195 -0.4023
 9841TIP3   OH250937   1.988   1.966   3.477  0.2543  0.3277 -0.1032
 9841TIP3    H150938   1.937   2.047   3.481 -2.1106 -0.9617 -1.4997
 9841TIP3    H250939   2.012   1.947   3.568 -2.5181  0.6258  0.7788
 9842TIP3   OH250940   3.779   1.263  14.723  0.0674  0.0821 -0.4077
 9842TIP3    H150941   3.872   1.273  14.704  0.8705 -2.9329  1.1877
 9842TIP3    H250942   3.763   1.169  14.713 -2.5766  0.3759  0.3521
 9843TIP3   OH250943   4.950   2.936   2.519 -0.0770 -0.7178 -0.6948
 9843TIP3    H150944   5.009   3.010   2.504 -2.1066  1.6353  2.0629
 9843TIP3    H250945   4.862   2.972   2.511 -1.1579 -2.8133  0.7013
 9844TIP3   OH250946   5.935   3.621   5.920  0.5903  0.3339 -0.4998
 9844TIP3    H150947   5.969   3.570   5.994 -0.4074 -0.5710 -0.6374
 9844TIP3    H250948   5.991   3.698   5.916  0.1558  0.8553  1.7803
 9845TIP3   OH250949   1.456   2.450   5.854  0.3345  0.6391 -0.3328
 9845TIP3    H150950   1.513   2.481   5.924 -1.8709  2.4416  0.7884
 9845TIP3    H250951   1.408   2.528   5.826 -1.4684 -0.7428 -1.2992
 9846TIP3   OH250952   5.626   0.838   5.570  0.3026  0.1397  0.0189
 9846TIP3    H150953   5.589   0.758   5.534  0.9126  0.2491 -0.8736
 9846TIP3    H250954   5.646   0.815   5.661 -0.4803 -0.3956  0.0653
 9847TIP3   OH250955   4.756   0.739   0.690  0.0647  0.2534 -0.3760
 9847TIP3    H150956   4.730   0.781   0.608  1.1762  1.6360 -0.0576
 9847TIP3    H250957   4.770   0.812   0.750 -0.2116 -0.7154  0.8901
 9848TIP3   OH250958   4.104   3.007   0.775 -0.6274 -0.3236 -0.1525
 9848TIP3    H150959   4.075   3.096   0.758 -0.6934 -0.3892 -0.4028
 9848TIP3    H250960   4.101   2.997   0.870  1.7638  0.7283  0.0849
 9849TIP3   OH250961   4.373   0.715  11.165 -0.5539  0.8313  0.3114
 9849TIP3    H150962   4.305   0.678  11.108 -0.2491  0.7614 -0.0104
 9849TIP3    H250963   4.425   0.640  11.192 -1.0636  0.7784  1.1888
 9850TIP3   OH250964   5.112   0.363   1.236  0.0107  0.2701 -0.4063
 9850TIP3    H150965   5.163   0.443   1.253 -0.0892  0.2905 -0.1951
 9850TIP3    H250966   5.070   0.343   1.320  1.2040 -0.8376 -0.0411
 9851TIP3   OH250967   3.240   6.534  15.138 -0.1290  0.5553 -0.6284
 9851TIP3    H150968   3.309   6.475  15.165 -0.7165 -0.1142 -0.5727
 9851TIP3    H250969   3.225   6.514  15.045 -0.6973  0.2447 -0.4701
 9852TIP3   OH250970   3.623   5.808  17.301 -0.5221  0.5046  0.2265
 9852TIP3    H150971   3.690   5.763  17.250  1.5968 -0.1595  3.3565
 9852TIP3    H250972   3.642   5.901  17.291 -0.9729  0.4697 -1.1661
 9853TIP3   OH250973   3.209   2.516   2.627  0.2872  0.0780  0.0583
 9853TIP3    H150974   3.304   2.509   2.628  0.2266 -1.2739 -0.9642
 9853TIP3    H250975   3.192   2.610   2.637  1.7685  0.5114 -1.0355
 9854TIP3   OH250976   3.398   2.241  16.843 -0.5494  0.0426  0.2009
 9854TIP3    H150977   3.359   2.311  16.895  1.2839  0.6133  0.9141
 9854TIP3    H250978   3.481   2.222  16.887  0.9916  0.3496 -2.3495
 9855TIP3   OH250979   1.987   4.434   1.843 -0.4608 -0.0288  0.5313
 9855TIP3    H150980   1.983   4.495   1.769  0.5072 -1.0914 -0.4319
 9855TIP3    H250981   2.076   4.400   1.840 -0.6774 -0.7148  1.6896
 9856TIP3   OH250982   3.547   0.411  14.968  0.8834  0.8765 -0.1053
 9856TIP3    H150983   3.490   0.391  14.893  0.7902 -0.5732  0.3184
 9856TIP3    H250984   3.487   0.440  15.036  0.3726 -2.0147  0.8201
 9857TIP3   OH250985   0.100   0.426  13.675 -0.3225  0.2365  0.2860
 9857TIP3    H150986   0.143   0.502  13.714 -1.2395  0.2642  1.3018
 9857TIP3    H250987   0.015   0.422  13.718 -0.4203 -1.1741  0.0232
 9858TIP3   OH250988   0.860   3.307   5.315  0.3418 -0.1182  0.5379
 9858TIP3    H150989   0.775   3.349   5.302 -0.1532 -1.4515 -0.6932
 9858TIP3    H250990   0.898   3.355   5.389 -2.1743 -0.5807  2.2657
 9859TIP3   OH250991   4.806   0.069  15.758  0.1244  0.3633  0.8704
 9859TIP3    H150992   4.769   0.056  15.845 -1.7323 -3.0403 -0.2332
 9859TIP3    H250993   4.730   0.072  15.699  1.3751 -0.0349 -0.8527
 9860TIP3   OH250994   4.040   3.501   5.902  0.7310  0.3618  0.2664
 9860TIP3    H150995   4.036   3.590   5.937  0.8591  0.1882  0.7274
 9860TIP3    H250996   3.953   3.464   5.920  1.2167 -0.1795  1.6347
 9861TIP3   OH250997   5.349   5.904  17.379  0.2606 -0.0085 -0.3053
 9861TIP3    H150998   5.404   5.977  17.349  0.2602 -0.4267 -1.3897
 9861TIP3    H250999   5.311   5.935  17.461  0.7571  0.9645 -0.4214
 9862TIP3   OH251000   3.756   2.602   4.673 -0.1218  0.5797  0.4254
 9862TIP3    H151001   3.720   2.520   4.640  0.7119 -0.0693  1.0971
 9862TIP3    H251002   3.753   2.662   4.598  0.1756 -0.3576 -0.3464
 9863TIP3   OH251003   5.183   0.855   0.602  0.2896  0.5502 -0.2089
 9863TIP3    H151004   5.193   0.916   0.529  1.0389 -1.2004 -1.6432
 9863TIP3    H251005   5.171   0.770   0.560  0.5372 -0.4825  1.7267
 9864TIP3   OH251006   0.010   1.629   5.922 -0.0921 -0.5922 -0.1982
 9864TIP3    H151007   0.073   1.677   5.977 -1.1268 -1.5970  2.0110
 9864TIP3    H251008  -0.072   1.676   5.934 -0.8441 -2.1325  1.0451
 9865TIP3   OH251009   3.382   4.860   3.314 -0.2474 -0.1542 -0.2828
 9865TIP3    H151010   3.336   4.849   3.397  0.7316  0.7245  0.3991
 9865TIP3    H251011   3.433   4.780   3.304  0.4631  0.1815  0.5199
 9866TIP3   OH251012   3.543   2.120  14.985 -0.6543 -0.9601  0.5042
 9866TIP3    H151013   3.607   2.049  14.988  0.3049 -0.2054 -0.9078
 9866TIP3    H251014   3.556   2.168  15.067  0.6165 -0.8276  0.2519
 9867TIP3   OH251015   5.570   6.411  13.253 -0.5976 -0.4624 -0.3665
 9867TIP3    H151016   5.503   6.479  13.244  0.2743  0.3849 -0.6689
 9867TIP3    H251017   5.605   6.422  13.342  0.5131  0.4423 -0.8838
 9868TIP3   OH251018   3.748   0.728  12.535  0.2212 -0.4980  0.3863
 9868TIP3    H151019   3.706   0.647  12.563 -0.9679 -0.0187  0.0451
 9868TIP3    H251020   3.721   0.794  12.600 -1.1274  0.2247 -0.8404
 9869TIP3   OH251021   3.341   1.251   0.507 -0.0662  0.0673  0.6470
 9869TIP3    H151022   3.417   1.284   0.555  1.9178 -1.9885 -0.8709
 9869TIP3    H251023   3.286   1.328   0.492  3.6692  2.5528 -1.7236
 9870TIP3   OH251024   2.681   5.856   3.791 -0.0452 -0.1440 -0.6764
 9870TIP3    H151025   2.767   5.898   3.782 -0.5830  1.1701  0.1272
 9870TIP3    H251026   2.699   5.772   3.833  0.9153 -0.1974 -1.1703
 9871TIP3   OH251027   2.640   3.973  15.192 -0.1604 -0.0937  0.2894
 9871TIP3    H151028   2.677   4.061  15.201 -0.8412  0.6559 -3.0721
 9871TIP3    H251029   2.549   3.983  15.220 -0.1055  0.1426  0.3847
 9872TIP3   OH251030   1.013   3.437  15.674 -0.3704 -0.4043 -0.3165
 9872TIP3    H151031   0.968   3.392  15.603 -1.3795  0.2852 -0.1350
 9872TIP3    H251032   1.012   3.529  15.649  2.1885 -0.4946 -0.9663
 9873TIP3   OH251033   2.612   3.827  11.343  0.5852  0.0045  0.5500
 9873TIP3    H151034   2.631   3.767  11.414  1.5707  0.0248  0.3128
 9873TIP3    H251035   2.568   3.774  11.277 -0.9422  0.1237  1.4236
 9874TIP3   OH251036   3.851   0.823   1.189 -0.1506  0.3490 -0.1848
 9874TIP3    H151037   3.927   0.785   1.233 -1.3875  1.0613  2.7785
 9874TIP3    H251038   3.887   0.896   1.138  1.2925 -0.1116  0.1279
 9875TIP3   OH251039   1.984   6.236  15.305  0.0475 -0.0810  0.0789
 9875TIP3    H151040   2.076   6.250  15.327  0.0062  0.7396 -0.2402
 9875TIP3    H251041   1.954   6.169  15.368  1.5308 -2.3754 -1.5032
 9876TIP3   OH251042   4.882   5.788  14.696 -0.0433  0.2719  0.7926
 9876TIP3    H151043   4.883   5.695  14.718 -1.6495  0.1822  0.6304
 9876TIP3    H251044   4.961   5.823  14.738  0.6495 -1.1660  0.7613
 9877TIP3   OH251045   0.651   6.328   3.199  0.0119 -0.1465 -0.0570
 9877TIP3    H151046   0.643   6.361   3.289 -0.6533 -0.2838 -0.0639
 9877TIP3    H251047   0.577   6.268   3.189 -0.3148  0.3972 -0.9307
 9878TIP3   OH251048   2.058   0.835   4.264 -0.5009  0.3307  0.4935
 9878TIP3    H151049   2.048   0.784   4.344  0.6104 -0.5974  0.0587
 9878TIP3    H251050   2.071   0.770   4.195 -0.2598  1.1583 -0.2632
 9879TIP3   OH251051   2.873   1.096   4.628 -0.6416 -0.2085 -0.2797
 9879TIP3    H151052   2.952   1.146   4.648 -1.9543  0.9839  2.3404
 9879TIP3    H251053   2.815   1.158   4.584 -1.4340  0.0026  1.0014
 9880TIP3   OH251054   1.419   3.071  14.191  0.3181 -0.3201  0.2670
 9880TIP3    H151055   1.453   2.996  14.142  0.8361 -0.6814  1.1463
 9880TIP3    H251056   1.471   3.072  14.271  1.4239  1.9273 -0.3885
 9881TIP3   OH251057   5.965   3.380   3.373  0.2913  0.1751  0.2467
 9881TIP3    H151058   5.877   3.416   3.358 -0.3827 -1.4704 -0.0676
 9881TIP3    H251059   5.994   3.420   3.454  0.1046  2.2700 -0.6593
 9882TIP3   OH251060   0.970   5.733  12.652  0.4921  0.1289 -0.3680
 9882TIP3    H151061   0.923   5.805  12.693  2.0452 -0.7633  3.3991
 9882TIP3    H251062   0.911   5.702  12.584 -3.8348  0.0006  2.9819
 9883TIP3   OH251063   3.085   1.184   5.811  0.3507  0.5909 -0.6564
 9883TIP3    H151064   3.103   1.233   5.891  3.7313 -0.9491 -0.3455
 9883TIP3    H251065   3.033   1.109   5.840 -1.7600  1.9482 -0.6225
 9884TIP3   OH251066   2.376   1.188  13.519  0.2303  0.0569 -0.5717
 9884TIP3    H151067   2.307   1.182  13.453 -0.2740  0.9206 -0.1345
 9884TIP3    H251068   2.335   1.232  13.593  0.9328 -0.4438  0.1327
 9885TIP3   OH251069   3.403   0.837   0.732  0.4934  0.3632  0.1036
 9885TIP3    H151070   3.452   0.847   0.651  0.0170 -2.0343 -0.5548
 9885TIP3    H251071   3.324   0.889   0.719  0.8583  0.7632 -0.5713
 9886TIP3   OH251072   3.587   6.355   0.380 -0.1554 -0.6321  0.2605
 9886TIP3    H151073   3.571   6.279   0.436  0.2711 -0.2396  0.9230
 9886TIP3    H251074   3.499   6.387   0.358 -0.3386  0.0042  1.8151
 9887TIP3   OH251075   4.541   5.000   5.664  0.1061  0.5409 -1.0900
 9887TIP3    H151076   4.452   5.034   5.653 -0.3221 -0.5561 -1.1291
 9887TIP3    H251077   4.535   4.940   5.738  1.0612  1.2686 -0.3952
 9888TIP3   OH251078   4.061   2.894   0.216  0.2548  0.0373  0.1586
 9888TIP3    H151079   4.072   2.967   0.277  3.0637 -0.2742  0.1300
 9888TIP3    H251080   4.024   2.934   0.137  0.2321  1.1312  0.7049
 9889TIP3   OH251081   0.235   2.096   3.995  0.0686 -0.0093  0.5076
 9889TIP3    H151082   0.270   2.012   3.967 -0.3333 -0.2884  0.8293
 9889TIP3    H251083   0.146   2.076   4.025 -0.2013  0.6074  0.1388
 9890TIP3   OH251084   5.571   2.708   1.140 -0.0299 -0.4764 -0.0251
 9890TIP3    H151085   5.576   2.722   1.235  0.8141  0.5298 -0.1996
 9890TIP3    H251086   5.509   2.775   1.109 -0.4367 -0.9122 -0.1779
 9891TIP3   OH251087   3.126   2.956  15.997 -0.0005 -0.0721 -0.0329
 9891TIP3    H151088   3.119   3.050  15.982  1.3175  0.2797  1.3003
 9891TIP3    H251089   3.181   2.924  15.925  0.7364  0.4353  0.2968
 9892TIP3   OH251090   1.710   1.060   0.886  0.3219  0.3008  0.0664
 9892TIP3    H151091   1.747   1.065   0.974  1.2990  0.0792 -0.3159
 9892TIP3    H251092   1.768   1.000   0.839 -1.0375 -0.7828 -0.3233
 9893TIP3   OH251093   1.852   5.289  12.327 -0.0320 -0.1729  0.0929
 9893TIP3    H151094   1.788   5.329  12.385  1.6226  3.7605 -0.4397
 9893TIP3    H251095   1.930   5.277  12.381  0.0900 -0.9722 -0.2408
 9894TIP3   OH251096   2.051   1.302   1.116  0.1090 -0.3338  0.1324
 9894TIP3    H151097   2.107   1.302   1.038  1.6925 -1.6831  1.1894
 9894TIP3    H251098   1.995   1.226   1.106  1.0386 -1.1318  0.7400
 9895TIP3   OH251099   3.652   1.894   3.087  0.6390  0.1686  0.5568
 9895TIP3    H151100   3.561   1.913   3.066  0.4627 -1.3749 -0.2208
 9895TIP3    H251101   3.700   1.914   3.006  1.0984  1.5042  1.1305
 9896TIP3   OH251102   3.993   2.890  13.278  0.6490 -0.0710 -0.5447
 9896TIP3    H151103   3.924   2.951  13.303  0.3706 -0.0789 -1.2657
 9896TIP3    H251104   4.046   2.879  13.357 -0.4038 -0.3870  0.1372
 9897TIP3   OH251105   4.747   0.339  14.750 -0.0159 -0.4960 -0.4210
 9897TIP3    H151106   4.743   0.395  14.672 -1.4895 -0.6043 -0.4624
 9897TIP3    H251107   4.739   0.250  14.715 -1.8892 -0.4913 -0.1099
 9898TIP3   OH251108   3.180   2.182   3.501 -0.0907 -0.3560  0.0791
 9898TIP3    H151109   3.142   2.094   3.504 -1.6139  0.2353 -0.5876
 9898TIP3    H251110   3.166   2.217   3.589  0.6297 -0.8225  0.3805
 9899TIP3   OH251111   4.256   1.201  13.972 -0.1107  0.3267 -0.0167
 9899TIP3    H151112   4.278   1.117  14.013 -2.2595 -0.0803  0.3951
 9899TIP3    H251113   4.204   1.177  13.895  0.2881  1.2600 -0.5922
 9900TIP3   OH251114   2.000   6.240   0.008  1.2555 -0.2548  0.0739
 9900TIP3    H151115   2.003   6.194  -0.076  0.5267  0.2115 -0.2183
 9900TIP3    H251116   1.909   6.234   0.036  1.0153  1.3883 -0.2076
 9901TIP3   OH251117   4.257   1.214   1.613 -0.3888 -0.0599 -0.0833
 9901TIP3    H151118   4.208   1.170   1.683  0.5979 -1.4617 -0.2258
 9901TIP3    H251119   4.217   1.182   1.532 -0.9443  0.8679 -0.1904
 9902TIP3   OH251120   2.584   5.183  10.285 -0.3308  0.6513  0.2284
 9902TIP3    H151121   2.564   5.106  10.231  2.2314 -0.1113  0.2256
 9902TIP3    H251122   2.615   5.146  10.368  1.2378  1.6571  0.1139
 9903TIP3   OH251123   5.027   2.330  12.775  0.0637  0.1026 -0.3406
 9903TIP3    H151124   5.048   2.258  12.834  1.2919 -0.2206 -1.1516
 9903TIP3    H251125   5.079   2.313  12.697  1.0149  2.3026 -0.2516
 9904TIP3   OH251126   6.176   1.835  12.333  0.3088  0.1371 -0.3116
 9904TIP3    H151127   6.216   1.808  12.415 -1.2725 -0.9819  0.1300
 9904TIP3    H251128   6.211   1.775  12.268 -1.4092 -1.5675  0.2650
 9905TIP3   OH251129   5.232   2.093  13.601 -0.8370 -0.2160  0.3748
 9905TIP3    H151130   5.186   2.159  13.652  1.4533  0.9847  0.9771
 9905TIP3    H251131   5.283   2.142  13.537  0.1403 -1.4513  0.1540
 9906TIP3   OH251132   2.648   5.875   5.777  0.0529  0.2398  0.5690
 9906TIP3    H151133   2.699   5.889   5.698 -0.3174 -0.7130  0.1508
 9906TIP3    H251134   2.713   5.849   5.843 -0.0043 -2.6827 -0.3920
 9907TIP3   OH251135   2.648   5.083   6.352 -0.0768 -0.3023  0.1967
 9907TIP3    H151136   2.634   5.154   6.415  0.2329 -0.7306  0.7672
 9907TIP3    H251137   2.718   5.030   6.392 -0.3048 -0.9198 -0.2183
 9908TIP3   OH251138   0.419   6.464   3.929 -0.5947  0.6079  0.6536
 9908TIP3    H151139   0.367   6.413   3.866  0.7709  0.0125 -0.0418
 9908TIP3    H251140   0.361   6.476   4.004 -1.1991 -1.4372  0.5753
 9909TIP3   OH251141   0.031   0.717  10.196 -0.5167  0.3505  0.3584
 9909TIP3    H151142   0.077   0.798  10.217 -0.6574  0.8462 -1.1318
 9909TIP3    H251143   0.015   0.675  10.281  3.2122 -0.1660  0.9476
 9910TIP3   OH251144   5.689   5.740   6.838 -0.2516 -0.1605  0.3279
 9910TIP3    H151145   5.739   5.810   6.796  0.1421  0.3178  1.5522
 9910TIP3    H251146   5.601   5.775   6.844 -0.0773  0.1975  0.8488
 9911TIP3   OH251147   6.343   0.854   1.684  0.0621 -0.8404  0.1578
 9911TIP3    H151148   6.270   0.825   1.629  0.4881 -1.6574  0.0107
 9911TIP3    H251149   6.404   0.895   1.623 -1.0960  1.5799  0.5218
 9912TIP3   OH251150   2.526   4.651   3.805  0.1727  0.2235  0.0840
 9912TIP3    H151151   2.520   4.673   3.712  0.7607 -0.0439 -0.0191
 9912TIP3    H251152   2.474   4.571   3.814  0.8122 -0.2352 -0.1846
 9913TIP3   OH251153   0.378   3.924   2.828  0.7628  0.3743 -0.1622
 9913TIP3    H151154   0.462   3.967   2.841  0.5886  0.3274  1.2703
 9913TIP3    H251155   0.381   3.847   2.886  0.9878 -1.4878 -2.4852
 9914TIP3   OH251156   5.586   0.280   0.432 -0.1320 -0.2112  0.0541
 9914TIP3    H151157   5.535   0.358   0.452  0.1473  0.0451 -0.2325
 9914TIP3    H251158   5.520   0.212   0.416 -0.3691 -0.1707  0.8301
 9915TIP3   OH251159   2.212   6.705  13.753 -0.3974  0.2922  0.0667
 9915TIP3    H151160   2.238   6.667  13.669 -2.1529  0.6642 -0.6856
 9915TIP3    H251161   2.137   6.652  13.781  1.0104 -0.7497  2.1503
 9916TIP3   OH251162   6.240   0.868  12.058  0.2869  0.4028 -0.0034
 9916TIP3    H151163   6.255   0.790  12.111 -2.8246  0.4568  1.1353
 9916TIP3    H251164   6.268   0.940  12.114 -1.1387  0.3434  0.8016
 9917TIP3   OH251165   5.146   2.556  16.567  0.5051 -0.4988  0.1232
 9917TIP3    H151166   5.124   2.543  16.659  2.6763 -0.5952  0.6924
 9917TIP3    H251167   5.064   2.543  16.521 -0.6377 -0.5040  2.0334
 9918TIP3   OH251168   1.184   3.339   2.618  0.1515  0.2688  0.3624
 9918TIP3    H151169   1.195   3.270   2.553  0.9726  0.4983  0.2486
 9918TIP3    H251170   1.090   3.338   2.639  0.0067 -0.2802 -0.2941
 9919TIP3   OH251171   1.608   3.519  15.298  0.1440  0.2703 -0.1930
 9919TIP3    H151172   1.595   3.599  15.247 -2.1579  0.7145  0.9168
 9919TIP3    H251173   1.533   3.518  15.358  2.0991 -0.7756  2.3961
 9920TIP3   OH251174   2.451   0.866   5.440 -0.1072 -0.0572  0.0211
 9920TIP3    H151175   2.477   0.834   5.354 -0.4854 -0.8908  0.2083
 9920TIP3    H251176   2.413   0.790   5.484 -0.4555  0.4990  0.7104
 9921TIP3   OH251177   4.291   0.475   5.362 -0.4595 -0.0702  0.4365
 9921TIP3    H151178   4.371   0.422   5.358 -0.0308  0.5566  0.5710
 9921TIP3    H251179   4.244   0.441   5.439  0.0232  0.0349  0.7852
 9922TIP3   OH251180   5.337   5.744  16.047  0.1895 -0.4754  0.3820
 9922TIP3    H151181   5.277   5.788  16.107  0.2208  0.5343 -0.2937
 9922TIP3    H251182   5.320   5.651  16.059 -0.5928 -0.2457  1.1312
 9923TIP3   OH251183   5.840   5.275   0.315 -0.3471 -0.3171  0.2282
 9923TIP3    H151184   5.876   5.329   0.244  0.6304 -0.6210  0.4813
 9923TIP3    H251185   5.868   5.320   0.395 -0.1090 -0.8345  0.4347
 9924TIP3   OH251186   6.368   0.616   4.085 -0.3897 -0.2473 -0.2431
 9924TIP3    H151187   6.275   0.593   4.094 -1.1249  2.3418 -0.3098
 9924TIP3    H251188   6.411   0.569   4.156 -1.6889 -1.7407 -0.3934
 9925TIP3   OH251189   4.682   4.185  13.044  1.0095  0.2889  0.4940
 9925TIP3    H151190   4.757   4.149  13.091 -0.0327 -0.8812  1.3441
 9925TIP3    H251191   4.685   4.279  13.061  2.5006  0.3237  0.1563
 9926TIP3   OH251192   1.898   0.309  13.340  0.4393  0.6917  0.1570
 9926TIP3    H151193   1.958   0.383  13.343  1.6409 -0.2907  1.5580
 9926TIP3    H251194   1.887   0.283  13.432  0.3620 -1.0853 -0.3150
 9927TIP3   OH251195   6.010   3.389   0.468 -0.1732 -0.3307  0.0692
 9927TIP3    H151196   5.979   3.298   0.460  1.7732 -1.0853  0.4102
 9927TIP3    H251197   5.995   3.411   0.560  0.1129 -0.6187  0.1877
 9928TIP3   OH251198   5.287   1.308  12.167  0.4049  0.3771 -0.2641
 9928TIP3    H151199   5.317   1.393  12.198  1.3508  0.3523 -1.0708
 9928TIP3    H251200   5.220   1.328  12.102  1.8925  0.5981 -1.7947
 9929TIP3   OH251201   3.191   0.893  15.203 -0.0152 -0.2975  0.1090
 9929TIP3    H151202   3.153   0.815  15.242 -1.4964  0.6184  0.5739
 9929TIP3    H251203   3.252   0.860  15.137  0.4419 -1.8432  1.2475
 9930TIP3   OH251204   0.277   1.448   4.644 -0.5214  0.0466 -0.1629
 9930TIP3    H151205   0.262   1.456   4.550  0.6450  0.1888 -0.3562
 9930TIP3    H251206   0.233   1.524   4.683 -1.9438 -0.5929 -0.4580
 9931TIP3   OH251207   5.063   1.741   2.400 -0.2692 -0.5868  0.1658
 9931TIP3    H151208   5.139   1.749   2.343 -0.1868  1.4688  0.4733
 9931TIP3    H251209   5.026   1.830   2.404 -0.4721 -0.6814  2.9897
 9932TIP3   OH251210   3.890   0.849   5.213 -0.0472  0.1870 -0.4242
 9932TIP3    H151211   3.887   0.863   5.308  0.2406  1.3245 -0.5584
 9932TIP3    H251212   3.932   0.764   5.202  0.6826  0.4155  0.4657
 9933TIP3   OH251213   2.542   5.860  14.475 -0.0846  0.1389  0.0938
 9933TIP3    H151214   2.471   5.807  14.438  0.5583 -0.7261  0.0605
 9933TIP3    H251215   2.578   5.907  14.400 -0.0972 -0.0413 -0.0268
 9934TIP3   OH251216   3.034   0.313  15.828  0.5834  0.9246 -0.0190
 9934TIP3    H151217   3.025   0.345  15.738 -2.3922 -0.0628 -0.1502
 9934TIP3    H251218   3.019   0.390  15.882 -0.6449  0.9572 -0.3772
 9935TIP3   OH251219   3.062   5.802   2.714 -0.0153  0.0164  0.0074
 9935TIP3    H151220   3.092   5.711   2.710  2.8349  0.8842 -0.8661
 9935TIP3    H251221   3.122   5.849   2.656 -1.0487  2.5630  0.8817
 9936TIP3   OH251222   4.132   5.317   2.832  0.4957 -0.4231  0.1503
 9936TIP3    H151223   4.166   5.298   2.920  1.2198 -0.5762 -0.1542
 9936TIP3    H251224   4.057   5.258   2.822 -0.0601  0.1244  0.9449
 9937TIP3   OH251225   1.988   4.660  16.532  0.1220 -0.5461 -0.3179
 9937TIP3    H151226   2.068   4.618  16.500  0.1826  0.1077 -1.0366
 9937TIP3    H251227   2.015   4.708  16.611  0.3181 -0.7800 -0.2404
 9938TIP3   OH251228   5.162   1.706  16.248  0.4763 -0.6262 -0.7638
 9938TIP3    H151229   5.220   1.733  16.176  0.0371 -0.4858 -1.0698
 9938TIP3    H251230   5.095   1.652  16.205  0.2016 -0.5257 -0.4596
 9939TIP3   OH251231   3.848   4.325  10.614 -0.1965  0.3536  0.1198
 9939TIP3    H151232   3.835   4.389  10.544 -1.3408 -0.3344 -0.3329
 9939TIP3    H251233   3.936   4.290  10.599  0.8767  2.5102  0.9934
 9940TIP3   OH251234   1.667   2.807   4.550  0.2697  0.1180 -0.0466
 9940TIP3    H151235   1.675   2.741   4.620  0.2130 -0.6808 -0.7754
 9940TIP3    H251236   1.596   2.864   4.580 -1.6127 -1.7771 -0.6351
 9941TIP3   OH251237   1.131   3.004   4.744 -0.5743  0.0049 -0.1756
 9941TIP3    H151238   1.169   2.926   4.705 -0.3008 -0.5206  1.0992
 9941TIP3    H251239   1.105   2.977   4.832 -2.4278  0.7789 -0.4325
 9942TIP3   OH251240   5.511   2.052   5.101  0.4685  0.2999 -0.1015
 9942TIP3    H151241   5.445   1.986   5.080 -0.3972  1.5424 -1.5066
 9942TIP3    H251242   5.583   2.003   5.141 -0.1055 -1.4790 -1.1408
 9943TIP3   OH251243   2.476   6.636  11.799 -0.0557 -0.0145 -0.0719
 9943TIP3    H151244   2.402   6.575  11.802  0.7277 -1.0085 -0.5572
 9943TIP3    H251245   2.451   6.699  11.731 -0.7518  0.0610  0.2389
 9944TIP3   OH251246   1.325   3.429  17.214 -0.4042  1.0009  0.4859
 9944TIP3    H151247   1.415   3.423  17.245 -0.1146  2.3410 -0.0066
 9944TIP3    H251248   1.285   3.345  17.238  1.9790 -1.2237 -2.5324
 9945TIP3   OH251249   0.204   0.060  14.443  0.0687  0.0558 -0.1482
 9945TIP3    H151250   0.251   0.062  14.526  1.6559  1.1718 -1.0225
 9945TIP3    H251251   0.122   0.016  14.463  1.5543 -2.2370  1.4193
 9946TIP3   OH251252   2.541   0.739  16.897  0.7346  0.1240 -0.4766
 9946TIP3    H151253   2.631   0.713  16.917  1.2148  2.1017  0.1656
 9946TIP3    H251254   2.527   0.819  16.948 -1.6689 -0.5385  0.0535
 9947TIP3   OH251255   1.350   1.399   1.261 -0.0755  0.1092  0.2803
 9947TIP3    H151256   1.308   1.482   1.280 -1.3700 -0.3753 -0.3613
 9947TIP3    H251257   1.310   1.337   1.323  0.6602 -0.1106  0.5527
 9948TIP3   OH251258   3.073   0.667  15.659 -0.2505 -1.1406 -0.3339
 9948TIP3    H151259   3.017   0.657  15.736  0.2624 -0.0980  0.1984
 9948TIP3    H251260   3.160   0.639  15.689  0.2791  0.6909 -0.0536
 9949TIP3   OH251261   2.718   4.408  16.131  0.1994  0.0416  0.8777
 9949TIP3    H151262   2.627   4.391  16.156  0.5044 -1.7768  0.8739
 9949TIP3    H251263   2.758   4.445  16.211 -0.2679 -0.1999  1.2278
 9950TIP3   OH251264   4.489   4.968   2.962  0.4104  0.4375  0.2858
 9950TIP3    H151265   4.527   4.880   2.969  0.9806  0.5297 -1.2047
 9950TIP3    H251266   4.397   4.952   2.938  0.3626  0.2473  0.5903
 9951TIP3   OH251267   0.225   1.153   2.183  0.1450  0.7136 -0.6776
 9951TIP3    H151268   0.184   1.102   2.112 -1.9416  1.1851  0.1127
 9951TIP3    H251269   0.264   1.087   2.240 -0.4063  0.1522 -0.9363
 9952TIP3   OH251270   5.062   0.870  14.611  0.0449 -0.4954 -0.0326
 9952TIP3    H151271   5.064   0.964  14.593  1.1985 -0.4162  0.4216
 9952TIP3    H251272   5.002   0.861  14.685 -1.4111 -0.3399 -1.1436
 9953TIP3   OH251273   6.274   2.849  13.836  0.1095  0.3035  0.0208
 9953TIP3    H151274   6.201   2.808  13.883 -0.8953  0.0116 -1.7184
 9953TIP3    H251275   6.245   2.940  13.823  0.0496  0.1956 -0.6436
 9954TIP3   OH251276   0.143   1.278  14.832 -0.0041  0.7157 -0.0082
 9954TIP3    H151277   0.202   1.214  14.793 -1.0309  1.0905 -2.3507
 9954TIP3    H251278   0.186   1.305  14.913  0.1635 -3.3286  1.4466
 9955TIP3   OH251279   3.755   6.395   1.038  0.0709  0.2178  0.6745
 9955TIP3    H151280   3.701   6.464   1.076 -0.9596 -0.3244  0.2135
 9955TIP3    H251281   3.716   6.313   1.069 -0.5479 -0.2348 -1.1698
 9956TIP3   OH251282   3.428   5.212   3.437  0.0641  0.0374  0.7229
 9956TIP3    H151283   3.355   5.183   3.381  0.7438 -0.7238  0.2100
 9956TIP3    H251284   3.465   5.287   3.390  1.1902 -1.1451 -0.3442
 9957TIP3   OH251285   4.150   2.053   5.641 -0.4048  0.1050 -0.4051
 9957TIP3    H151286   4.243   2.043   5.658 -0.4181  1.3575  0.5447
 9957TIP3    H251287   4.116   2.098   5.719 -1.5909  0.6919 -1.2290
 9958TIP3   OH251288   1.315   5.574   1.725 -0.4525 -0.0013  0.1037
 9958TIP3    H151289   1.297   5.608   1.812 -0.9043 -0.6217  0.2527
 9958TIP3    H251290   1.408   5.592   1.711 -0.4249  0.2675  0.6357
 9959TIP3   OH251291   6.616   4.997   2.349  0.1349 -0.1438  0.7046
 9959TIP3    H151292   6.613   4.950   2.266  1.2199 -0.6552  0.9363
 9959TIP3    H251293   6.671   5.073   2.331 -0.0824  0.0420  0.8168
 9960TIP3   OH251294   4.222   4.279   5.452  0.5037 -0.4852 -0.1407
 9960TIP3    H151295   4.313   4.257   5.471  0.3750 -1.0086 -0.0908
 9960TIP3    H251296   4.172   4.229   5.517  0.2333  0.9712  0.8179
 9961TIP3   OH251297   0.913   0.149   1.828 -0.0751  0.1207  0.4073
 9961TIP3    H151298   0.939   0.164   1.918  0.9920 -0.8013  0.2742
 9961TIP3    H251299   0.942   0.059   1.809 -0.7794  0.1038 -0.6707
 9962TIP3   OH251300   0.357   5.653   2.951 -0.4362  0.1138  0.1098
 9962TIP3    H151301   0.431   5.709   2.977  0.0486 -0.5456  0.1672
 9962TIP3    H251302   0.334   5.685   2.863  0.2851 -0.0320 -0.1466
 9963TIP3   OH251303   5.932   1.619   5.907  0.4507  0.2450 -0.3771
 9963TIP3    H151304   5.991   1.651   5.839  0.0173 -2.5709 -2.2219
 9963TIP3    H251305   5.848   1.606   5.864 -0.3609  0.0976  1.1517
 9964TIP3   OH251306   5.346   4.800  13.470  0.0190  0.5640  0.4003
 9964TIP3    H151307   5.350   4.879  13.523 -0.5780  1.1284 -0.3696
 9964TIP3    H251308   5.400   4.819  13.393 -0.1638  0.2410  0.1865
 9965TIP3   OH251309   5.683   3.100   6.156 -0.4498  0.0716  0.3109
 9965TIP3    H151310   5.729   3.019   6.134 -0.1025  0.1087  0.8698
 9965TIP3    H251311   5.753   3.162   6.174 -0.7174  0.1968  0.9420
 9966TIP3   OH251312   3.767   2.456  14.780  0.2560 -0.6554  0.0676
 9966TIP3    H151313   3.759   2.526  14.715  0.8267 -1.4477 -0.8973
 9966TIP3    H251314   3.842   2.482  14.834  0.7665 -0.7489 -0.5865
 9967TIP3   OH251315   4.462   0.999   1.419 -0.1350 -0.0290 -0.6620
 9967TIP3    H151316   4.531   1.061   1.441 -0.1692  0.4456 -1.8214
 9967TIP3    H251317   4.423   0.975   1.503  0.9691  0.2367 -0.0572
 9968TIP3   OH251318   3.115   4.568  15.978  0.5613  0.2087  0.3101
 9968TIP3    H151319   3.070   4.652  15.988  2.0567  1.3846 -1.9790
 9968TIP3    H251320   3.170   4.579  15.901  2.4870 -2.1485  1.1973
 9969TIP3   OH251321   1.744   2.503  17.140 -0.4226  0.3249 -0.3277
 9969TIP3    H151322   1.720   2.435  17.203  0.3845  0.9454  0.6936
 9969TIP3    H251323   1.662   2.552  17.125 -0.8091 -0.3423 -0.4199
 9970TIP3   OH251324   1.037   4.780   4.882 -0.0668 -0.0303 -0.5127
 9970TIP3    H151325   1.088   4.757   4.959 -0.6726  0.9564  0.2159
 9970TIP3    H251326   1.082   4.738   4.809  0.9751 -0.3159  0.2761
 9971TIP3   OH251327   2.543   1.523  13.679  0.1212 -0.0175  0.4493
 9971TIP3    H151328   2.622   1.551  13.634  0.0313  2.3702  1.6516
 9971TIP3    H251329   2.476   1.522  13.610  0.2171  2.5228  0.2491
 9972TIP3   OH251330   2.715   0.265  12.318  0.0304 -0.5761  0.3381
 9972TIP3    H151331   2.642   0.203  12.326 -0.8335  0.4828  0.9596
 9972TIP3    H251332   2.686   0.328  12.252  0.6149 -0.4515  0.1964
 9973TIP3   OH251333   2.551   1.424   5.447 -0.5040 -0.5547  0.3055
 9973TIP3    H151334   2.514   1.471   5.522 -0.0914  0.8641 -0.3661
 9973TIP3    H251335   2.645   1.443   5.451 -0.3272 -1.3354  0.0222
 9974TIP3   OH251336   4.642   3.627   1.033 -0.0287 -0.1872 -0.1799
 9974TIP3    H151337   4.680   3.695   1.088  0.1982  0.9481 -1.6652
 9974TIP3    H251338   4.718   3.577   1.000 -0.0347  0.1773 -0.7560
 9975TIP3   OH251339   5.709   2.907  12.111  0.4236  0.1722 -0.6738
 9975TIP3    H151340   5.614   2.908  12.101  0.2587  2.3836  0.5306
 9975TIP3    H251341   5.743   2.924  12.024 -0.3858  1.4707 -0.7624
 9976TIP3   OH251342   4.902   6.182  12.253 -0.2231 -0.8376  0.5629
 9976TIP3    H151343   4.925   6.192  12.346 -0.2079  3.3890  0.3301
 9976TIP3    H251344   4.853   6.100  12.249  2.5038 -2.8879  3.6248
 9977TIP3   OH251345   6.348   4.093  12.935 -0.2055 -0.0518 -0.0495
 9977TIP3    H151346   6.431   4.069  12.894 -0.9328  1.8901 -3.0165
 9977TIP3    H251347   6.281   4.050  12.882 -1.1764  0.7109  0.5082
 9978TIP3   OH251348   2.491   2.414  17.239  1.0762 -0.5066  0.1240
 9978TIP3    H151349   2.500   2.479  17.309  2.3411  0.5083 -0.9054
 9978TIP3    H251350   2.571   2.362  17.245  1.2962 -0.2785 -0.6538
 9979TIP3   OH251351   1.817   0.184   3.714  0.1252  0.0755  0.0507
 9979TIP3    H151352   1.904   0.145   3.724 -1.0176 -2.6436 -0.0037
 9979TIP3    H251353   1.832   0.261   3.659  2.6447  0.3801  1.0268
 9980TIP3   OH251354   5.408   2.696   1.862  0.1689 -0.0303 -0.0974
 9980TIP3    H151355   5.487   2.673   1.910 -1.1479 -2.2839  1.1790
 9980TIP3    H251356   5.349   2.732   1.928 -0.9126 -1.1716 -0.4071
 9981TIP3   OH251357   4.370   0.255   2.163  0.2048  0.7642 -0.0720
 9981TIP3    H151358   4.353   0.192   2.093  0.8852 -0.3803  0.7593
 9981TIP3    H251359   4.324   0.335   2.136 -1.2951 -0.3094 -0.7901
 9982TIP3   OH251360   2.850   4.988   6.491  0.1621  0.2029  0.3349
 9982TIP3    H151361   2.922   4.949   6.441 -0.7377 -1.0761 -0.0130
 9982TIP3    H251362   2.842   4.932   6.569 -0.7964  0.0021  0.1019
 9983TIP3   OH251363   2.526   0.565   4.776  0.1416  0.4656  0.5463
 9983TIP3    H151364   2.476   0.563   4.694  0.6605 -0.2330  0.2300
 9983TIP3    H251365   2.461   0.551   4.845 -0.2911  0.9877  0.2572
 9984TIP3   OH251366   4.318   3.762   3.940 -0.0827 -0.1525 -0.3842
 9984TIP3    H151367   4.224   3.761   3.925 -0.3202 -0.7486  1.0058
 9984TIP3    H251368   4.328   3.759   4.035  1.3502 -1.4991 -0.5260
 9985TIP3   OH251369   4.301   3.670   5.959  0.0015 -0.2346  0.0409
 9985TIP3    H151370   4.375   3.731   5.956  0.2769 -0.5648  0.0065
 9985TIP3    H251371   4.239   3.711   6.019  0.1120  0.1577 -0.1070
 9986TIP3   OH251372   5.027   1.996  16.120  0.6119 -0.7674 -0.3149
 9986TIP3    H151373   5.031   1.986  16.024  1.6743 -1.3896 -0.2199
 9986TIP3    H251374   5.111   2.034  16.144  0.7583 -1.5407  0.4662
 9987TIP3   OH251375   2.741   2.645  15.552 -0.0335  0.3934 -0.4932
 9987TIP3    H151376   2.685   2.720  15.571  0.1107  0.4224 -0.1706
 9987TIP3    H251377   2.762   2.609  15.638  0.8330  0.6731 -0.5728
 9988TIP3   OH251378   2.565   2.844   5.602  0.1190  0.4757  0.4948
 9988TIP3    H151379   2.598   2.764   5.559 -0.6939  0.2275  0.3216
 9988TIP3    H251380   2.574   2.911   5.535 -2.4673 -0.1894 -0.6455
 9989TIP3   OH251381   2.533   6.231   2.260 -0.3150 -0.5645 -0.2246
 9989TIP3    H151382   2.446   6.266   2.240 -0.6202 -0.1135  1.7349
 9989TIP3    H251383   2.547   6.253   2.352  1.9856 -0.4113 -0.5607
 9990TIP3   OH251384   1.968   2.512  16.110  0.1328  0.2225 -0.5919
 9990TIP3    H151385   2.030   2.568  16.063 -0.3265  0.1864 -1.2576
 9990TIP3    H251386   1.941   2.447  16.046 -0.6570  0.2867 -0.3333
 9991TIP3   OH251387   3.228   2.200  16.045 -0.0259 -0.2797 -0.0128
 9991TIP3    H151388   3.165   2.128  16.039 -1.1947  0.3958  2.5299
 9991TIP3    H251389   3.232   2.219  16.139  3.1557  0.4827 -0.2115
 9992TIP3   OH251390   3.862   5.002   3.753 -0.1206 -0.0823  0.5568
 9992TIP3    H151391   3.794   4.999   3.820  0.0626 -2.3585  0.7420
 9992TIP3    H251392   3.944   4.987   3.801  0.1871 -0.1840  0.0126
 9993TIP3   OH251393   6.128   0.210   2.747  0.0492  0.4278  0.5117
 9993TIP3    H151394   6.220   0.211   2.723  0.5492  0.6667  2.2405
 9993TIP3    H251395   6.102   0.302   2.743 -0.3526  0.2713 -0.7443
 9994TIP3   OH251396   5.041   3.514   4.790  0.3887 -0.1690  0.8530
 9994TIP3    H151397   5.028   3.609   4.797 -1.0701 -0.2778 -0.0136
 9994TIP3    H251398   5.038   3.483   4.880  0.3640  0.5497  1.1081
 9995TIP3   OH251399   2.605   5.993  14.091 -0.1095  0.8103 -0.0968
 9995TIP3    H151400   2.585   6.087  14.098  2.0125  1.3943 -0.9137
 9995TIP3    H251401   2.701   5.990  14.094 -0.0851 -1.2117 -1.6060
 9996TIP3   OH251402   1.566   2.852   2.957 -0.4344  0.3194  0.4284
 9996TIP3    H151403   1.571   2.779   3.020  1.1325 -0.5907 -0.6794
 9996TIP3    H251404   1.489   2.832   2.904  0.7444 -1.3336 -0.7460
 9997TIP3   OH251405   1.384   2.219  14.193  0.2526 -0.4220 -0.4349
 9997TIP3    H151406   1.424   2.139  14.228  1.1014  0.6745  1.2503
 9997TIP3    H251407   1.347   2.263  14.269 -0.3697  0.7180 -1.3560
 9998TIP3   OH251408   2.412   5.313   2.013  0.3928  0.4092  0.1310
 9998TIP3    H151409   2.323   5.336   1.985  0.0458 -0.3974  0.5237
 9998TIP3    H251410   2.402   5.226   2.053  1.4367  0.1181 -0.2235
 9999TIP3   OH251411   1.267   3.962  13.762 -0.2415  0.2179  0.1453
 9999TIP3    H151412   1.302   4.041  13.721 -2.1814  0.6332 -0.8757
 9999TIP3    H251413   1.175   3.983  13.779 -0.5280 -1.4416  0.8741
10000TIP3   OH251414   3.496   2.863  16.969 -0.1724  0.9794 -0.0354
10000TIP3    H151415   3.482   2.906  17.053 -0.9236 -0.7247  0.7635
10000TIP3    H251416   3.555   2.790  16.988  1.0047  1.5306 -1.3297
10001TIP3   OH251417   0.315   0.915   4.431 -0.2977  0.3973  0.3057
10001TIP3    H151418   0.288   0.929   4.522 -2.0499  0.7451 -0.2181
10001TIP3    H251419   0.366   0.993   4.409 -0.9840  0.9373  0.6032
10002TIP3   OH251420   3.322   2.032   2.427  0.1659 -0.1931 -0.6201
10002TIP3    H151421   3.263   1.958   2.407 -0.7882  0.4327 -0.2185
10002TIP3    H251422   3.406   2.006   2.391  0.2087 -2.0703  0.6545
10003TIP3   OH251423   0.091   3.691   4.562  0.0582 -0.6433 -0.1019
10003TIP3    H151424   0.153   3.618   4.564  0.2556 -0.4825  1.4920
10003TIP3    H251425   0.146   3.768   4.550  0.0171 -0.6336 -0.2222
10004TIP3   OH251426   1.469   3.026  12.561  0.0243 -0.0881  0.3078
10004TIP3    H151427   1.445   2.934  12.574  2.8869 -0.8405  0.9317
10004TIP3    H251428   1.435   3.071  12.640 -0.6160 -0.7502  0.4195
10005TIP3   OH251429   0.971   1.584   3.392 -0.6159 -0.2084 -0.1596
10005TIP3    H151430   1.035   1.646   3.358 -0.0588 -0.5103  0.3230
10005TIP3    H251431   0.964   1.604   3.485 -0.4389 -0.8484 -0.0015
10006TIP3   OH251432   5.525   6.114  13.978  0.3127  0.1180  0.1310
10006TIP3    H151433   5.568   6.069  14.051 -1.2566 -0.9148  0.4722
10006TIP3    H251434   5.591   6.114  13.908  0.7425 -1.8429  0.4622
10007TIP3   OH251435   2.242   0.170  11.825  0.0634 -0.3301  0.3687
10007TIP3    H151436   2.246   0.266  11.824 -0.4080 -0.3072 -0.0679
10007TIP3    H251437   2.331   0.142  11.808  0.4540  0.0160  1.6684
10008TIP3   OH251438   6.208   3.662   0.807 -0.0231  0.2642  0.1915
10008TIP3    H151439   6.231   3.690   0.718  0.7519 -2.0979 -0.4284
10008TIP3    H251440   6.288   3.675   0.857  0.0667 -0.0055  0.1193
10009TIP3   OH251441   3.031   3.113  12.625  0.1512 -0.1710  0.1198
10009TIP3    H151442   2.962   3.077  12.570  1.6301  0.5585 -2.3736
10009TIP3    H251443   2.991   3.189  12.668 -0.6898  0.0782 -1.0521
10010TIP3   OH251444   3.620   3.250   2.797  0.6805  1.1112 -0.8311
10010TIP3    H151445   3.706   3.208   2.794 -0.6306 -2.0751  0.8339
10010TIP3    H251446   3.638   3.340   2.823  3.5101  0.6331 -0.8126
10011TIP3   OH251447   2.923   0.554   0.153  0.2708 -0.1964 -0.1284
10011TIP3    H151448   2.908   0.475   0.205 -0.2777  0.3886  0.6420
10011TIP3    H251449   3.014   0.548   0.125  0.9972  0.0916  2.0140
10012TIP3   OH251450   4.237   4.200  14.412  0.4516 -0.1735  0.0675
10012TIP3    H151451   4.267   4.291  14.414  1.3874 -0.4647 -0.1292
10012TIP3    H251452   4.299   4.156  14.354 -2.6940 -0.0217 -3.8217
10013TIP3   OH251453   6.276   5.496   4.676 -0.0761 -0.1931  0.2164
10013TIP3    H151454   6.266   5.431   4.607  0.6383  0.6448 -0.6927
10013TIP3    H251455   6.187   5.516   4.704 -0.5662  1.1839 -2.1070
10014TIP3   OH251456   6.432   4.837   3.940 -0.1121 -0.1794 -0.5556
10014TIP3    H151457   6.472   4.750   3.948 -0.7573 -0.4894 -0.6347
10014TIP3    H251458   6.452   4.880   4.023  1.2373  0.0434 -0.9682
10015TIP3   OH251459   1.362   0.205  17.189 -0.2236 -0.6801 -0.1888
10015TIP3    H151460   1.394   0.116  17.174 -1.5664 -1.5275  1.6736
10015TIP3    H251461   1.390   0.227  17.278  2.8210  2.0703 -1.6007
10016TIP3   OH251462   0.139   6.217  13.908  0.3107  0.4649 -0.0894
10016TIP3    H151463   0.062   6.225  13.964 -0.4178  0.2727 -1.0523
10016TIP3    H251464   0.159   6.307  13.883  1.4320  0.7057  1.4854
10017TIP3   OH251465   3.879   5.208   1.963 -0.9641  0.3216 -0.1937
10017TIP3    H151466   3.931   5.140   2.006 -1.3793 -0.0250 -0.2321
10017TIP3    H251467   3.799   5.163   1.934 -0.9782  0.6906 -0.7558
10018TIP3   OH251468   5.055   6.339  13.061  0.2742 -0.1290  0.3104
10018TIP3    H151469   5.075   6.342  13.155 -2.2453  0.6669  0.8872
10018TIP3    H251470   5.030   6.428  13.038  0.3400 -0.4284 -1.0173
10019TIP3   OH251471   2.595   1.497   6.086 -0.7444  0.3032  0.2268
10019TIP3    H151472   2.598   1.550   6.166  2.2227 -0.4462  0.7048
10019TIP3    H251473   2.671   1.525   6.036 -2.4393  0.6290 -2.3431
10020TIP3   OH251474   5.105   4.379  16.668 -0.1557 -0.0030  0.2433
10020TIP3    H151475   5.141   4.372  16.757 -0.5625  0.1175  0.4178
10020TIP3    H251476   5.099   4.473  16.653 -2.2156  0.0152  0.9558
10021TIP3   OH251477   4.427   4.336  14.937 -0.2930  0.7729 -0.1934
10021TIP3    H151478   4.434   4.374  15.025 -0.4605  1.8737 -0.6354
10021TIP3    H251479   4.511   4.292  14.923 -0.5655 -0.0851  0.8180
10022TIP3   OH251480   6.280   3.303  14.260 -0.2792  0.0385 -0.6953
10022TIP3    H151481   6.257   3.368  14.194  2.1688  1.0968 -0.5937
10022TIP3    H251482   6.196   3.282  14.302 -1.5645  0.9516 -2.6463
10023TIP3   OH251483   6.580   0.182   6.198  0.0224 -0.2483 -0.1083
10023TIP3    H151484   6.639   0.254   6.224 -0.4670 -0.1072  0.6392
10023TIP3    H251485   6.630   0.103   6.217 -0.3855 -0.1561  1.4801
10024TIP3   OH251486   3.171   4.554   1.008  0.8050 -0.1676  0.3051
10024TIP3    H151487   3.132   4.492   1.068 -0.4927 -1.4457 -1.7264
10024TIP3    H251488   3.233   4.502   0.956  1.4145  0.7411  0.0962
10025TIP3   OH251489   0.254   6.570  11.832 -0.0533  0.4858 -0.4660
10025TIP3    H151490   0.283   6.491  11.879 -0.0061 -0.2515 -1.6795
10025TIP3    H251491   0.237   6.539  11.742 -0.3360  1.8013 -0.8829
10026TIP3   OH251492   3.831   0.176   2.339  0.0034  0.4567  0.0268
10026TIP3    H151493   3.861   0.157   2.250 -1.5270  1.4197 -0.7476
10026TIP3    H251494   3.911   0.194   2.388  0.8036  2.8094 -1.9088
10027TIP3   OH251495   5.080   3.003  16.738 -0.1285 -0.4809  1.1192
10027TIP3    H151496   5.040   2.951  16.808 -0.5175  0.1364  1.3677
10027TIP3    H251497   5.087   3.091  16.776 -0.5266 -0.0944  0.3144
10028TIP3   OH251498   3.828   1.952   2.890 -0.1443  0.1957  0.5219
10028TIP3    H151499   3.902   1.943   2.951 -1.1208  0.2613  1.7701
10028TIP3    H251500   3.834   2.042   2.859  3.2131 -1.0738 -3.4124
10029TIP3   OH251501   2.439   6.033  15.651  0.6241  0.7569  0.7113
10029TIP3    H151502   2.403   5.948  15.625  0.4635  0.9773  0.2122
10029TIP3    H251503   2.372   6.070  15.709  1.2475  0.0077  1.9440
10030TIP3   OH251504   2.986   6.521  16.781  0.1857 -0.3916 -0.7479
10030TIP3    H151505   2.891   6.522  16.784  0.1986  0.3074 -0.3288
10030TIP3    H251506   3.014   6.527  16.872  0.6284 -0.3958 -0.8788
10031TIP3   OH251507   3.978   5.014  15.450 -0.4820 -0.1259 -0.2528
10031TIP3    H151508   4.025   5.076  15.395 -1.8852  0.9784 -0.2484
10031TIP3    H251509   3.901   4.989  15.400 -0.4705 -1.1040  0.1729
10032TIP3   OH251510   1.121   5.692   5.365  0.1104 -0.0505 -0.4022
10032TIP3    H151511   1.206   5.694   5.409 -0.8292 -1.9738  1.7120
10032TIP3    H251512   1.128   5.759   5.297  2.0251  2.5506  2.0733
10033TIP3   OH251513   1.560   6.479  13.464 -0.0459  0.0518 -0.9693
10033TIP3    H151514   1.482   6.466  13.519 -0.5627  2.9815 -0.8536
10033TIP3    H251515   1.627   6.510  13.524  0.0896  1.0587 -1.6287
10034TIP3   OH251516   4.155   6.222  16.649  0.5308  0.4042 -0.3840
10034TIP3    H151517   4.115   6.169  16.580 -1.1798  2.2229 -0.9055
10034TIP3    H251518   4.119   6.188  16.730 -0.6941  0.8424 -0.7218
10035TIP3   OH251519   4.133   1.799   3.222 -0.0456 -0.2116 -0.5450
10035TIP3    H151520   4.096   1.724   3.268  2.4203 -1.5686 -0.5884
10035TIP3    H251521   4.197   1.835   3.283  0.5280  0.3547 -1.4601
10036TIP3   OH251522   2.653   4.450   0.776  0.2768  0.4514  1.2403
10036TIP3    H151523   2.561   4.424   0.765  0.4224  0.2432  0.4999
10036TIP3    H251524   2.693   4.376   0.822  0.7461 -0.8344 -1.0745
10037TIP3   OH251525   2.980   1.704   1.766 -0.0346 -0.0901  0.0660
10037TIP3    H151526   3.068   1.723   1.798 -0.2740  1.8225 -0.3307
10037TIP3    H251527   2.994   1.657   1.683  0.5856 -0.5186  0.4023
10038TIP3   OH251528   4.739   3.307   2.266 -0.1359  0.1750  0.0623
10038TIP3    H151529   4.781   3.252   2.200 -1.0322 -0.8095  0.2786
10038TIP3    H251530   4.645   3.292   2.254 -0.3985  1.4675  0.3109
10039TIP3   OH251531   5.536   5.685   4.645 -0.1475 -0.2630  0.4716
10039TIP3    H151532   5.588   5.618   4.600 -0.1017 -0.9559  1.5289
10039TIP3    H251533   5.538   5.659   4.737 -0.9165  0.6777  0.7661
10040TIP3   OH251534   5.994   6.523   1.623  0.2189  0.1627 -0.2473
10040TIP3    H151535   5.947   6.460   1.568  0.5512  0.1702 -0.5398
10040TIP3    H251536   5.935   6.598   1.628 -0.7571 -0.6549  1.1668
10041TIP3   OH251537   0.721   6.208  16.488  0.1362 -0.0718  0.2084
10041TIP3    H151538   0.728   6.303  16.484  2.0495 -0.2178 -1.9168
10041TIP3    H251539   0.771   6.184  16.566 -2.0789  0.6817  1.9860
10042TIP3   OH251540   5.928   2.852   3.840  0.1744 -0.2027 -0.8255
10042TIP3    H151541   5.848   2.809   3.872  2.6998 -3.0464  2.5601
10042TIP3    H251542   5.972   2.784   3.790  1.8388  0.1790  0.0519
10043TIP3   OH251543   2.137   0.178   1.146  0.7368 -0.3403 -0.1295
10043TIP3    H151544   2.184   0.177   1.230  0.5602 -0.1705 -0.0262
10043TIP3    H251545   2.062   0.237   1.162  0.2009 -1.0033 -0.1305
10044TIP3   OH251546   5.690   5.513  14.211 -0.0303  0.6380 -0.2749
10044TIP3    H151547   5.709   5.472  14.296  1.6009 -0.5650 -1.1330
10044TIP3    H251548   5.607   5.557  14.223 -0.0278  0.1821  1.8410
10045TIP3   OH251549   2.369   1.517  11.192  0.0898 -0.1877  0.2866
10045TIP3    H151550   2.291   1.488  11.146  0.7169 -0.6270 -0.5227
10045TIP3    H251551   2.433   1.535  11.123 -0.0552  2.5954  0.7668
10046TIP3   OH251552   3.162   3.946   3.406 -0.1068 -0.8322  0.0256
10046TIP3    H151553   3.117   3.889   3.344  1.2942 -1.2308 -0.6538
10046TIP3    H251554   3.169   3.894   3.486  0.5659 -1.3574 -0.3758
10047TIP3   OH251555   6.650   1.506  15.423  0.5058  0.2707 -0.1918
10047TIP3    H151556   6.558   1.499  15.449  0.7626 -0.9868  0.4068
10047TIP3    H251557   6.648   1.503  15.327 -0.0582  0.0275 -0.1755
10048TIP3   OH251558   6.383   6.734  12.403 -0.0121 -0.3953 -0.7266
10048TIP3    H151559   6.376   6.712  12.310  0.9394 -0.5766 -0.7678
10048TIP3    H251560   6.385   6.829  12.404 -2.7614 -0.2579 -0.6552
10049TIP3   OH251561   3.027   0.469   2.457 -0.0797 -0.0854 -0.0895
10049TIP3    H151562   2.985   0.488   2.541 -0.1811 -0.7148  0.0095
10049TIP3    H251563   2.954   0.452   2.397 -0.0075 -2.4056  0.3738
10050TIP3   OH251564   1.095   6.241   2.306  0.0497 -0.5979 -0.4103
10050TIP3    H151565   1.038   6.295   2.251 -0.9383  0.6677  1.7207
10050TIP3    H251566   1.183   6.256   2.272 -0.6073 -0.6305 -2.2125
10051TIP3   OH251567   1.608   6.213   1.145 -0.4896 -0.5145  0.0842
10051TIP3    H151568   1.602   6.225   1.051 -0.7003 -3.0200 -0.2968
10051TIP3    H251569   1.519   6.229   1.177 -0.4272  0.2985 -0.1332
10052TIP3   OH251570   2.661   2.453  14.619 -0.2177  0.1645 -0.1287
10052TIP3    H151571   2.619   2.376  14.581 -1.2004 -0.7875  2.6396
10052TIP3    H251572   2.711   2.419  14.693  0.9073  1.9889  0.0036
10053TIP3   OH251573   4.488   5.133  16.246 -0.4358 -0.5257 -0.0106
10053TIP3    H151574   4.540   5.199  16.292  0.4256 -0.3891 -1.1337
10053TIP3    H251575   4.535   5.117  16.164 -0.6474 -2.4946  0.1887
10054TIP3   OH251576   5.478   0.812   4.769  0.1473 -0.0882 -0.2290
10054TIP3    H151577   5.554   0.754   4.767  0.1743 -0.1095  0.7144
10054TIP3    H251578   5.452   0.812   4.861 -0.2658  0.8616 -0.3430
10055TIP3   OH251579   1.570   2.500   1.844  0.0439  0.0855 -0.8994
10055TIP3    H151580   1.610   2.417   1.867  0.5448  0.1654 -1.4667
10055TIP3    H251581   1.476   2.481   1.837  0.0810 -0.2854 -0.4023
10056TIP3   OH251582   3.848   0.229   0.690 -0.5165 -0.2299  0.0853
10056TIP3    H151583   3.823   0.310   0.645 -2.0428  0.3455  1.8260
10056TIP3    H251584   3.887   0.259   0.772 -0.0349 -1.2603  0.2469
10057TIP3   OH251585   4.943   5.932  15.610 -0.5228 -0.1951 -0.6452
10057TIP3    H151586   4.873   5.994  15.631 -0.8520 -0.8766  0.3373
10057TIP3    H251587   5.014   5.986  15.576 -0.8810  0.6898 -0.0124
10058TIP3   OH251588   4.653   3.554   2.587 -0.0313 -0.1224  0.1722
10058TIP3    H151589   4.717   3.488   2.560  1.5887  1.9263 -1.3064
10058TIP3    H251590   4.694   3.599   2.661 -0.2295  0.5471 -0.1239
10059TIP3   OH251591   2.786   1.489  11.962 -0.2717  0.8391  0.3278
10059TIP3    H151592   2.829   1.491  11.876 -1.7913 -2.1164 -0.6417
10059TIP3    H251593   2.836   1.426  12.013 -1.6985 -0.5357  0.1235
10060TIP3   OH251594   1.138   2.534   5.957 -0.3119 -0.0816 -0.1851
10060TIP3    H151595   1.066   2.592   5.931  2.0871  3.5559  0.4540
10060TIP3    H251596   1.187   2.521   5.877 -1.1520 -1.8586 -0.4468
10061TIP3   OH251597   5.972   4.382   5.033  0.4237  0.3328 -0.1088
10061TIP3    H151598   6.061   4.405   5.061 -0.0296  1.0356  0.8159
10061TIP3    H251599   5.975   4.385   4.938  1.5720 -0.3730 -0.1085
10062TIP3   OH251600   1.425   1.669   5.435  0.2312  0.0255 -0.2836
10062TIP3    H151601   1.437   1.634   5.347 -1.2760  0.7585 -0.8071
10062TIP3    H251602   1.443   1.763   5.426  0.8851 -0.0242  0.3777
10063TIP3   OH251603   3.631   1.462   5.096  0.2740 -0.1076 -0.0850
10063TIP3    H151604   3.727   1.461   5.098  0.2627 -0.3056  0.3424
10063TIP3    H251605   3.605   1.488   5.185 -0.0542  0.8200 -0.4327
10064TIP3   OH251606   0.641   5.251   0.113  0.6175 -0.0009 -0.1325
10064TIP3    H151607   0.726   5.209   0.099 -0.3774 -2.4160  0.5049
10064TIP3    H251608   0.654   5.303   0.192  1.8212  0.6865 -0.7525
10065TIP3   OH251609   5.660   1.715   1.263 -0.0376 -1.0271 -0.5645
10065TIP3    H151610   5.579   1.766   1.259  1.2878  1.1703 -2.3512
10065TIP3    H251611   5.669   1.692   1.355  0.0055  3.4990  0.8344
10066TIP3   OH251612   2.288   6.064   1.052 -0.6255 -0.0349 -0.6817
10066TIP3    H151613   2.370   6.031   1.089 -0.2125 -0.1689 -1.6621
10066TIP3    H251614   2.305   6.068   0.958 -1.9833 -0.7542 -0.9899
10067TIP3   OH251615   0.387   2.065   2.060  0.1336 -0.4831 -0.2498
10067TIP3    H151616   0.408   2.058   2.153  0.7274 -1.1772 -0.4236
10067TIP3    H251617   0.467   2.035   2.015 -0.5433 -1.2667 -0.9655
10068TIP3   OH251618   4.040   6.170  13.171  0.5708  0.2557 -0.0582
10068TIP3    H151619   4.031   6.265  13.180  1.9942  0.4829 -0.7572
10068TIP3    H251620   4.037   6.137  13.261 -0.2559  0.9141  0.1673
10069TIP3   OH251621   1.910   1.069   2.787 -0.1598 -0.1694 -0.5210
10069TIP3    H151622   1.836   1.061   2.726 -0.5863  1.3086 -0.2194
10069TIP3    H251623   1.956   1.147   2.758 -0.5237  0.7165  1.2177
10070TIP3   OH251624   3.348   0.141   5.047 -0.4151  0.5006 -0.1744
10070TIP3    H151625   3.356   0.074   5.115  0.2558  3.1914  2.6408
10070TIP3    H251626   3.257   0.171   5.054 -0.4511  0.5451 -0.7783
10071TIP3   OH251627   4.089   5.979  16.086  0.3232 -0.0568 -0.4090
10071TIP3    H151628   4.107   6.073  16.087  1.3497 -0.2430  0.9268
10071TIP3    H251629   4.011   5.969  16.139 -0.2742  0.1096 -1.2334
10072TIP3   OH251630   4.938   3.721  14.070 -0.4040 -0.5309  0.6243
10072TIP3    H151631   4.967   3.736  13.981  0.9021  3.6460  1.4991
10072TIP3    H251632   5.018   3.721  14.122 -1.1731 -2.3104  1.9027
10073TIP3   OH251633   0.439   5.469   1.503  0.4316  0.5435 -0.0420
10073TIP3    H151634   0.485   5.553   1.496 -0.0550  0.9570  1.3148
10073TIP3    H251635   0.481   5.425   1.577 -0.3210  0.2704  0.2338
10074TIP3   OH251636   2.570   4.351   1.177  0.5209 -0.3517  0.4316
10074TIP3    H151637   2.561   4.329   1.085 -0.2785 -0.6338  0.5647
10074TIP3    H251638   2.485   4.327   1.216  0.7353  0.0479  1.1752
10075TIP3   OH251639   5.997   6.204   1.345  0.0496 -0.2491 -0.1041
10075TIP3    H151640   5.947   6.210   1.426  1.6862 -0.9266  0.9771
10075TIP3    H251641   5.994   6.111   1.321  1.2446 -0.3929  0.2742
10076TIP3   OH251642   1.824   6.464  16.717 -0.1423  0.1969  0.5674
10076TIP3    H151643   1.755   6.458  16.783  0.2626  0.5216  1.0173
10076TIP3    H251644   1.905   6.471  16.766  0.1793  0.2740  0.0355
10077TIP3   OH251645   3.147   0.497   6.500 -0.7716  0.0752  0.3616
10077TIP3    H151646   3.186   0.422   6.544  1.4253  1.9171  1.7534
10077TIP3    H251647   3.060   0.505   6.540 -0.4735 -0.8311  1.2438
10078TIP3   OH251648   0.212   1.806   4.049 -0.4356 -0.2527 -0.2865
10078TIP3    H151649   0.122   1.837   4.063 -0.0840  0.8256 -0.2671
10078TIP3    H251650   0.257   1.830   4.130 -0.3960 -1.9274  0.2307
10079TIP3   OH251651   4.394   1.207   4.381 -0.0346 -0.2800 -0.3991
10079TIP3    H151652   4.465   1.256   4.339 -0.6615  0.9202 -0.1072
10079TIP3    H251653   4.367   1.263   4.454  0.7239 -2.1002  1.3752
10080TIP3   OH251654   0.298   5.717  11.432 -0.6855 -0.1820  0.4197
10080TIP3    H151655   0.385   5.734  11.467 -0.7195 -1.6151  1.2845
10080TIP3    H251656   0.304   5.744  11.340  0.7327 -0.4224  0.4115
10081TIP3   OH251657   2.050   3.297  14.952 -0.2613 -0.0837  0.5509
10081TIP3    H151658   2.010   3.383  14.959 -0.5853 -0.1171 -0.7115
10081TIP3    H251659   2.075   3.275  15.042 -0.9958  0.9245  1.0216
10082TIP3   OH251660   3.970   5.105  11.886 -0.4323  0.3487  0.3370
10082TIP3    H151661   3.895   5.050  11.864 -0.8466  0.9000  0.3357
10082TIP3    H251662   3.934   5.194  11.887 -0.0518  0.5059  1.5340
10083TIP3   OH251663   0.134   3.426  13.315 -0.0122  0.2952  0.2910
10083TIP3    H151664   0.093   3.443  13.230  0.9966  2.2219  0.1520
10083TIP3    H251665   0.070   3.458  13.378 -0.3482 -0.2710  0.2550
10084TIP3   OH251666   1.583   1.583  14.093 -0.2556 -0.2409 -0.1474
10084TIP3    H151667   1.607   1.581  14.000  0.7919  0.5443  0.0830
10084TIP3    H251668   1.658   1.544  14.138 -1.0984 -1.3750  0.3262
10085TIP3   OH251669   6.464   1.402  11.484 -0.1196  0.2438  0.1025
10085TIP3    H151670   6.415   1.392  11.402 -1.8250 -0.6287  1.1541
10085TIP3    H251671   6.447   1.321  11.531 -0.5765  1.3981  2.0236
10086TIP3   OH251672   6.368   2.080   0.225 -0.3102 -0.0071 -0.1529
10086TIP3    H151673   6.446   2.135   0.234  0.1881 -0.6841 -0.3041
10086TIP3    H251674   6.369   2.023   0.302 -0.3481 -0.4021 -0.4415
10087TIP3   OH251675   1.128   0.534   5.662  0.0584 -0.3359 -0.2453
10087TIP3    H151676   1.136   0.516   5.569 -1.9290 -0.1901 -0.4775
10087TIP3    H251677   1.216   0.559   5.689  0.5465  0.1865 -2.1905
10088TIP3   OH251678   0.537   6.631  17.148 -0.0860 -0.3245 -0.6424
10088TIP3    H151679   0.499   6.667  17.068 -2.6305  1.1055  1.0755
10088TIP3    H251680   0.551   6.707  17.204  0.4474 -1.4037  0.7466
10089TIP3   OH251681   0.992   5.690  11.899 -0.0507 -0.1835  0.3267
10089TIP3    H151682   0.928   5.760  11.886  0.2106  0.2052  1.0583
10089TIP3    H251683   1.067   5.733  11.940  0.0197 -0.9412  1.0193
10090TIP3   OH251684   2.370   6.071  15.003  0.1453 -0.4869  0.0047
10090TIP3    H151685   2.348   6.001  15.065 -2.0447  0.6051  0.5603
10090TIP3    H251686   2.421   6.134  15.055 -1.5126  0.3278  0.7164
10091TIP3   OH251687   1.852   5.874   1.543 -0.7200 -0.1508 -0.0604
10091TIP3    H151688   1.931   5.823   1.527 -0.7794  0.0714 -1.1483
10091TIP3    H251689   1.808   5.829   1.615 -0.4617 -1.2728 -0.5884
10092TIP3   OH251690   1.343   1.775   5.159  0.4553 -0.4341  0.9381
10092TIP3    H151691   1.341   1.871   5.160 -0.0874 -0.4015 -0.5603
10092TIP3    H251692   1.313   1.751   5.072  3.7278 -1.9262  0.0625
10093TIP3   OH251693   5.800   6.286  11.331 -0.0168  0.2605  0.2828
10093TIP3    H151694   5.724   6.315  11.280 -0.8269 -0.4266  1.0492
10093TIP3    H251695   5.840   6.218  11.277 -0.7592 -0.3358  0.4651
10094TIP3   OH251696   2.813   0.561  15.710 -0.2568  0.1990  0.5835
10094TIP3    H151697   2.818   0.473  15.675  1.3690  0.9655 -1.2997
10094TIP3    H251698   2.739   0.559  15.772 -1.7160 -1.8570 -1.1080
10095TIP3   OH251699   5.207   3.474  15.275  0.0294  0.3320  0.3313
10095TIP3    H151700   5.148   3.532  15.322 -0.6311  0.3488 -0.5013
10095TIP3    H251701   5.195   3.388  15.316 -2.0886 -0.1224 -1.0865
10096TIP3   OH251702   4.372   4.709   5.365  0.2023  0.0377  0.3501
10096TIP3    H151703   4.441   4.757   5.412  0.8632 -0.8025  0.2767
10096TIP3    H251704   4.368   4.624   5.410 -1.7296  0.5444  1.2008
10097TIP3   OH251705   6.192   5.907  11.946  0.3733  0.6614  0.2971
10097TIP3    H151706   6.149   5.957  11.877  2.3100  3.0367  0.6612
10097TIP3    H251707   6.191   5.817  11.915 -0.9999  1.2741 -1.6369
10098TIP3   OH251708   4.677   0.535  11.624 -0.4360  1.3830 -0.2198
10098TIP3    H151709   4.696   0.522  11.717  0.5322  0.3979 -0.5298
10098TIP3    H251710   4.586   0.509  11.614 -0.3611  0.8872  0.3470
10099TIP3   OH251711   0.513   0.970   3.227  0.2259 -0.6614  0.7405
10099TIP3    H151712   0.540   0.918   3.151 -1.8863 -1.8706  0.7357
10099TIP3    H251713   0.424   0.998   3.206  0.9793  2.3870  1.1137
10100TIP3   OH251714   4.829   3.725   2.081  0.4363 -0.1172  0.5432
10100TIP3    H151715   4.829   3.634   2.110  1.2969 -0.0393  0.8190
10100TIP3    H251716   4.856   3.721   1.989  0.3135 -0.1556  0.5093
10101TIP3   OH251717   1.540   1.107   0.665 -0.5286 -0.7089  0.0756
10101TIP3    H151718   1.559   1.106   0.759  1.2719  0.1583 -0.2223
10101TIP3    H251719   1.540   1.015   0.639  1.2794 -0.8842  0.5560
10102TIP3   OH251720   2.314   0.407  13.159 -1.0526 -0.4102 -0.0251
10102TIP3    H151721   2.381   0.379  13.222  1.3775  1.6800 -1.4553
10102TIP3    H251722   2.255   0.332  13.153  1.8260 -2.9741  0.4756
10103TIP3   OH251723   3.638   2.325   4.593 -0.4069 -0.1158  0.3862
10103TIP3    H151724   3.651   2.248   4.537 -0.9155  0.0164  0.0792
10103TIP3    H251725   3.564   2.371   4.553  0.3719  0.9415  0.1358
10104TIP3   OH251726   4.438   3.215   0.186 -0.1327  0.5301  0.5855
10104TIP3    H151727   4.499   3.210   0.259  1.0701  0.9075 -0.3768
10104TIP3    H251728   4.366   3.270   0.218  0.6877  1.2199  1.2633
10105TIP3   OH251729   5.843   0.919   4.408  0.2843 -0.3660 -0.3931
10105TIP3    H151730   5.827   0.913   4.502 -1.1885  0.9538 -0.5112
10105TIP3    H251731   5.936   0.937   4.400  0.1005  1.3662  0.9330
10106TIP3   OH251732   0.570   3.301  14.543 -0.1898  0.2753 -0.0395
10106TIP3    H151733   0.542   3.391  14.528 -0.1928  0.3783  0.5390
10106TIP3    H251734   0.514   3.248  14.487 -0.4917  0.6020 -0.0490
10107TIP3   OH251735   6.767   1.612   5.638 -0.3534  0.0619 -0.2554
10107TIP3    H151736   6.771   1.628   5.732  0.1927 -0.2003 -0.2263
10107TIP3    H251737   6.715   1.532   5.629  0.2112 -0.3259 -0.1185
10108TIP3   OH251738   1.345   2.422   4.061 -0.4601  0.0020 -0.3746
10108TIP3    H151739   1.353   2.387   3.973 -0.4250 -0.5137 -0.1729
10108TIP3    H251740   1.261   2.468   4.062 -0.4675 -0.0084 -0.6683
10109TIP3   OH251741   2.149   2.853   0.697  0.2111 -0.3848 -0.0918
10109TIP3    H151742   2.118   2.941   0.715  0.7877 -0.2347  0.2140
10109TIP3    H251743   2.213   2.864   0.627 -1.2819 -0.8421 -1.5895
10110TIP3   OH251744   1.035   0.880   3.519 -0.1002  0.3364  0.6432
10110TIP3    H151745   1.085   0.951   3.479  0.9575 -1.5430 -1.5594
10110TIP3    H251746   0.976   0.924   3.580 -1.1565  3.3713 -2.2786
10111TIP3   OH251747   6.380   0.705  13.350  0.0674  0.2003  0.8301
10111TIP3    H151748   6.451   0.723  13.411 -0.4296  0.9310  1.2062
10111TIP3    H251749   6.390   0.772  13.281  0.4582 -0.4444  0.2434
10112TIP3   OH251750   5.347   0.903   1.975  0.4423 -0.2074 -0.1318
10112TIP3    H151751   5.308   0.889   1.889  1.9413 -0.7760 -0.7525
10112TIP3    H251752   5.356   0.998   1.983 -0.1648 -0.1293 -0.3884
10113TIP3   OH251753   5.779   1.093  11.883 -0.2273  0.1097  0.8416
10113TIP3    H151754   5.844   1.041  11.930  1.2186  0.4172 -0.7298
10113TIP3    H251755   5.761   1.042  11.804  1.0708  1.8264 -0.6332
10114TIP3   OH251756   1.911   3.445   4.125 -0.6972 -0.5296 -0.0891
10114TIP3    H151757   2.000   3.468   4.099 -0.8191  1.4320  1.0623
10114TIP3    H251758   1.855   3.493   4.064 -0.9536  0.1430  0.6576
10115TIP3   OH251759   0.822   5.366   1.919 -0.2118  0.3107 -0.5499
10115TIP3    H151760   0.856   5.345   2.006  0.7730 -2.9676 -1.6056
10115TIP3    H251761   0.898   5.397   1.870 -0.6844  1.7639 -0.4018
10116TIP3   OH251762   1.057   1.006  11.170 -0.7052 -0.5236  0.1706
10116TIP3    H151763   1.106   1.087  11.185 -1.1920  0.2028 -1.8512
10116TIP3    H251764   1.024   0.982  11.257 -1.5997  2.1454  0.6999
10117TIP3   OH251765   0.429   6.250  17.078 -0.4356 -0.5245  0.4033
10117TIP3    H151766   0.341   6.281  17.059 -0.2700  0.9077  1.8332
10117TIP3    H251767   0.421   6.201  17.160 -0.2550 -2.3529 -0.6050
10118TIP3   OH251768   2.182   5.308   2.220  0.3044 -0.6374  0.0084
10118TIP3    H151769   2.202   5.399   2.201  0.2066  0.3850  3.8970
10118TIP3    H251770   2.099   5.292   2.175  0.4734  1.0700 -1.0133
10119TIP3   OH251771   5.390   4.724  16.535 -0.4248  0.0129  0.5841
10119TIP3    H151772   5.374   4.785  16.464 -0.0902 -1.3378 -0.7077
10119TIP3    H251773   5.317   4.662  16.530 -0.6107  0.1208  1.6941
10120TIP3   OH251774   0.100   1.376   2.281  0.3990 -0.1732 -0.1475
10120TIP3    H151775   0.154   1.320   2.225  0.5149  0.7513 -0.9971
10120TIP3    H251776   0.158   1.403   2.352  0.3274 -1.1440  0.3010
10121TIP3   OH251777   2.452   3.396  12.455 -0.8573 -0.2345  0.0283
10121TIP3    H151778   2.425   3.304  12.461  0.2225 -0.7732 -2.0603
10121TIP3    H251779   2.548   3.392  12.457 -0.7838  0.7433 -0.7740
10122TIP3   OH251780   2.272   5.588   3.906 -0.0091  0.3534 -0.1900
10122TIP3    H151781   2.331   5.626   3.840  0.2526  0.0280 -0.1466
10122TIP3    H251782   2.260   5.498   3.877  1.1171 -0.1697  0.8805
10123TIP3   OH251783   1.591   0.904   1.787  0.2931  0.2042  0.7203
10123TIP3    H151784   1.661   0.883   1.849  1.1688  1.6641  0.2716
10123TIP3    H251785   1.517   0.852   1.817  1.5838 -1.5154  1.1219
10124TIP3   OH251786   1.224   0.552   2.955 -0.1032  0.0168 -0.0550
10124TIP3    H151787   1.278   0.531   3.032 -1.0071  0.4749  0.7229
10124TIP3    H251788   1.272   0.514   2.882 -0.1115 -2.0619  0.9251
10125TIP3   OH251789   1.747   5.513  15.015  0.3891  0.7929 -0.1501
10125TIP3    H151790   1.842   5.509  15.010  0.6066  0.0367  2.5771
10125TIP3    H251791   1.717   5.442  14.958  1.5322  0.1927 -0.0339
10126TIP3   OH251792   3.119   5.173   1.052  0.6096  0.3120  0.5202
10126TIP3    H151793   3.114   5.251   0.996  0.0236  0.4959  0.8225
10126TIP3    H251794   3.208   5.175   1.087  0.9643  0.2198 -0.3675
10127TIP3   OH251795   5.373   2.760  11.826  0.3514  0.0940  0.3381
10127TIP3    H151796   5.429   2.834  11.802 -0.3908  0.4497 -0.3615
10127TIP3    H251797   5.335   2.731  11.743 -0.7005  0.0324  0.8226
10128TIP3   OH251798   4.070   0.264  11.877  0.1040  0.3405 -0.0725
10128TIP3    H151799   4.043   0.179  11.911  1.2444  0.4063  1.1015
10128TIP3    H251800   4.151   0.246  11.829 -0.2209  0.6185 -0.7433
10129TIP3   OH251801   5.807   3.482  16.065 -0.1994 -0.0291  0.4949
10129TIP3    H151802   5.846   3.404  16.107 -2.0775 -2.2715 -1.6060
10129TIP3    H251803   5.879   3.524  16.020  0.7903 -0.8310  1.2772
10130TIP3   OH251804   6.299   1.926  13.007  0.5006 -0.6547 -0.4216
10130TIP3    H151805   6.224   1.871  13.027  0.0246 -0.2202 -0.9861
10130TIP3    H251806   6.271   1.980  12.933  1.8074 -1.4549 -1.5804
10131TIP3   OH251807   4.630   4.193   0.317  0.8801  0.0991  0.7948
10131TIP3    H151808   4.601   4.196   0.408  1.4219  1.0941  0.9502
10131TIP3    H251809   4.722   4.165   0.322  1.0812  0.7104  0.6098
10132TIP3   OH251810   1.070   0.512  11.431  0.1717 -0.1640 -0.2615
10132TIP3    H151811   1.160   0.480  11.422  0.7870  1.6537 -0.9846
10132TIP3    H251812   1.021   0.437  11.466  1.9011 -1.2689 -0.1056
10133TIP3   OH251813   2.832   0.918  13.064  0.0918 -0.4774 -0.1458
10133TIP3    H151814   2.780   0.920  12.983  2.7446 -1.4886 -2.0008
10133TIP3    H251815   2.819   0.830  13.099  0.4371 -0.6803 -0.5260
10134TIP3   OH251816   0.008   0.161  13.341 -0.3986 -0.2273  0.3472
10134TIP3    H151817   0.028   0.154  13.434  0.2045  1.9313  0.4468
10134TIP3    H251818   0.094   0.158  13.298 -0.4837  0.8726  0.0663
10135TIP3   OH251819   1.631   3.514  14.109  0.3953 -0.0602  0.0085
10135TIP3    H151820   1.542   3.536  14.082  0.9140  0.8919 -1.0243
10135TIP3    H251821   1.625   3.425  14.143 -0.9717  0.0483  0.0943
10136TIP3   OH251822   3.865   4.949  12.112 -0.1599 -0.4667 -0.5495
10136TIP3    H151823   3.934   4.956  12.177  0.9699 -1.9271 -1.5299
10136TIP3    H251824   3.860   5.036  12.072 -2.1396  1.0604  2.5846
10137TIP3   OH251825   4.101   0.596   4.853 -0.0295  0.0177  0.3095
10137TIP3    H151826   4.124   0.511   4.817 -0.4170 -0.0159  0.1254
10137TIP3    H251827   4.120   0.658   4.782  1.4001  0.2432  0.8593
10138TIP3   OH251828   5.997   2.107   0.083  0.4104 -0.4859  0.2099
10138TIP3    H151829   5.977   2.080  -0.006  1.3732 -0.7669  0.0664
10138TIP3    H251830   6.047   2.188   0.073 -0.8596  0.3786  0.5712
10139TIP3   OH251831   5.807   1.761  11.335  0.5809  0.1277  0.0416
10139TIP3    H151832   5.766   1.721  11.259 -0.7680 -0.8989  1.2531
10139TIP3    H251833   5.898   1.774  11.309  0.3715 -1.0627 -1.4069
10140TIP3   OH251834   3.054   4.720  13.927 -0.0211  0.1532  0.3949
10140TIP3    H151835   3.092   4.769  13.854 -1.1212  1.2621  0.5231
10140TIP3    H251836   3.033   4.788  13.992 -3.7604 -0.0996 -0.3433
10141TIP3   OH251837   6.423   3.883   0.928 -0.0691  0.5515  0.3088
10141TIP3    H151838   6.380   3.963   0.958 -0.3751  0.1012  1.0954
10141TIP3    H251839   6.490   3.865   0.993  1.2704  1.1795 -0.8493
10142TIP3   OH251840   4.275   1.338   3.206  0.1275  0.3648  0.1023
10142TIP3    H151841   4.357   1.326   3.253  0.5669  1.0386 -0.4721
10142TIP3    H251842   4.222   1.393   3.265 -0.4208 -1.0935  1.0274
10143TIP3   OH251843   4.061   0.732  16.825  0.5124 -0.1540  0.0862
10143TIP3    H151844   4.021   0.647  16.809  1.3010 -0.3290 -1.0789
10143TIP3    H251845   3.996   0.795  16.793  0.7201 -0.3955 -0.8397
10144TIP3   OH251846   3.207   0.245  12.421  0.2936 -0.9500 -0.0074
10144TIP3    H151847   3.288   0.237  12.370  0.0991 -2.3161 -0.1508
10144TIP3    H251848   3.189   0.155  12.450  0.3796 -0.2547  2.4369
10145TIP3   OH251849   0.376   2.477  14.800  0.2338 -0.5497 -0.0677
10145TIP3    H151850   0.376   2.441  14.888 -0.4078 -0.7717 -0.1532
10145TIP3    H251851   0.468   2.478  14.774  0.6437  1.1267  1.2489
10146TIP3   OH251852   2.469   6.100   3.897 -0.3641  0.3533 -0.3989
10146TIP3    H151853   2.381   6.137   3.900 -0.6328 -0.3267  0.9170
10146TIP3    H251854   2.456   6.005   3.903  0.4192  0.1757 -1.2631
10147TIP3   OH251855   2.953   6.633   2.481  0.0486  0.6703  0.8003
10147TIP3    H151856   2.989   6.620   2.569 -0.3185 -0.4614  0.8004
10147TIP3    H251857   3.030   6.645   2.425  0.2966  1.0373  1.2164
10148TIP3   OH251858   0.749   4.850   6.180  0.2087 -0.1091  0.5897
10148TIP3    H151859   0.657   4.859   6.207  0.7763  1.4935  2.1141
10148TIP3    H251860   0.744   4.798   6.099 -1.9070 -1.4091  1.4460
10149TIP3   OH251861   2.501   0.881  13.998  0.6392  0.4744 -0.6390
10149TIP3    H151862   2.492   0.941  13.924  2.1069  1.6611  0.0942
10149TIP3    H251863   2.590   0.895  14.029  1.3728 -2.7297 -0.9491
10150TIP3   OH251864   2.777   6.729   5.244  0.0750  0.3060  0.3918
10150TIP3    H151865   2.694   6.772   5.263  0.1844  0.2588  0.9953
10150TIP3    H251866   2.790   6.668   5.317 -0.4499 -1.3247 -0.7958
10151TIP3   OH251867   2.153   5.823   4.885  0.1939 -0.2865  0.6812
10151TIP3    H151868   2.171   5.739   4.843 -0.4217 -1.0798  1.9571
10151TIP3    H251869   2.124   5.800   4.973  1.7554  1.3141  1.6950
10152TIP3   OH251870   1.023   2.618  14.985 -0.3016 -0.0817 -0.4847
10152TIP3    H151871   1.098   2.569  14.951  0.2957 -0.0142  0.6983
10152TIP3    H251872   0.961   2.619  14.912  1.1845  0.6213 -1.8316
10153TIP3   OH251873   6.739   0.145   2.934  0.0757 -0.4142  0.0164
10153TIP3    H151874   6.755   0.090   2.858 -1.0820  1.9731 -2.0980
10153TIP3    H251875   6.714   0.230   2.898 -0.5332  0.8576  3.0792
10154TIP3   OH251876   1.015   0.176   2.595 -0.1251 -0.2651 -0.0707
10154TIP3    H151877   1.087   0.115   2.610 -0.4180 -0.7333 -0.5275
10154TIP3    H251878   0.968   0.179   2.679 -0.6556 -1.4030 -0.3013
10155TIP3   OH251879   1.874   4.812   1.146  0.0584 -0.4348  0.2878
10155TIP3    H151880   1.784   4.797   1.174  0.1890 -0.4978  0.6791
10155TIP3    H251881   1.899   4.894   1.188 -0.5458  0.7621 -1.5919
10156TIP3   OH251882   5.755   4.854   4.593  0.1058  0.0680  0.5754
10156TIP3    H151883   5.766   4.947   4.572 -0.0674 -0.4279 -1.9870
10156TIP3    H251884   5.828   4.810   4.550 -0.5084 -1.1291  0.7088
10157TIP3   OH251885   5.532   5.145   3.030  0.0141 -0.2089 -0.0233
10157TIP3    H151886   5.547   5.053   3.007  0.2934 -0.8531  2.3971
10157TIP3    H251887   5.470   5.142   3.103  0.8245  1.4204  0.8038
10158TIP3   OH251888   4.844   1.224  13.139 -0.0887 -0.4388 -0.3701
10158TIP3    H151889   4.766   1.178  13.167 -0.4640  0.2497 -0.2597
10158TIP3    H251890   4.888   1.164  13.079  0.0100 -1.3771  0.6139
10159TIP3   OH251891   1.249   4.981   1.178 -0.8438  0.6122  0.5956
10159TIP3    H151892   1.284   5.051   1.123  2.6173 -1.3312  0.0278
10159TIP3    H251893   1.163   4.961   1.140 -0.7337  2.6431 -0.9116
10160TIP3   OH251894   2.264   3.105  10.702 -0.6720 -0.1050 -0.3600
10160TIP3    H151895   2.254   3.017  10.665  3.2360 -1.0459  0.3872
10160TIP3    H251896   2.229   3.163  10.635  1.7726 -1.9744 -3.5000
10161TIP3   OH251897   2.783   1.899  16.352  0.5145  0.1578 -0.1178
10161TIP3    H151898   2.691   1.901  16.325  0.5071  1.5593 -0.0477
10161TIP3    H251899   2.816   1.817  16.315 -0.5713 -0.0122 -0.7761
10162TIP3   OH251900   5.693   5.101  15.049 -0.0002  0.1848 -0.2422
10162TIP3    H151901   5.683   5.141  14.962  1.2881  1.9040  0.3434
10162TIP3    H251902   5.713   5.009  15.031 -1.0555  0.2020 -1.7129
10163TIP3   OH251903   2.885   0.508  14.992  0.6187 -0.4726 -0.0198
10163TIP3    H151904   2.917   0.429  15.036 -1.3928 -0.5301  1.4640
10163TIP3    H251905   2.872   0.481  14.901 -1.0309 -2.2042  0.6728
10164TIP3   OH251906   5.418   1.619   1.086  0.1790  0.7989 -0.5788
10164TIP3    H151907   5.472   1.601   1.163 -2.2841  1.2362  1.3729
10164TIP3    H251908   5.481   1.624   1.014  2.5640 -0.0513  1.2917
10165TIP3   OH251909   2.655   0.749  10.644  0.3711 -0.4895  0.3094
10165TIP3    H151910   2.616   0.772  10.728 -1.0422 -2.2487  0.2002
10165TIP3    H251911   2.700   0.828  10.615 -0.0589  0.4900  2.1850
10166TIP3   OH251912   5.555   3.263   0.278 -0.8535  0.1137 -0.3007
10166TIP3    H151913   5.538   3.244   0.370  0.1672 -1.8131 -0.4520
10166TIP3    H251914   5.469   3.281   0.241 -1.4006 -0.1269  0.8172
10167TIP3   OH251915   3.145   0.528   1.720  0.6077  0.2436 -0.6363
10167TIP3    H151916   3.173   0.594   1.658  0.6482  0.9630  0.1255
10167TIP3    H251917   3.052   0.516   1.703  0.6388  0.3742 -0.8921
10168TIP3   OH251918   6.329   1.426  15.111  0.0654 -0.7322  0.0883
10168TIP3    H151919   6.274   1.379  15.049  0.2256 -0.9924  0.1444
10168TIP3    H251920   6.299   1.517  15.105 -0.4520 -0.8949  0.2125
10169TIP3   OH251921   6.204   6.144   5.830 -0.1965 -0.0663  0.3283
10169TIP3    H151922   6.255   6.085   5.774  0.5701  0.3328  0.5879
10169TIP3    H251923   6.248   6.141   5.915  0.2358  1.3239  0.1868
10170TIP3   OH251924   0.042   4.918  16.904 -0.4191 -0.6827  0.0204
10170TIP3    H151925   0.013   4.881  16.820  2.4134 -0.9494 -0.9239
10170TIP3    H251926   0.020   5.011  16.897 -2.4485 -1.0997  0.0755
10171TIP3   OH251927   5.878   1.682   0.162  0.2943 -0.0971  0.4550
10171TIP3    H151928   5.941   1.755   0.167 -0.3178  0.4221  0.7826
10171TIP3    H251929   5.933   1.604   0.150  1.0715  0.2422  1.5962
10172TIP3   OH251930   4.622   1.806  16.346 -0.3178 -0.3862 -0.1859
10172TIP3    H151931   4.704   1.832  16.305  1.7324  0.2500  3.7721
10172TIP3    H251932   4.576   1.889  16.361  0.4035 -0.2424  1.4077
10173TIP3   OH251933   0.845   5.598  11.306 -0.1488  0.0144  0.2577
10173TIP3    H151934   0.757   5.629  11.326 -0.4079 -1.0616  0.8885
10173TIP3    H251935   0.837   5.555  11.221  0.2178  1.6262 -0.6318
10174TIP3   OH251936   4.016   3.130  12.481  0.1973  0.2827 -0.5291
10174TIP3    H151937   4.074   3.203  12.500  0.4218 -0.2475  0.9458
10174TIP3    H251938   4.031   3.068  12.552  0.0644 -1.2442 -1.7822
10175TIP3   OH251939   4.920   4.298  12.656 -0.3211 -0.5178  0.2116
10175TIP3    H151940   4.930   4.252  12.572 -0.5379 -1.2208  0.5627
10175TIP3    H251941   4.993   4.361  12.658 -0.9267  0.2437 -0.9605
10176TIP3   OH251942   5.575   2.666  11.556  0.1344  0.2678 -0.1167
10176TIP3    H151943   5.547   2.655  11.465 -1.2930 -0.6772  0.3988
10176TIP3    H251944   5.526   2.742  11.587 -1.8374 -1.2304  0.7087
10177TIP3   OH251945   5.698   6.183  13.384 -0.5725 -0.0968  0.1801
10177TIP3    H151946   5.766   6.163  13.320  0.5569  2.0110  0.6305
10177TIP3    H251947   5.616   6.168  13.337  0.1421 -2.1718 -0.5431
10178TIP3   OH251948   3.620   2.025   5.152  0.1312 -0.6313  0.3885
10178TIP3    H151949   3.580   2.112   5.153  1.4331  0.0006  0.3418
10178TIP3    H251950   3.547   1.965   5.139 -0.7070  0.5028 -0.3459
10179TIP3   OH251951   2.053   3.678  12.565  0.3544 -0.1166 -0.5051
10179TIP3    H151952   2.122   3.627  12.522 -0.6695 -2.2195  0.2574
10179TIP3    H251953   1.976   3.668  12.510  0.5899  2.3165 -1.4121
10180TIP3   OH251954   3.547   0.357  16.405  0.0721  0.1802 -0.4689
10180TIP3    H151955   3.578   0.415  16.335 -1.0128 -0.3769 -1.4345
10180TIP3    H251956   3.469   0.315  16.369 -1.0558  0.5534  1.4040
10181TIP3   OH251957   0.097   5.992   5.834 -0.0374  0.3512  0.9544
10181TIP3    H151958   0.113   5.989   5.928  3.5207 -1.3007  0.4366
10181TIP3    H251959   0.174   6.036   5.798 -1.2488  0.8263 -1.2582
10182TIP3   OH251960   0.630   0.600  11.925  0.2274 -0.4313 -0.3001
10182TIP3    H151961   0.579   0.582  11.846 -0.2532 -0.5444  0.0316
10182TIP3    H251962   0.692   0.527  11.931 -1.7990 -2.1618  1.1125
10183TIP3   OH251963   1.320   6.069   5.119 -0.3693 -0.3990 -1.1228
10183TIP3    H151964   1.382   6.106   5.182 -0.3355 -1.2823 -0.6243
10183TIP3    H251965   1.260   6.141   5.099 -0.6747 -0.2262  0.3015
10184TIP3   OH251966   1.719   4.466   1.306 -0.3532 -0.1219  0.7613
10184TIP3    H151967   1.753   4.376   1.303  1.5683  0.5712 -0.3929
10184TIP3    H251968   1.646   4.462   1.367 -0.1757 -2.4218  0.9206
10185TIP3   OH251969   5.175   2.450  10.538 -0.6465  0.1822 -0.1014
10185TIP3    H151970   5.116   2.497  10.596 -1.6912 -0.6840 -0.4080
10185TIP3    H251971   5.237   2.515  10.507 -1.0428  0.9806  0.7619
10186TIP3   OH251972   0.645   1.332   0.297 -0.1616 -0.2533  0.1169
10186TIP3    H151973   0.713   1.400   0.300  1.1705 -1.4574 -0.8609
10186TIP3    H251974   0.671   1.270   0.365 -2.9553  1.4747  3.0460
10187TIP3   OH251975   5.260   5.969  15.251  0.0125  0.3961  0.7195
10187TIP3    H151976   5.231   6.035  15.188 -0.1138 -0.5670 -0.2661
10187TIP3    H251977   5.342   5.936  15.215 -0.6727 -1.0283  0.3619
10188TIP3   OH251978   6.474   3.317  16.388 -0.0870 -0.4899  0.6382
10188TIP3    H151979   6.509   3.381  16.449 -0.6317 -0.8252  1.3315
10188TIP3    H251980   6.412   3.366  16.334  1.0332 -0.0070 -0.2488
10189TIP3   OH251981   3.468   0.731   5.561  0.0181  0.5567  0.3249
10189TIP3    H151982   3.487   0.712   5.653  0.0893 -1.4112 -0.0428
10189TIP3    H251983   3.498   0.820   5.548  0.4758  0.7039  2.0810
10190TIP3   OH251984   6.127   6.576  16.225 -0.2219 -0.5660 -0.6823
10190TIP3    H151985   6.222   6.564  16.223 -0.3672 -2.1219  0.1999
10190TIP3    H251986   6.097   6.538  16.142 -0.1042 -0.2777 -0.8604
10191TIP3   OH251987   4.951   0.251   0.463 -0.1468  0.3672 -0.2168
10191TIP3    H151988   4.948   0.192   0.388  0.1832 -0.0829  0.1185
10191TIP3    H251989   4.914   0.333   0.431 -0.8895 -0.1134 -0.5980
10192TIP3   OH251990   4.757   5.772   0.500  0.1994 -0.0948  0.6175
10192TIP3    H151991   4.807   5.848   0.531  0.3645 -0.7886  2.1843
10192TIP3    H251992   4.670   5.783   0.539 -0.1574 -0.1076 -0.1490
10193TIP3   OH251993   0.185   4.357   0.900 -0.9837  0.2035  0.3175
10193TIP3    H151994   0.189   4.317   0.987 -3.0922  0.4065  0.5609
10193TIP3    H251995   0.139   4.292   0.846 -0.0635  0.2526 -0.5655
10194TIP3   OH251996   3.374   0.083  11.408 -0.0391  0.1991 -0.1595
10194TIP3    H151997   3.360   0.137  11.485 -0.6057  2.5660 -1.8193
10194TIP3    H251998   3.421   0.140  11.347  0.0057 -1.4479 -1.7329
10195TIP3   OH251999   6.728   0.040   3.446 -0.3607  0.0247 -0.6346
10195TIP3    H152000   6.693   0.077   3.365 -1.8184 -1.5667 -0.7840
10195TIP3    H252001   6.753   0.117   3.498 -4.6543  1.4588 -0.2762
10196TIP3   OH252002   0.527   1.682  15.507 -0.5430 -0.1952  0.3599
10196TIP3    H152003   0.524   1.642  15.421 -0.6548  0.6349 -0.0332
10196TIP3    H252004   0.469   1.629  15.561  0.6374 -1.6011  0.3189
10197TIP3   OH252005   4.989   4.264   5.089 -0.2601 -0.1287  0.2962
10197TIP3    H152006   4.957   4.186   5.133 -0.9170  0.9648  1.8425
10197TIP3    H252007   4.943   4.265   5.005 -0.6824 -1.0793  0.5092
10198TIP3   OH252008   2.050   6.710   5.567 -0.4372 -0.1720  0.6172
10198TIP3    H152009   2.013   6.673   5.487  0.2768  1.1981 -0.3738
10198TIP3    H252010   1.974   6.731   5.622 -1.0490  0.8263 -0.5796
10199TIP3   OH252011   1.371   3.480  16.337 -0.2640 -0.2087 -0.4774
10199TIP3    H152012   1.337   3.391  16.345 -0.1588 -0.1815  0.3628
10199TIP3    H252013   1.437   3.475  16.267 -1.7453 -0.3260 -1.9221
10200TIP3   OH252014   0.577   5.916  12.317  0.4560  0.2089  0.0861
10200TIP3    H152015   0.490   5.939  12.284  0.2497 -2.2343 -1.3346
10200TIP3    H252016   0.564   5.832  12.361  2.1683 -0.4385 -0.5860
10201TIP3   OH252017   0.645   4.155  13.595 -0.1452  0.0003 -0.0629
10201TIP3    H152018   0.599   4.141  13.677  0.5235 -0.8928  0.1809
10201TIP3    H252019   0.604   4.094  13.533  1.0113 -1.2107  0.2982
10202TIP3   OH252020   5.969   3.047   5.300 -0.3539 -0.1079 -0.3755
10202TIP3    H152021   6.012   3.130   5.318 -0.5611 -0.0935  0.0561
10202TIP3    H252022   6.039   2.983   5.298 -0.0667  0.2185 -1.6867
10203TIP3   OH252023   3.098   5.941   5.323  0.2298 -0.7602 -0.4611
10203TIP3    H152024   3.092   5.869   5.260  0.4652 -0.5317 -0.7476
10203TIP3    H252025   3.123   5.899   5.405 -1.9593 -1.3115 -0.0339
10204TIP3   OH252026   1.827   0.879   3.184 -0.6227  0.6015 -0.0917
10204TIP3    H152027   1.917   0.907   3.198 -0.6065  0.7042 -0.4053
10204TIP3    H252028   1.784   0.955   3.144 -1.1266  0.9532  1.0490
10205TIP3   OH252029   1.082   4.686   1.596 -0.5958 -0.2617 -0.2347
10205TIP3    H152030   1.092   4.607   1.543 -2.1338 -0.3177 -0.4854
10205TIP3    H252031   1.068   4.756   1.532  2.7684  0.6496 -0.1421
10206TIP3   OH252032   0.145   1.620   3.205  0.1038 -0.0331 -0.1841
10206TIP3    H152033   0.166   1.534   3.242  0.0286  0.3888  0.8763
10206TIP3    H252034   0.204   1.628   3.130  0.5408 -0.7614  0.0597
10207TIP3   OH252035   4.356   6.289  13.748  0.1696  0.5364 -0.1609
10207TIP3    H152036   4.316   6.374  13.732  0.0791  0.9256  1.8027
10207TIP3    H252037   4.302   6.250  13.817  2.3078  0.4847  1.5942
10208TIP3   OH252038   0.199   3.443   0.345  0.5189  0.0915 -0.2488
10208TIP3    H152039   0.246   3.370   0.305 -0.5608 -0.8831  0.1919
10208TIP3    H252040   0.123   3.457   0.288  2.0990  2.7530 -1.9043
10209TIP3   OH252041   1.107   5.391  15.560  0.0834  0.0407 -0.2354
10209TIP3    H152042   1.175   5.339  15.516  1.4709  1.1069  0.5481
10209TIP3    H252043   1.153   5.433  15.632 -1.7677 -0.3650  1.2474
10210TIP3   OH252044   0.461   4.138   3.045 -0.0019 -0.2628 -0.0621
10210TIP3    H152045   0.400   4.199   3.087 -0.5469 -0.8019 -0.0618
10210TIP3    H252046   0.507   4.191   2.980 -0.8359  0.0348 -0.4199
10211TIP3   OH252047   3.858   5.956  13.076 -0.5410 -0.0888 -0.1601
10211TIP3    H152048   3.908   6.017  13.130  3.0236 -1.1319 -1.9558
10211TIP3    H252049   3.864   5.873  13.123 -1.5946 -0.0209  0.1215
10212TIP3   OH252050   0.017   3.169   0.975 -0.1467 -0.1484  0.3379
10212TIP3    H152051   0.094   3.220   1.000 -0.6182  0.0648  1.4240
10212TIP3    H252052   0.032   3.083   1.014  0.1870 -0.5472 -0.6506
10213TIP3   OH252053   4.472   6.544   1.363 -0.1276 -0.2486 -0.4223
10213TIP3    H152054   4.521   6.515   1.286 -0.4996 -0.6128 -0.5292
10213TIP3    H252055   4.391   6.581   1.328  0.4960  1.2908 -0.3081
10214TIP3   OH252056   3.969   2.520  17.366  0.1533 -0.2364  0.0910
10214TIP3    H152057   3.982   2.528  17.271 -0.6285  0.9451  0.0605
10214TIP3    H252058   4.051   2.550  17.404  0.2167 -0.0286 -0.2035
10215TIP3   OH252059   4.201   0.030  15.272  0.1836 -0.1431 -0.2953
10215TIP3    H152060   4.249   0.006  15.352  0.4718 -2.2331 -1.0201
10215TIP3    H252061   4.266   0.019  15.202 -0.5707 -0.1727 -0.9990
10216TIP3   OH252062   0.200   1.737  14.084  0.2611  0.4155  0.2355
10216TIP3    H152063   0.252   1.744  14.164 -0.2651 -0.7283  0.6946
10216TIP3    H252064   0.110   1.753  14.112  0.3217  2.3988 -0.5579
10217TIP3   OH252065   2.791   6.160  15.347 -0.0509 -0.0819  0.3269
10217TIP3    H152066   2.829   6.142  15.433 -0.1457  0.9649  0.5953
10217TIP3    H252067   2.806   6.253  15.333  1.7613 -0.5912 -1.6680
10218TIP3   OH252068   1.412   5.089  13.766 -0.2237  0.0394  0.1180
10218TIP3    H152069   1.485   5.038  13.730 -0.3530  0.7704 -1.2559
10218TIP3    H252070   1.389   5.150  13.696 -2.8116 -0.8006  0.1348
10219TIP3   OH252071   1.870   2.266   2.990 -0.0798  0.3177  0.3198
10219TIP3    H152072   1.925   2.190   3.004 -0.3312  0.0802  0.0375
10219TIP3    H252073   1.930   2.340   2.991  0.3102  0.0289 -0.4008
10220TIP3   OH252074   3.194   3.242   2.184 -0.1066 -0.3142 -0.0591
10220TIP3    H152075   3.273   3.230   2.237 -0.9200 -0.0241  1.2814
10220TIP3    H252076   3.130   3.181   2.222 -0.5902 -0.3967 -0.9855
10221TIP3   OH252077   2.051   2.384  11.339 -0.0211 -0.0486 -0.1262
10221TIP3    H152078   2.118   2.398  11.406  0.0759 -0.0557 -0.2214
10221TIP3    H252079   2.053   2.290  11.323  0.4527  0.0433 -0.6509
10222TIP3   OH252080   3.725   4.585  17.135  0.0954  0.7125  0.2777
10222TIP3    H152081   3.731   4.668  17.181 -1.6354  0.5143  0.9232
10222TIP3    H252082   3.668   4.603  17.060 -0.8689 -0.0267  0.8092
10223TIP3   OH252083   6.278   1.726   4.756  0.3733  0.6214  0.5860
10223TIP3    H152084   6.361   1.683   4.776  0.2406 -1.8417 -3.2172
10223TIP3    H252085   6.303   1.809   4.715  1.0341 -0.3785 -1.0986
10224TIP3   OH252086   6.219   6.339   0.929  0.4098 -0.2911 -0.4580
10224TIP3    H152087   6.171   6.259   0.909  0.3150 -0.5256  0.6468
10224TIP3    H252088   6.158   6.392   0.980  1.0529 -0.2707  0.3090
10225TIP3   OH252089   0.103   0.694  14.554  0.4291  0.2923  0.2093
10225TIP3    H152090   0.190   0.676  14.517  0.5216  0.3713  0.3891
10225TIP3    H252091   0.113   0.777  14.600 -0.3633  1.6236 -1.8893
10226TIP3   OH252092   1.301   3.923   6.235  0.3222 -0.2724  0.0357
10226TIP3    H152093   1.314   4.017   6.234 -1.7277  0.1069  2.1324
10226TIP3    H252094   1.301   3.899   6.327  1.4015 -2.4749 -0.4507
10227TIP3   OH252095   0.360   1.395  17.119 -0.0158 -0.1357  0.1562
10227TIP3    H152096   0.381   1.303  17.134 -0.3873 -0.3500 -0.5711
10227TIP3    H252097   0.334   1.428  17.205 -2.1713 -1.3338  0.0581
10228TIP3   OH252098   6.471   1.049  14.751  0.1778  0.1451 -0.3852
10228TIP3    H152099   6.557   1.073  14.787  0.0180 -0.8111  0.6765
10228TIP3    H252100   6.421   1.131  14.753  0.4690  0.3056  0.7476
10229TIP3   OH252101   2.237   4.143   2.940 -0.0468 -0.5011 -0.6629
10229TIP3    H152102   2.166   4.182   2.990 -0.0677 -1.7068  0.3045
10229TIP3    H252103   2.206   4.054   2.919  1.9095 -1.8225  1.5542
10230TIP3   OH252104   3.333   3.072   2.426 -0.1597 -0.4157  0.1392
10230TIP3    H152105   3.387   3.077   2.505  0.0359 -0.5868  0.0167
10230TIP3    H252106   3.266   3.139   2.439  0.2984  0.0581  0.1322
10231TIP3   OH252107   3.825   0.670   4.288 -0.0431 -0.3112  0.6262
10231TIP3    H152108   3.875   0.747   4.261  2.5154 -2.6077 -1.8756
10231TIP3    H252109   3.850   0.655   4.379  2.1402 -0.0694  0.1254
10232TIP3   OH252110   0.011   6.354  13.210  0.1368  0.2482 -0.0822
10232TIP3    H152111  -0.052   6.358  13.282  0.2874 -0.9016  0.1406
10232TIP3    H252112   0.028   6.260  13.199 -0.4451  0.3405 -2.1082
10233TIP3   OH252113   3.788   6.383   6.586 -0.2728  0.6506  0.1067
10233TIP3    H152114   3.874   6.341   6.594 -0.5821  0.2142  1.4724
10233TIP3    H252115   3.790   6.452   6.652 -1.4256 -0.2111  1.0910
10234TIP3   OH252116   4.575   3.477   5.325 -0.0773 -0.0925  0.5148
10234TIP3    H152117   4.503   3.424   5.358  0.1256 -1.8054 -1.5384
10234TIP3    H252118   4.551   3.496   5.234  2.3824 -1.4999 -0.5357
10235TIP3   OH252119   4.631   0.214  11.314  0.4760  0.1138 -0.0549
10235TIP3    H152120   4.573   0.289  11.305  0.4697  0.0617 -0.4594
10235TIP3    H252121   4.717   0.252  11.334  0.3947  0.2080  0.1177
10236TIP3   OH252122   6.311   4.324  16.406 -0.3169  0.2038  0.1841
10236TIP3    H152123   6.317   4.381  16.483 -1.9477 -0.9320  1.2238
10236TIP3    H252124   6.394   4.277  16.405 -0.8832 -0.9740  2.3028
10237TIP3   OH252125   2.384   5.169   1.335 -0.2196  0.3078 -0.1062
10237TIP3    H152126   2.402   5.215   1.253  1.0324 -1.7429 -1.0586
10237TIP3    H252127   2.343   5.087   1.308  0.4215 -0.5180  1.3080
10238TIP3   OH252128   4.892   2.975   4.904 -0.2170  0.0189 -0.7521
10238TIP3    H152129   4.911   3.059   4.863  0.0789  1.0804  1.4001
10238TIP3    H252130   4.796   2.967   4.902 -0.6474  2.3522  2.3518
10239TIP3   OH252131   4.775   0.986  14.336  0.3986  0.1836  0.0697
10239TIP3    H152132   4.843   1.046  14.305 -0.1218  1.1910  0.8211
10239TIP3    H252133   4.697   1.041  14.346 -0.2640 -0.7521  0.1887
10240TIP3   OH252134   3.341   1.605  16.285  0.1592 -0.0561  0.3536
10240TIP3    H152135   3.387   1.662  16.347  1.2817  0.9123 -1.2956
10240TIP3    H252136   3.360   1.516  16.315  1.5569  0.3742  0.8150
10241TIP3   OH252137   6.325   4.109  11.877 -1.2635  0.1480 -0.1106
10241TIP3    H152138   6.394   4.043  11.887 -0.4484  1.0408  0.3502
10241TIP3    H252139   6.314   4.118  11.783 -0.7087  0.0243 -0.1931
10242TIP3   OH252140   4.081   0.129   3.619  0.0913 -0.4705 -0.4216
10242TIP3    H152141   4.113   0.204   3.569  0.2357  0.0060  0.3677
10242TIP3    H252142   4.042   0.071   3.554 -0.1480  0.3585 -1.0241
10243TIP3   OH252143   5.790   5.841   5.410 -0.5825  0.1794 -0.0902
10243TIP3    H152144   5.720   5.810   5.352  1.5191 -0.3779 -2.4901
10243TIP3    H252145   5.783   5.786   5.488 -2.6752  0.0446 -0.3019
10244TIP3   OH252146   0.737   3.288   0.622  0.0618 -0.3425 -0.0809
10244TIP3    H152147   0.795   3.231   0.571  0.8365  0.7201 -0.4117
10244TIP3    H252148   0.669   3.314   0.560 -0.4906 -1.1455  0.1612
10245TIP3   OH252149   4.841   1.599   1.617 -0.1373 -0.1615 -0.1920
10245TIP3    H152150   4.812   1.513   1.648  1.2312 -0.8923 -0.8259
10245TIP3    H252151   4.934   1.587   1.600  0.1405  1.5555  0.0039
10246TIP3   OH252152   1.765   6.727  12.549 -0.5372  0.7202  0.0685
10246TIP3    H152153   1.720   6.809  12.531 -0.0318  1.3891  1.6846
10246TIP3    H252154   1.710   6.660  12.508 -1.9236  1.6994  0.2484
10247TIP3   OH252155   0.447   1.922   2.861  0.1423  0.0992 -0.0326
10247TIP3    H152156   0.541   1.942   2.857 -0.3366  2.8291  0.2343
10247TIP3    H252157   0.420   1.919   2.770  0.2316  0.7834 -0.0844
10248TIP3   OH252158   4.320   0.762   0.658  0.3517 -0.4783 -0.5759
10248TIP3    H152159   4.256   0.806   0.714 -0.2141 -2.2753  0.2680
10248TIP3    H252160   4.266   0.711   0.597  0.9760 -0.4141 -1.1859
10249TIP3   OH252161   3.768   5.732   0.146  0.5104 -0.2609  0.0142
10249TIP3    H152162   3.715   5.751   0.068  1.8882 -1.3284 -1.2365
10249TIP3    H252163   3.852   5.703   0.112  1.6413  0.5551  1.9463
10250TIP3   OH252164   6.630   0.482  12.103  0.1794  0.5611 -0.2004
10250TIP3    H152165   6.574   0.455  12.030 -1.4976 -0.5849  1.4165
10250TIP3    H252166   6.637   0.403  12.158  0.8421  1.5580  1.1953
10251TIP3   OH252167   1.162   0.616  10.241  1.0461  0.1550 -0.3689
10251TIP3    H152168   1.070   0.604  10.266  1.2426  0.5360  0.5983
10251TIP3    H252169   1.207   0.542  10.280  1.2418  0.3299 -0.2566
10252TIP3   OH252170   3.005   2.076   1.592  0.0967  0.0981  0.4292
10252TIP3    H152171   2.921   2.069   1.548  0.0890 -0.1016  0.4749
10252TIP3    H252172   3.021   2.170   1.598  0.4782  0.1186 -0.7209
10253TIP3   OH252173   2.834   3.365  13.390  0.3812 -0.4231  0.7763
10253TIP3    H152174   2.765   3.315  13.434 -0.6058 -0.3587 -0.6261
10253TIP3    H252175   2.786   3.429  13.336  1.5561 -0.0314  0.1700
10254TIP3   OH252176   4.151   5.102   6.181  0.6251  0.1819  0.1704
10254TIP3    H152177   4.136   5.055   6.263  0.5468 -2.4411 -1.2432
10254TIP3    H252178   4.212   5.046   6.133  2.1306  2.5640 -0.8636
10255TIP3   OH252179   5.089   6.328  11.418  0.0265  0.3224  0.0691
10255TIP3    H152180   4.998   6.308  11.396  0.6395 -0.6897 -1.8004
10255TIP3    H252181   5.121   6.377  11.342  1.8009 -1.7739 -0.6327
10256TIP3   OH252182   1.795   6.061  12.111 -0.1588 -0.2844  0.2199
10256TIP3    H152183   1.782   6.021  12.197 -1.0933 -0.9069 -0.1936
10256TIP3    H252184   1.800   6.155  12.129  1.9508 -0.5254  1.1971
10257TIP3   OH252185   0.122   3.714  15.106 -0.2455 -0.2406  0.4222
10257TIP3    H152186   0.089   3.763  15.181 -0.0155 -0.9229  0.9851
10257TIP3    H252187   0.124   3.623  15.136  0.2160 -0.4716 -0.2785
10258TIP3   OH252188   4.424   5.369   0.863  0.7269  0.3670 -0.3720
10258TIP3    H152189   4.454   5.410   0.782  0.3963  1.5920  0.1040
10258TIP3    H252190   4.348   5.420   0.889  0.1514 -0.7109  0.1273
10259TIP3   OH252191   5.655   1.681  14.544 -0.3155  0.4327 -0.3975
10259TIP3    H152192   5.682   1.626  14.470 -0.7395 -0.3114 -0.0015
10259TIP3    H252193   5.684   1.769  14.519 -0.6890  0.2394 -1.5657
10260TIP3   OH252194   4.234   6.737   6.207  0.4257  0.0027  0.3436
10260TIP3    H152195   4.249   6.676   6.280 -2.7123  0.6617  1.7334
10260TIP3    H252196   4.291   6.705   6.137  1.6125 -2.2894  2.1941
10261TIP3   OH252197   0.434   4.578  16.561  0.3456  0.2851 -0.4185
10261TIP3    H152198   0.379   4.642  16.516  0.5469  0.1626 -0.8461
10261TIP3    H252199   0.505   4.630  16.599  0.2136  0.3818 -0.3075
10262TIP3   OH252200   5.611   5.733   0.929  0.2832 -0.2499 -0.0769
10262TIP3    H152201   5.524   5.759   0.899  0.0055  0.3329  1.1700
10262TIP3    H252202   5.663   5.813   0.925  0.5524 -0.4219 -0.0773
10263TIP3   OH252203   5.607   6.618  13.724  0.0087  0.4023  0.5264
10263TIP3    H152204   5.596   6.700  13.771  1.4060  1.4624 -0.8741
10263TIP3    H252205   5.657   6.562  13.784  1.6807  1.6860  0.4047
10264TIP3   OH252206   2.725   0.514   4.962  0.3466 -0.2516 -0.2194
10264TIP3    H152207   2.711   0.421   4.947 -0.0582 -0.4376  1.2140
10264TIP3    H252208   2.647   0.556   4.924 -1.5127 -0.8458  2.5887
10265TIP3   OH252209   2.586   2.112   3.383 -0.5377 -0.0976 -0.0676
10265TIP3    H152210   2.587   2.163   3.302  0.3992 -3.2830 -2.2487
10265TIP3    H252211   2.676   2.082   3.394 -0.9039 -0.7146  1.5091
10266TIP3   OH252212   2.842   4.250  16.477 -0.2353 -0.1076  0.4299
10266TIP3    H152213   2.831   4.232  16.570 -0.2541  1.9771  0.8721
10266TIP3    H252214   2.752   4.264  16.445 -0.1248  0.6405  0.4354
10267TIP3   OH252215   4.592   1.246   1.349 -0.3261 -0.7330 -0.0693
10267TIP3    H152216   4.585   1.341   1.361  1.7916 -0.6205  0.8496
10267TIP3    H252217   4.522   1.223   1.288  1.1099  1.9210 -2.9701
10268TIP3   OH252218   2.789   4.220  15.212  0.0965 -0.2233  0.8362
10268TIP3    H152219   2.753   4.308  15.198  0.5167 -0.2089 -0.2780
10268TIP3    H252220   2.849   4.229  15.285 -1.9914 -0.2084  2.6634
10269TIP3   OH252221   1.530   3.279  16.985  0.3758 -0.0989 -0.4628
10269TIP3    H152222   1.581   3.244  17.058  0.9757 -0.4513 -1.0380
10269TIP3    H252223   1.540   3.374  16.992  4.3746 -0.1456 -2.7507
10270TIP3   OH252224   5.789   4.622   3.048  0.1686  0.0391 -0.2274
10270TIP3    H152225   5.832   4.538   3.035 -0.9959 -0.3310 -1.9384
10270TIP3    H252226   5.738   4.636   2.969 -0.3531  1.9645  0.3865
10271TIP3   OH252227   0.613   1.573  17.153  0.3912 -0.5424  0.1772
10271TIP3    H152228   0.545   1.508  17.173  0.1389 -0.0819  0.8672
10271TIP3    H252229   0.666   1.577  17.233  1.1755 -0.8216 -0.3205
10272TIP3   OH252230   0.407   3.150   3.096  0.0007  0.1832  0.5622
10272TIP3    H152231   0.357   3.231   3.100 -0.2665  0.2264 -2.1785
10272TIP3    H252232   0.475   3.166   3.030 -1.1455 -2.3264 -1.3945
10273TIP3   OH252233   4.590   0.844  13.308  0.2211 -0.0193  0.0664
10273TIP3    H152234   4.637   0.815  13.386 -0.5502  2.2172  1.4615
10273TIP3    H252235   4.659   0.868  13.246  0.8517 -0.9726  0.3863
10274TIP3   OH252236   3.133   0.075  16.091  0.5484 -0.0031 -0.5430
10274TIP3    H152237   3.138   0.059  16.185  2.8316  0.7582 -0.4765
10274TIP3    H252238   3.057   0.025  16.062 -0.5417  0.1876  1.7738
10275TIP3   OH252239   3.417   5.167  14.753 -0.1116  0.6487  0.6840
10275TIP3    H152240   3.419   5.072  14.763 -1.9463  0.5800  0.7335
10275TIP3    H252241   3.457   5.200  14.834  0.8537 -0.0734  0.5137
10276TIP3   OH252242   1.122   2.776  13.265  0.4323  0.1611 -0.5402
10276TIP3    H152243   1.138   2.744  13.354  1.3627  0.9015 -0.4254
10276TIP3    H252244   1.028   2.764  13.252 -0.2658  2.4243  1.5190
10277TIP3   OH252245   3.507   1.299  13.076  0.2373  0.5479  0.1138
10277TIP3    H152246   3.507   1.394  13.092  0.6971  0.3392  1.5077
10277TIP3    H252247   3.431   1.284  13.020 -0.5044  1.5984  0.7908
10278TIP3   OH252248   1.057   2.744  17.350 -0.1169 -0.2383  0.5656
10278TIP3    H152249   1.008   2.718  17.428  0.0595 -2.9074 -0.1467
10278TIP3    H252250   1.148   2.727  17.373 -0.1433 -2.0903 -0.5384
10279TIP3   OH252251   6.145   2.930  15.365  0.1418  0.7927  0.4549
10279TIP3    H152252   6.136   2.920  15.459 -1.2733 -4.4144  0.1067
10279TIP3    H252253   6.058   2.955  15.334  0.2263  1.0891  0.4607
10280TIP3   OH252254   1.970   1.163  14.524  0.1418  0.0532 -0.5848
10280TIP3    H152255   2.025   1.112  14.584 -0.2993 -0.2716 -0.4491
10280TIP3    H252256   1.889   1.178  14.573  0.4842  1.3850 -0.4143
10281TIP3   OH252257   6.627   6.100  16.186  0.1859  0.1547 -0.0367
10281TIP3    H152258   6.610   6.110  16.280  4.3910  1.1661  0.8434
10281TIP3    H252259   6.627   6.005  16.172 -0.7656 -0.0035  0.9042
10282TIP3   OH252260   0.270   6.470  13.908 -0.2748 -0.1002  0.1321
10282TIP3    H152261   0.357   6.445  13.939  0.0446  1.9072  1.0166
10282TIP3    H252262   0.276   6.461  13.813  0.5542 -0.9709  0.2447
10283TIP3   OH252263   6.404   4.723  16.418  0.5279  0.0131 -0.1143
10283TIP3    H152264   6.330   4.695  16.364  0.6734 -1.8514  0.5614
10283TIP3    H252265   6.465   4.649  16.414  1.9919  1.1830 -0.0062
10284TIP3   OH252266   3.282   5.510  14.356 -0.3662  0.0318  0.1083
10284TIP3    H152267   3.194   5.473  14.348 -0.1130 -0.7495  0.8757
10284TIP3    H252268   3.319   5.469  14.434  0.5293  0.6764  0.0403
10285TIP3   OH252269   5.710   4.232  12.579  0.4911 -0.3651  0.0985
10285TIP3    H152270   5.746   4.265  12.662  0.4093 -1.7558  0.7220
10285TIP3    H252271   5.678   4.144  12.601 -2.7822  0.5263 -0.5464
10286TIP3   OH252272   3.285   1.265  11.780  0.5771  0.1055 -0.5883
10286TIP3    H152273   3.293   1.291  11.872  0.1293 -0.1261 -0.4838
10286TIP3    H252274   3.324   1.178  11.776 -1.3673 -0.8286 -0.1708
10287TIP3   OH252275   0.035   2.189  13.386  0.0410 -0.6241 -0.4138
10287TIP3    H152276  -0.018   2.145  13.452  0.6799 -1.5678 -0.5063
10287TIP3    H252277   0.125   2.165  13.407  0.5537  1.6556  0.2661
10288TIP3   OH252278   4.797   4.709   3.422  0.0476  0.4236 -0.1993
10288TIP3    H152279   4.736   4.635   3.426 -1.0676  1.3717  1.0389
10288TIP3    H252280   4.814   4.731   3.514  1.3136  0.9570 -0.5393
10289TIP3   OH252281   1.603   0.689   5.822  0.2809  0.1057  0.4744
10289TIP3    H152282   1.639   0.685   5.911  0.0230 -2.0452  0.5268
10289TIP3    H252283   1.635   0.610   5.780 -0.4696  0.5734 -1.0302
10290TIP3   OH252284   5.890   0.678  12.238  0.0855 -0.2270  0.2715
10290TIP3    H152285   5.941   0.617  12.185  2.5495  1.1189  0.9400
10290TIP3    H252286   5.844   0.733  12.174  0.5304 -0.6382 -0.4115
10291TIP3   OH252287   5.915   1.972   3.908  0.0582 -0.7886  0.4121
10291TIP3    H152288   5.963   2.010   3.982  0.8348 -0.8225 -0.0645
10291TIP3    H252289   5.863   1.902   3.947 -0.2151 -0.2377  1.0626
10292TIP3   OH252290   2.405   2.173  11.429  0.6756 -0.0033 -0.2432
10292TIP3    H152291   2.474   2.108  11.415  2.0735  1.2046  0.8179
10292TIP3    H252292   2.336   2.148  11.366  2.8679 -0.0748 -2.7747
10293TIP3   OH252293   4.850   6.305  15.368  0.0575  0.1332 -0.7279
10293TIP3    H152294   4.937   6.311  15.327 -0.2122 -2.9809 -1.9994
10293TIP3    H252295   4.797   6.369  15.320  0.9644  0.0908 -1.8381
10294TIP3   OH252296   3.583   2.713   2.716 -0.0936 -0.0975  0.0203
10294TIP3    H152297   3.579   2.747   2.627  1.1552 -3.0069 -1.2707
10294TIP3    H252298   3.660   2.755   2.754 -1.5641  2.4462  0.4382
10295TIP3   OH252299   0.758   1.784   6.031 -0.0512  0.5290  0.2391
10295TIP3    H152300   0.730   1.852   6.091 -0.3403  0.0638  0.6402
10295TIP3    H252301   0.846   1.811   6.003 -0.1062  0.9877  0.5015
10296TIP3   OH252302   3.261   4.505  11.500 -0.0767 -0.2504 -0.3654
10296TIP3    H152303   3.191   4.497  11.565 -0.4644 -0.7918 -0.8422
10296TIP3    H252304   3.217   4.530  11.419  0.3941  0.3247 -0.4485
10297TIP3   OH252305   3.058   6.190  13.983 -0.5263  0.1799 -0.3204
10297TIP3    H152306   2.998   6.173  14.055  0.7403 -1.2781  0.4601
10297TIP3    H252307   3.096   6.276  14.004  0.5260 -0.6351  1.3197
10298TIP3   OH252308   2.664   1.411   4.874  0.1998  0.4896  0.0661
10298TIP3    H152309   2.727   1.397   4.944  0.3947  0.6393 -0.0789
10298TIP3    H252310   2.579   1.409   4.918  0.0502 -2.8562 -0.1781
10299TIP3   OH252311   4.111   6.339   1.206 -0.1700  0.1810 -0.0327
10299TIP3    H152312   4.068   6.411   1.159  0.1815  0.7475  0.4841
10299TIP3    H252313   4.039   6.288   1.243 -0.4735 -0.6778 -1.7436
10300TIP3   OH252314   0.802   6.527   1.936  0.1486 -0.1810  0.2346
10300TIP3    H152315   0.709   6.545   1.953  0.1416  0.5505 -0.4949
10300TIP3    H252316   0.806   6.432   1.928 -0.6660 -0.1867 -0.3232
10301TIP3   OH252317   3.827   6.307  17.239 -0.0568  0.2926  0.0792
10301TIP3    H152318   3.771   6.291  17.164  1.1026 -2.6871 -0.3000
10301TIP3    H252319   3.769   6.298  17.315 -0.3583 -1.7456 -0.3334
10302TIP3   OH252320   1.456   5.509   6.249  0.0833 -0.3674 -0.1783
10302TIP3    H152321   1.499   5.438   6.202 -0.1828  0.3573 -1.5934
10302TIP3    H252322   1.377   5.526   6.198  0.1985  1.0129  0.0643
10303TIP3   OH252323   2.938   0.127  12.069 -0.2506 -0.1191 -0.1958
10303TIP3    H152324   2.932   0.102  12.161  1.2819 -0.3128 -0.1199
10303TIP3    H252325   2.978   0.051  12.026  1.2367  0.8526 -0.5950
10304TIP3   OH252326   0.986   2.401  11.664  0.0176  0.2550 -0.4959
10304TIP3    H152327   1.038   2.370  11.589  0.4218  1.0903 -0.5751
10304TIP3    H252328   0.900   2.421  11.626  0.1805  0.5510 -0.7133
10305TIP3   OH252329   6.231   2.568  15.485  0.4183 -0.4876  0.9416
10305TIP3    H152330   6.221   2.477  15.459 -1.5720  0.5034 -2.4278
10305TIP3    H252331   6.141   2.599  15.497  0.8767  1.5863 -0.4630
10306TIP3   OH252332   5.340   3.683   0.552 -0.2700 -0.4748  0.5497
10306TIP3    H152333   5.424   3.727   0.536 -0.6364 -0.6126 -2.5317
10306TIP3    H252334   5.297   3.736   0.619  1.2104  1.1277  0.3118
10307TIP3   OH252335   4.303   0.640   3.896  0.1303  0.5145 -0.0312
10307TIP3    H152336   4.278   0.649   3.988 -0.7389 -1.1544 -0.0759
10307TIP3    H252337   4.277   0.723   3.857 -1.2708  0.5269  0.8466
10308TIP3   OH252338   6.302   2.971   5.657  0.9921  0.0114 -0.5503
10308TIP3    H152339   6.377   2.954   5.600  1.0135  1.0749 -0.8583
10308TIP3    H252340   6.234   2.911   5.625  1.9004 -1.4616  0.1782
10309TIP3   OH252341   3.722   4.239  13.692  0.5964 -0.6652  0.1226
10309TIP3    H152342   3.753   4.149  13.682 -0.9593 -1.1255 -0.7778
10309TIP3    H252343   3.664   4.253  13.618 -0.3842  0.5697  1.0863
10310TIP3   OH252344   1.635   1.443  12.441 -0.1159  0.0656 -0.9655
10310TIP3    H152345   1.659   1.382  12.372  0.5994 -0.9053  0.0992
10310TIP3    H252346   1.717   1.487  12.465 -0.3506  0.3923 -0.7415
10311TIP3   OH252347   1.357   2.035  13.100 -0.4683  0.1122 -0.0196
10311TIP3    H152348   1.330   1.973  13.169  2.2673  0.7667  1.7769
10311TIP3    H252349   1.303   2.112  13.116  0.0795  0.2365  1.4352
10312TIP3   OH252350   4.796   4.374   3.943 -0.2698 -0.6052 -0.2881
10312TIP3    H152351   4.769   4.293   3.984 -1.5566 -0.0937 -0.0870
10312TIP3    H252352   4.800   4.354   3.850 -0.8442 -0.8221 -0.2651
10313TIP3   OH252353   4.361   1.918   3.354  0.2115 -0.2717 -0.7036
10313TIP3    H152354   4.353   2.007   3.389  1.8331 -0.6785  0.8680
10313TIP3    H252355   4.402   1.868   3.425 -1.2496 -2.4564 -1.2935
10314TIP3   OH252356   4.032   3.347  10.804  0.4329  0.0548 -0.3535
10314TIP3    H152357   4.056   3.366  10.895  0.6522  0.7456 -0.5511
10314TIP3    H252358   4.086   3.407  10.752  0.2888 -0.3186 -0.9388
10315TIP3   OH252359   5.813   2.110  16.679 -0.0394  0.2453  0.3032
10315TIP3    H152360   5.749   2.066  16.622 -0.5432  1.2849  0.0505
10315TIP3    H252361   5.783   2.200  16.684 -0.9469 -0.1209  3.5659
10316TIP3   OH252362   1.105   2.985  14.780 -0.1863  0.0295 -0.4345
10316TIP3    H152363   1.024   3.015  14.739  0.2269  2.1016  0.1201
10316TIP3    H252364   1.094   2.891  14.790 -2.3818  0.2091 -0.6584
10317TIP3   OH252365   5.874   4.986  14.828  0.7118 -0.3656  0.5646
10317TIP3    H152366   5.844   4.911  14.879 -0.7937 -0.9829 -1.0941
10317TIP3    H252367   5.847   4.966  14.738  0.9963  1.7940 -0.0683
10318TIP3   OH252368   3.915   1.992   3.647 -0.3075 -0.5279 -0.5372
10318TIP3    H152369   3.937   2.047   3.572  0.4637 -0.3912 -0.2137
10318TIP3    H252370   3.864   1.920   3.610  0.5307 -0.7531 -1.2700
10319TIP3   OH252371   6.354   3.735  14.725 -0.1530 -0.1067 -0.3655
10319TIP3    H152372   6.355   3.829  14.742  1.6248 -0.2954  0.8073
10319TIP3    H252373   6.262   3.710  14.736 -0.4343  1.2640  0.6827
10320TIP3   OH252374   3.258   1.459   5.521 -0.1994 -0.0976 -0.0635
10320TIP3    H152375   3.209   1.484   5.600  1.0917  0.2476  0.6606
10320TIP3    H252376   3.334   1.412   5.555 -0.3684 -1.2491 -1.1943
10321TIP3   OH252377   0.030   4.176  14.873  0.1094  0.1419  0.2114
10321TIP3    H152378  -0.065   4.166  14.877 -0.0000  1.4181  1.9282
10321TIP3    H252379   0.064   4.098  14.917 -0.0364 -0.9232 -1.4474
10322TIP3   OH252380   4.808   1.971   3.404 -0.2285 -0.3016  0.0932
10322TIP3    H152381   4.759   2.029   3.345 -0.1018 -0.1195  0.1665
10322TIP3    H252382   4.894   2.013   3.413 -0.8813  0.7605  1.9851
10323TIP3   OH252383   4.759   2.193  15.485 -0.4297 -0.0321 -0.0392
10323TIP3    H152384   4.760   2.135  15.409 -0.7544  0.3966 -0.3755
10323TIP3    H252385   4.692   2.155  15.543 -3.0648  1.7625 -1.6848
10324TIP3   OH252386   5.314   1.483   2.156  0.1029 -1.0035 -0.0216
10324TIP3    H152387   5.282   1.572   2.172  0.1579 -0.7043 -1.4426
10324TIP3    H252388   5.407   1.487   2.180  0.2964 -0.4424 -0.7947
10325TIP3   OH252389   4.963   5.216   4.847  0.0209 -0.4655  0.0630
10325TIP3    H152390   5.047   5.199   4.804  0.6048  0.9572  0.5994
10325TIP3    H252391   4.985   5.274   4.920 -1.4120 -0.2509  0.3419
10326TIP3   OH252392   6.152   3.247  14.607 -0.0771  0.1949 -0.4914
10326TIP3    H152393   6.061   3.240  14.637 -0.2739 -0.1300 -1.1495
10326TIP3    H252394   6.194   3.167  14.637  0.5250  1.1871  1.5204
10327TIP3   OH252395   1.806   4.384  11.968 -0.6082 -0.1956 -0.5613
10327TIP3    H152396   1.851   4.308  11.929 -0.9191  0.2455 -1.8254
10327TIP3    H252397   1.872   4.453  11.970 -1.1237  0.3874 -2.2192
10328TIP3   OH252398   4.971   1.269  15.986  0.0887  0.5422 -0.2883
10328TIP3    H152399   4.982   1.177  16.012  0.7889  0.4777 -0.7958
10328TIP3    H252400   5.059   1.306  15.990  0.2254  0.5523 -2.4607
10329TIP3   OH252401   2.360   5.407   0.490 -0.1276  0.3573  0.1083
10329TIP3    H152402   2.364   5.462   0.568 -0.6131  2.7370 -1.4509
10329TIP3    H252403   2.267   5.395   0.473 -0.0555  0.7643 -0.6599
10330TIP3   OH252404   0.242   6.430  15.155  0.0704 -0.2047 -0.1374
10330TIP3    H152405   0.214   6.521  15.165 -2.3466 -0.4824 -2.9769
10330TIP3    H252406   0.165   6.378  15.180  1.2709 -1.5237  1.0402
10331TIP3   OH252407   4.243   3.671   0.350 -0.2039  0.5037 -0.4114
10331TIP3    H152408   4.155   3.703   0.370  0.1420  1.8514 -0.8916
10331TIP3    H252409   4.297   3.703   0.422  0.0947  0.7231 -0.7282
10332TIP3   OH252410   1.890   3.750  11.881 -0.3358  0.0079 -0.1514
10332TIP3    H152411   1.905   3.667  11.926  0.1880 -0.4186 -1.0785
10332TIP3    H252412   1.933   3.739  11.796  1.5433  1.9468  0.4465
10333TIP3   OH252413   0.803   4.652   2.477 -0.1373  0.0954 -0.0191
10333TIP3    H152414   0.805   4.746   2.459  1.9086 -0.1214 -1.1663
10333TIP3    H252415   0.829   4.611   2.395  0.8512 -1.3907  0.9886
10334TIP3   OH252416   4.557   1.283  17.014 -0.0813 -0.1532 -0.5517
10334TIP3    H152417   4.633   1.337  16.991  0.9018 -1.1933  0.1120
10334TIP3    H252418   4.505   1.339  17.071  1.6219 -0.3006  1.2814
10335TIP3   OH252419   6.723   1.800   6.235 -0.0586  0.3337 -0.3636
10335TIP3    H152420   6.641   1.752   6.235  0.3197 -0.3352  0.3488
10335TIP3    H252421   6.776   1.757   6.168  0.9024 -1.3974  1.4060
10336TIP3   OH252422   1.182   0.444   3.755 -0.3571  0.0913  0.4088
10336TIP3    H152423   1.103   0.417   3.707 -0.7245  2.9125 -0.8142
10336TIP3    H252424   1.200   0.532   3.722  0.6655  1.3827  3.9376
10337TIP3   OH252425   4.703   3.079  13.488 -0.6698  0.2224 -0.5725
10337TIP3    H152426   4.656   3.120  13.561 -1.1059 -1.0841 -0.0969
10337TIP3    H252427   4.794   3.105  13.501 -0.7633  0.1389  0.3550
10338TIP3   OH252428   3.862   2.252   5.580 -0.5202 -0.4157  0.5774
10338TIP3    H152429   3.917   2.328   5.592  1.5669 -1.8302  0.4330
10338TIP3    H252430   3.856   2.240   5.485 -2.2014  0.4561  0.5350
10339TIP3   OH252431   1.089   4.080   3.150  0.8413  0.3505 -0.2877
10339TIP3    H152432   1.150   4.140   3.193 -0.2804  0.4357  1.2538
10339TIP3    H252433   1.004   4.100   3.189  0.6078 -3.0882  1.2881
10340TIP3   OH252434   5.015   4.006   5.672  0.0957  0.0292  0.5662
10340TIP3    H152435   5.029   4.071   5.604 -1.1131 -1.0723 -0.7856
10340TIP3    H252436   4.979   3.930   5.627  0.9407 -1.4055  2.1756
10341TIP3   OH252437   0.931   1.264   2.273 -0.5707 -0.2240  0.5481
10341TIP3    H152438   0.906   1.349   2.310 -0.2956  0.7104 -1.2911
10341TIP3    H252439   0.879   1.256   2.193  2.2765  0.1509 -1.5171
10342TIP3   OH252440   4.016   2.430   1.892 -0.4789  0.2514  0.2458
10342TIP3    H152441   4.049   2.342   1.909 -1.0733  0.0585  0.4082
10342TIP3    H252442   4.053   2.453   1.806  0.2996  0.1523  0.5426
10343TIP3   OH252443   3.227   3.137   5.732 -0.3502 -0.3311  0.0277
10343TIP3    H152444   3.177   3.082   5.793  0.6883 -0.9700  0.3187
10343TIP3    H252445   3.316   3.102   5.735  0.2284  1.0580 -0.1606
10344TIP3   OH252446   5.748   1.589   5.711  0.1979  0.2252 -0.0847
10344TIP3    H152447   5.783   1.643   5.641 -0.2939 -0.0275 -0.5318
10344TIP3    H252448   5.773   1.499   5.687  0.4738  0.1838  0.3335
10345TIP3   OH252449   3.152   3.484  11.970  0.3229  0.0488 -0.0784
10345TIP3    H152450   3.237   3.491  12.012  1.4057 -1.9172 -1.7611
10345TIP3    H252451   3.133   3.572  11.940  1.4464  0.6519  0.8974
10346TIP3   OH252452   5.981   1.600  14.084  0.1828  0.4040  0.1778
10346TIP3    H152453   6.030   1.657  14.144  1.8625 -2.3653  1.6609
10346TIP3    H252454   5.917   1.556  14.140 -0.4200  0.1265 -0.7173
10347TIP3   OH252455   6.263   3.513  11.393  0.9737 -0.0380  0.1747
10347TIP3    H152456   6.258   3.498  11.488 -0.0151  0.4592  0.2118
10347TIP3    H252457   6.205   3.587  11.378 -0.3370 -1.2620 -1.0720
10348TIP3   OH252458   2.476   4.513  11.807  0.6175  0.2164  0.5793
10348TIP3    H152459   2.454   4.442  11.746  1.4765 -0.1180  0.6449
10348TIP3    H252460   2.403   4.516  11.868 -0.8233  1.2971 -1.1020
10349TIP3   OH252461   1.732   4.665  10.505 -0.1467  0.0117 -0.0660
10349TIP3    H152462   1.820   4.690  10.479 -0.2719  1.2371  0.5974
10349TIP3    H252463   1.715   4.715  10.585 -0.2084 -2.6981  1.7461
10350TIP3   OH252464   3.454   0.609   3.880  0.2494  0.0146 -0.6235
10350TIP3    H152465   3.549   0.598   3.885  0.2913 -0.0130 -1.3707
10350TIP3    H252466   3.426   0.541   3.820 -0.4506 -1.0211  0.8090
10351TIP3   OH252467   0.449   3.500   3.117  0.2864 -0.1372  0.2126
10351TIP3    H152468   0.517   3.565   3.131  0.9339 -0.4350 -1.3300
10351TIP3    H252469   0.496   3.420   3.094 -0.5289 -0.8991  1.0947
10352TIP3   OH252470   0.170   4.881  12.749  1.1412  0.0998  0.0341
10352TIP3    H152471   0.199   4.919  12.832  1.0891  1.6701 -0.6405
10352TIP3    H252472   0.075   4.891  12.750  1.2877  2.0187 -1.0632
10353TIP3   OH252473   2.678   2.295   3.193 -0.1749  0.4234  0.0511
10353TIP3    H152474   2.709   2.228   3.132  0.2953 -1.5041  2.2894
10353TIP3    H252475   2.753   2.353   3.204 -0.4804  1.2275 -1.6449
10354TIP3   OH252476   6.378   2.484   1.008 -0.3016  0.8459  0.3907
10354TIP3    H152477   6.447   2.418   1.021 -1.3110 -0.0078  1.7226
10354TIP3    H252478   6.302   2.433   0.981 -0.5619  1.7225 -0.5845
10355TIP3   OH252479   2.175   4.049   5.413  0.0597 -0.3157 -0.2380
10355TIP3    H152480   2.207   4.139   5.411 -2.3407  0.6610  0.6855
10355TIP3    H252481   2.218   4.009   5.488  2.3398 -0.5243 -1.5511
10356TIP3   OH252482   5.448   2.411   4.835 -0.1916  0.2804  0.3043
10356TIP3    H152483   5.542   2.405   4.816 -0.1941  0.8183  0.1077
10356TIP3    H252484   5.444   2.423   4.930 -0.0888 -0.3271  0.3880
10357TIP3   OH252485   5.363   3.747   0.977 -0.0287 -0.1974 -0.1625
10357TIP3    H152486   5.291   3.699   1.018 -0.1107 -0.1293 -0.2250
10357TIP3    H252487   5.394   3.806   1.045 -0.7001  0.4991 -0.4447
10358TIP3   OH252488   1.722   6.079   3.390  0.5142  0.3167  0.1057
10358TIP3    H152489   1.668   6.018   3.441 -1.5486  1.8503 -0.1476
10358TIP3    H252490   1.745   6.149   3.452  2.4717 -0.3898  0.2648
10359TIP3   OH252491   0.508   5.213   3.462 -0.1676  0.2345  0.3103
10359TIP3    H152492   0.483   5.214   3.370 -2.4390  0.2236  0.8672
10359TIP3    H252493   0.478   5.128   3.494  0.8356  0.1281  1.0268
10360TIP3   OH252494   1.325   2.212   1.928 -0.0442  0.5830  0.0850
10360TIP3    H152495   1.269   2.219   1.851 -0.7053  2.0110  0.6527
10360TIP3    H252496   1.396   2.153   1.901 -1.3871 -0.6376 -0.9041
10361TIP3   OH252497   0.936   2.472   2.710 -0.5865 -0.2901 -0.4709
10361TIP3    H152498   0.901   2.443   2.626 -1.8585  1.6528 -0.6837
10361TIP3    H252499   0.889   2.554   2.729  1.3166  0.5472  1.0091
10362TIP3   OH252500   6.298   4.479  16.637  0.0092 -0.2378 -0.0716
10362TIP3    H152501   6.224   4.538  16.622 -1.0413 -1.5525 -0.2409
10362TIP3    H252502   6.373   4.538  16.651 -1.3451  1.1667  1.7971
10363TIP3   OH252503   4.639   3.872  12.901  0.0556  0.7447  0.0731
10363TIP3    H152504   4.730   3.878  12.874 -0.1722  1.1741 -0.6270
10363TIP3    H252505   4.641   3.886  12.995  0.5967  1.8981 -0.0996
10364TIP3   OH252506   4.097   3.318  12.758  0.0046 -0.1908  0.0588
10364TIP3    H152507   4.130   3.315  12.668  1.2723  1.8465  0.3817
10364TIP3    H252508   4.174   3.301  12.813 -0.7257 -1.2678  0.7925
10365TIP3   OH252509   0.397   6.093  13.858 -0.3847  0.5974  0.3536
10365TIP3    H152510   0.387   6.044  13.777 -0.9955 -0.5347  1.0815
10365TIP3    H252511   0.312   6.137  13.870 -0.3870  0.5485  0.5192
10366TIP3   OH252512   0.455   2.442   3.006  0.4768  0.1781  0.0049
10366TIP3    H152513   0.414   2.456   3.092 -1.6808 -0.9479 -0.7567
10366TIP3    H252514   0.434   2.351   2.985  0.7250  0.5149 -1.8264
10367TIP3   OH252515   3.020   2.204   4.964  0.1471 -0.4579 -0.1831
10367TIP3    H152516   3.066   2.144   5.022 -0.2209 -1.3448 -0.7982
10367TIP3    H252517   3.083   2.275   4.948  0.9329 -1.1576 -0.2242
10368TIP3   OH252518   3.035   0.304  15.207  0.1849 -0.7095  0.6277
10368TIP3    H152519   3.057   0.222  15.163 -2.1465 -0.4918 -1.1321
10368TIP3    H252520   2.945   0.290  15.239 -0.2470  1.1421  0.3020
10369TIP3   OH252521   4.765   0.206   4.925  0.1156  0.3325 -0.1247
10369TIP3    H152522   4.850   0.185   4.963  0.4579  0.3971 -0.8364
10369TIP3    H252523   4.743   0.292   4.959  0.2571  0.2397  0.1970
10370TIP3   OH252524   5.552   0.043  11.898 -0.0555  0.3150  0.1413
10370TIP3    H152525   5.595  -0.042  11.891  0.2512  0.3827  1.0921
10370TIP3    H252526   5.459   0.022  11.904  0.0978 -0.0452  1.5936
10371TIP3   OH252527   6.648   6.342   4.611  0.3429 -0.6975 -0.1677
10371TIP3    H152528   6.717   6.395   4.653  0.2773 -0.0018 -0.9125
10371TIP3    H252529   6.586   6.406   4.577 -0.5391 -1.3129  0.2320
10372TIP3   OH252530   4.339   4.326  13.825  0.2929  0.3410  0.4013
10372TIP3    H152531   4.261   4.280  13.797  1.3279 -0.6146 -1.0303
10372TIP3    H252532   4.400   4.257  13.853  1.1177  0.9612  0.1891
10373TIP3   OH252533   1.898   6.208  13.405 -0.4221  0.2819  0.1163
10373TIP3    H152534   1.883   6.222  13.498  0.3177  2.4299 -0.0435
10373TIP3    H252535   1.874   6.291  13.364  0.1088 -0.3294 -1.5097
10374TIP3   OH252536   4.196   3.914  14.474 -0.6768  0.1659 -0.4234
10374TIP3    H152537   4.231   4.003  14.466 -0.1470 -0.1326 -1.5195
10374TIP3    H252538   4.131   3.908  14.404 -0.2599 -0.5256 -0.7495
10375TIP3   OH252539   3.440   1.264   5.610 -0.1116 -0.2081 -0.1892
10375TIP3    H152540   3.484   1.268   5.525  0.9224  0.2677  0.3474
10375TIP3    H252541   3.478   1.336   5.660  0.4866 -1.4370  1.2260
10376TIP3   OH252542   5.547   1.423   1.286 -0.5854 -0.5823  0.2251
10376TIP3    H152543   5.582   1.336   1.304 -2.0455 -1.3225 -0.3622
10376TIP3    H252544   5.624   1.480   1.284  0.4726 -1.9797 -0.0768
10377TIP3   OH252545   5.224   1.699  10.795 -0.0691 -0.1902  0.6284
10377TIP3    H152546   5.266   1.774  10.753 -0.2347  0.0622  0.9101
10377TIP3    H252547   5.297   1.648  10.831 -0.0297  1.0644  2.5073
10378TIP3   OH252548   2.122   5.043  11.250 -0.5795 -0.2273 -0.4025
10378TIP3    H152549   2.067   5.121  11.252  2.1621  1.8233 -0.4627
10378TIP3    H252550   2.164   5.040  11.335 -1.8738 -2.7236  0.2706
10379TIP3   OH252551   3.324   0.139  15.003 -0.7705 -0.2321 -0.2660
10379TIP3    H152552   3.333   0.079  14.929  2.6590  0.9807 -1.0201
10379TIP3    H252553   3.386   0.106  15.068 -1.7817  0.2624  0.9989
10380TIP3   OH252554   3.789   0.089  14.295 -0.0026  0.1231  0.0989
10380TIP3    H152555   3.737   0.036  14.235 -1.1064 -0.1414  1.2499
10380TIP3    H252556   3.768   0.179  14.272  1.0438  0.0767 -1.1417
10381TIP3   OH252557   5.808   0.909   4.003 -0.1795  0.2554  0.0337
10381TIP3    H152558   5.884   0.936   4.054 -0.2300  0.3700  0.0499
10381TIP3    H252559   5.753   0.862   4.065 -0.4753  0.8257  0.2177
10382TIP3   OH252560   6.699   2.898  16.216 -0.3278  0.0829 -0.2281
10382TIP3    H152561   6.683   2.874  16.125 -0.8349  0.8288 -0.3382
10382TIP3    H252562   6.654   2.981  16.228  1.4410  1.0363  0.1371
10383TIP3   OH252563   0.030   5.198  15.978 -0.3318 -0.2202 -0.1668
10383TIP3    H152564  -0.063   5.218  15.985 -0.4266 -0.9011  0.5998
10383TIP3    H252565   0.037   5.106  16.002  0.5552 -0.1432 -0.0929
10384TIP3   OH252566   0.762   1.406   4.543  0.7821  0.0490 -0.2637
10384TIP3    H152567   0.770   1.348   4.467 -0.2806 -0.4609 -0.0097
10384TIP3    H252568   0.852   1.430   4.565  1.6520 -3.9596  1.4842
10385TIP3   OH252569   4.115   3.152   6.446  0.0042  0.2710 -0.0106
10385TIP3    H152570   4.063   3.216   6.495 -1.0407 -0.1978 -0.4794
10385TIP3    H252571   4.052   3.085   6.420  1.1515 -1.1769  0.8236
10386TIP3   OH252572   1.516   0.895  15.451 -0.4412  0.2140  0.3071
10386TIP3    H152573   1.581   0.950  15.409 -0.7319  0.6099  0.3697
10386TIP3    H252574   1.556   0.867  15.533 -0.9219  1.7184  1.0872
10387TIP3   OH252575   6.174   1.438   4.250  0.4712  0.2854  0.0040
10387TIP3    H152576   6.195   1.391   4.331 -0.6602 -0.0185  0.1345
10387TIP3    H252577   6.200   1.528   4.268  1.7012 -0.0710  0.1232
10388TIP3   OH252578   1.403   3.933  11.923 -0.1570 -0.0813 -0.0985
10388TIP3    H152579   1.392   4.022  11.956 -1.2054 -0.1339 -0.2678
10388TIP3    H252580   1.462   3.891  11.986 -0.2224  0.5243  0.3761
10389TIP3   OH252581   3.043   0.355   0.560 -0.5018  0.2599 -0.2168
10389TIP3    H152582   3.112   0.291   0.576 -0.6656  0.5348  1.7632
10389TIP3    H252583   3.088   0.439   0.556 -0.4860  0.2215 -1.1968
10390TIP3   OH252584   2.556   1.010  15.103 -0.6526  0.0316  0.3341
10390TIP3    H152585   2.536   0.945  15.036 -0.7762  0.6856 -0.2866
10390TIP3    H252586   2.645   1.040  15.082  0.1585 -1.2755  1.7521
10391TIP3   OH252587   6.313   5.197  12.945  0.4230 -0.0261  0.2872
10391TIP3    H152588   6.320   5.161  12.856 -1.2978  0.3979 -0.0452
10391TIP3    H252589   6.314   5.120  13.002  3.3058 -0.2450  0.0959
10392TIP3   OH252590   4.729   1.315  12.595 -0.3181  0.4663  0.4260
10392TIP3    H152591   4.671   1.239  12.594  0.1079  0.1352  0.4437
10392TIP3    H252592   4.753   1.328  12.503  0.5792 -0.1834  0.5535
10393TIP3   OH252593   5.541   2.141   3.243 -0.5766  0.1098  0.0775
10393TIP3    H152594   5.595   2.062   3.243  0.0279  0.4772  1.8771
10393TIP3    H252595   5.567   2.188   3.163  0.6026 -0.4950  0.0834
10394TIP3   OH252596   4.857   2.256  16.916 -0.3294  0.8534 -0.1827
10394TIP3    H152597   4.869   2.283  17.007  0.7994 -0.2274  0.0057
10394TIP3    H252598   4.765   2.228  16.912 -0.4548  1.1340  0.5447
10395TIP3   OH252599   3.506   2.628  16.227  0.2015 -0.2993 -0.4210
10395TIP3    H152600   3.524   2.689  16.299  0.8442 -0.2293 -0.6278
10395TIP3    H252601   3.429   2.665  16.183 -0.4733 -0.5899  0.4890
10396TIP3   OH252602   1.985   6.394   6.485  0.1373 -0.1870  0.7637
10396TIP3    H152603   2.018   6.351   6.564  1.5907 -0.6454 -0.0531
10396TIP3    H252604   2.024   6.481   6.488  0.9121 -0.5061  0.1202
10397TIP3   OH252605   1.510   1.420  15.963  0.4245 -0.1222  0.5173
10397TIP3    H152606   1.506   1.343  16.019  1.7297  0.2834  1.1981
10397TIP3    H252607   1.593   1.412  15.916 -0.5821 -0.3953 -1.3103
10398TIP3   OH252608   2.541   1.521  12.276  0.3539 -0.1487  0.4278
10398TIP3    H152609   2.492   1.439  12.268  0.5488 -0.1641 -0.8502
10398TIP3    H252610   2.474   1.589  12.282  0.1922 -0.3838  1.3949
10399TIP3   OH252611   1.249   4.525   4.450  0.0043  0.2717 -0.1580
10399TIP3    H152612   1.297   4.443   4.459  0.6818  0.8685  2.3181
10399TIP3    H252613   1.316   4.593   4.450 -0.5771  0.8922 -1.6364
10400TIP3   OH252614   0.978   6.487   0.140 -0.6291  0.1300 -0.1454
10400TIP3    H152615   0.945   6.427   0.074 -0.5926  0.1516 -0.1830
10400TIP3    H252616   0.900   6.514   0.189 -0.7087  0.4129 -0.4244
10401TIP3   OH252617   2.905   0.285   1.792 -0.0502 -0.1594 -0.0111
10401TIP3    H152618   2.859   0.202   1.783 -0.4641  0.0558  0.0565
10401TIP3    H252619   2.930   0.289   1.884 -1.4264  0.4887  0.3698
10402TIP3   OH252620   5.561   0.973   1.320  0.0119 -0.4719  0.1652
10402TIP3    H152621   5.607   1.053   1.295  0.9051 -1.1422 -0.4023
10402TIP3    H252622   5.627   0.920   1.365 -0.4511 -1.0606  0.1722
10403TIP3   OH252623   2.267   6.438  11.362 -0.0476  0.3057  0.3394
10403TIP3    H152624   2.229   6.486  11.288 -0.6839 -0.0220  0.4571
10403TIP3    H252625   2.313   6.364  11.322  1.2938  1.2067  0.1202
10404TIP3   OH252626   4.334   5.817   0.995 -0.6667  0.4915  0.2169
10404TIP3    H152627   4.282   5.897   0.992  0.9270  1.5623 -0.6894
10404TIP3    H252628   4.423   5.846   0.976 -0.0178 -1.5012 -0.0358
10405TIP3   OH252629   2.331   2.483  14.862 -0.5733 -0.1966 -1.1096
10405TIP3    H152630   2.319   2.549  14.793 -0.3229  0.4541 -0.5438
10405TIP3    H252631   2.321   2.399  14.817 -0.7371  0.2245 -1.8769
10406TIP3   OH252632   1.233   6.540   1.965 -0.7703  0.3091 -0.6627
10406TIP3    H152633   1.288   6.598   2.017 -1.1687  1.0323 -1.0488
10406TIP3    H252634   1.254   6.452   1.999 -0.7151  0.7212  0.4264
10407TIP3   OH252635   2.091   5.799  11.635 -0.0620 -0.1202 -0.0478
10407TIP3    H152636   2.009   5.846  11.622  0.3281  0.9685  1.0972
10407TIP3    H252637   2.157   5.869  11.637  1.1446 -1.0861 -2.5945
10408TIP3   OH252638   0.586   4.669  11.731  0.3513 -0.4221 -0.7164
10408TIP3    H152639   0.572   4.685  11.824 -1.7282  1.0083 -1.2099
10408TIP3    H252640   0.628   4.749  11.699 -0.1790 -0.3505 -1.2438
10409TIP3   OH252641   2.640   6.191   4.246 -0.4808  0.1248  0.1283
10409TIP3    H152642   2.549   6.194   4.274 -0.8354 -1.8205 -0.7010
10409TIP3    H252643   2.636   6.195   4.151  0.3431  0.4560  0.0986
10410TIP3   OH252644   5.974   2.170  15.356 -0.7912 -0.2621 -0.1920
10410TIP3    H152645   5.929   2.144  15.276 -1.9843 -0.1342  0.3968
10410TIP3    H252646   5.982   2.089  15.406 -1.0673 -0.1581  0.0262
10411TIP3   OH252647   2.645   1.150   1.209 -0.4205  0.0631 -0.3038
10411TIP3    H152648   2.616   1.064   1.179 -0.3629 -0.2024  0.3803
10411TIP3    H252649   2.650   1.203   1.130 -0.6037 -0.5217 -0.7107
10412TIP3   OH252650   1.425   2.624   3.679 -0.2459  0.0584  0.0023
10412TIP3    H152651   1.438   2.544   3.728  1.4042  0.1312 -0.2722
10412TIP3    H252652   1.503   2.677   3.696 -0.7987  1.1519 -0.6781
10413TIP3   OH252653   6.693   5.899   5.110  0.6188  0.6624 -0.2948
10413TIP3    H152654   6.664   5.848   5.185 -0.7511  1.8459  0.0376
10413TIP3    H252655   6.627   5.882   5.043 -0.3284  2.5673  0.0971
10414TIP3   OH252656   6.223   6.434   3.465 -0.9088  0.1315 -1.1447
10414TIP3    H152657   6.236   6.504   3.401 -3.0222  0.6936 -1.0124
10414TIP3    H252658   6.132   6.443   3.493  0.2441  0.7719  3.0062
10415TIP3   OH252659   3.008   1.605  11.173  0.4131  0.5071 -0.2521
10415TIP3    H152660   2.999   1.613  11.268  1.4968 -1.4618  0.0633
10415TIP3    H252661   3.099   1.631  11.155  0.4145  0.2375 -0.6536
10416TIP3   OH252662   1.605   5.861   3.530  0.5157 -0.7296 -0.2954
10416TIP3    H152663   1.604   5.900   3.617  1.7683 -0.0057 -0.5832
10416TIP3    H252664   1.592   5.767   3.546 -0.0981 -0.5007  0.6002
10417TIP3   OH252665   0.914   5.697  17.144  0.0434 -0.2661 -0.5563
10417TIP3    H152666   0.907   5.657  17.231 -0.3886  1.3645  0.1842
10417TIP3    H252667   1.002   5.673  17.114  0.2901 -0.6420  0.4159
10418TIP3   OH252668   4.560   6.050  13.932  0.5735  0.4984 -0.0505
10418TIP3    H152669   4.600   6.093  13.856  1.0112  0.4948  0.1781
10418TIP3    H252670   4.499   5.987  13.894  0.8444  0.4473 -0.4049
10419TIP3   OH252671   5.254   0.806  16.609 -1.1424 -0.2123  0.3070
10419TIP3    H152672   5.230   0.894  16.637  0.9986  0.5074  0.0600
10419TIP3    H252673   5.349   0.810  16.596 -1.2265 -2.1062 -1.3682
10420TIP3   OH252674   0.043   4.061  15.827 -0.2273 -0.4848 -0.6432
10420TIP3    H152675   0.016   4.152  15.841  0.8559 -0.1272 -0.7910
10420TIP3    H252676   0.018   4.043  15.736 -1.6438 -0.7876 -0.2212
10421TIP3   OH252677   6.688   0.110   0.593  0.2822 -0.0667  0.1582
10421TIP3    H152678   6.765   0.095   0.648 -0.6279  0.4092  1.6279
10421TIP3    H252679   6.634   0.031   0.605 -0.9321  0.9286  1.7731
10422TIP3   OH252680   4.946   6.499   6.117  0.2423  0.3289 -0.3033
10422TIP3    H152681   5.024   6.541   6.153 -0.4791 -0.4098  2.3225
10422TIP3    H252682   4.954   6.408   6.143 -1.4458  0.2235 -0.0826
10423TIP3   OH252683   4.432   1.155  16.310 -0.2663  0.1001 -0.4361
10423TIP3    H152684   4.464   1.199  16.389 -0.5807  0.8349 -0.7210
10423TIP3    H252685   4.470   1.067  16.316  0.4090  0.4157  0.1037
10424TIP3   OH252686   2.358   5.122  15.108 -0.1664 -0.1056  0.3697
10424TIP3    H152687   2.377   5.031  15.126  0.5499 -0.3591 -1.4441
10424TIP3    H252688   2.266   5.123  15.082 -0.0797 -0.3859  0.0437
10425TIP3   OH252689   2.744   3.873  16.714  0.3451 -0.0092 -0.2744
10425TIP3    H152690   2.715   3.790  16.754 -0.0009 -0.0598 -0.6258
10425TIP3    H252691   2.791   3.918  16.785 -1.6991  0.6490  0.7707
10426TIP3   OH252692   2.396   0.546  15.711  0.2677 -0.0186  0.5245
10426TIP3    H152693   2.426   0.455  15.717  2.9280  0.8174  1.7102
10426TIP3    H252694   2.406   0.568  15.618 -1.5081 -1.2044  0.0004
10427TIP3   OH252695   6.503   3.416   0.047 -0.0416  0.2022  0.1922
10427TIP3    H152696   6.505   3.373  -0.039 -0.3459 -0.4691  0.5158
10427TIP3    H252697   6.441   3.488   0.036  0.4386  0.5475 -0.3397
10428TIP3   OH252698   4.278   3.422  17.350 -0.0141 -0.2989 -0.5101
10428TIP3    H152699   4.211   3.480  17.314  0.8050  0.0498 -1.5085
10428TIP3    H252700   4.234   3.338  17.362 -1.5943  0.7627  2.1401
10429TIP3   OH252701   1.636   5.600  14.565  0.4304  0.2796  0.7498
10429TIP3    H152702   1.730   5.618  14.562  0.5246 -0.0738  1.4541
10429TIP3    H252703   1.604   5.624  14.477  0.1761  5.7356  1.9912
10430TIP3   OH252704   3.674   3.164  14.227 -0.0311  0.1411 -0.3820
10430TIP3    H152705   3.700   3.103  14.295 -1.0681 -2.7447 -2.4026
10430TIP3    H252706   3.585   3.138  14.203 -0.7833  2.8747 -0.9619
10431TIP3   OH252707   2.768   5.247  17.110  0.0711  0.5765 -0.4631
10431TIP3    H152708   2.794   5.159  17.082 -0.8636  0.6667 -1.7051
10431TIP3    H252709   2.851   5.289  17.136  0.4580 -0.8623  0.8369
10432TIP3   OH252710   5.796   4.880   2.344 -0.1663  0.3354  0.3981
10432TIP3    H152711   5.858   4.940   2.304 -0.6016  1.5280  1.4174
10432TIP3    H252712   5.713   4.897   2.298 -0.1402  0.0518  0.2479
10433TIP3   OH252713   3.591   3.444   4.461 -0.5592  0.2227 -0.0487
10433TIP3    H152714   3.627   3.432   4.549 -0.0187  4.1036  0.4223
10433TIP3    H252715   3.661   3.415   4.402 -0.2986 -0.8556  0.7614
10434TIP3   OH252716   2.412   4.684  16.799 -0.3964 -0.8029 -0.0389
10434TIP3    H152717   2.384   4.694  16.890  0.4570  1.9392  0.0080
10434TIP3    H252718   2.500   4.646  16.805 -1.2670 -2.9343  0.1036
10435TIP3   OH252719   0.851   1.503  12.150 -0.2933 -0.4585  0.1249
10435TIP3    H152720   0.917   1.444  12.186 -1.3885 -2.7011 -1.3655
10435TIP3    H252721   0.897   1.587  12.141  0.9305 -0.6178  3.5140
10436TIP3   OH252722   2.522   2.141  11.975 -0.0679 -0.1760  0.4287
10436TIP3    H152723   2.597   2.199  11.989 -0.7237  0.6425  0.6362
10436TIP3    H252724   2.483   2.172  11.893 -1.2276  0.6110  1.2366
10437TIP3   OH252725   5.930   0.696  12.901  0.5187 -0.2268 -0.0773
10437TIP3    H152726   5.934   0.620  12.844 -1.1555 -2.3339  2.4045
10437TIP3    H252727   5.992   0.677  12.971  0.7299  1.1531  0.1439
10438TIP3   OH252728   3.989   1.149  14.382 -0.2672  0.0615  0.1023
10438TIP3    H152729   3.909   1.103  14.357 -0.1617 -0.8428  1.3331
10438TIP3    H252730   4.020   1.103  14.460 -0.5811  2.6130  1.9018
10439TIP3   OH252731   1.448   6.431  11.884  0.0015  0.1169 -0.0771
10439TIP3    H152732   1.516   6.429  11.816  0.1405  1.7716 -0.0505
10439TIP3    H252733   1.376   6.381  11.848  0.2294  0.6322 -1.3050
10440TIP3   OH252734   5.221   3.724   1.609 -0.1203  0.2769 -0.5498
10440TIP3    H152735   5.182   3.809   1.627 -0.3329 -0.0652  0.7207
10440TIP3    H252736   5.149   3.662   1.620  0.2485 -0.1551 -0.5204
10441TIP3   OH252737   0.294   6.509  12.871 -0.4008  0.7287 -0.5263
10441TIP3    H152738   0.239   6.578  12.834 -1.9378  0.2703  0.7590
10441TIP3    H252739   0.268   6.504  12.963 -0.1812 -1.3959 -0.5125
10442TIP3   OH252740   0.689   3.833  11.044 -0.1060  0.3285 -0.4829
10442TIP3    H152741   0.636   3.755  11.028  0.3979 -0.2001  0.3007
10442TIP3    H252742   0.633   3.890  11.096 -0.4925  0.5084 -1.0945
10443TIP3   OH252743   1.810   1.837  11.725 -0.4566 -0.1492  0.0056
10443TIP3    H152744   1.871   1.821  11.797 -0.5070  1.9727  0.5910
10443TIP3    H252745   1.731   1.871  11.767 -0.8764  0.1250 -0.9738
10444TIP3   OH252746   5.305   5.476  12.741  0.0568  0.8696 -0.8164
10444TIP3    H152747   5.334   5.486  12.831  0.4794 -1.1087 -0.6893
10444TIP3    H252748   5.216   5.510  12.740 -0.7581 -1.0014  0.8979
10445TIP3   OH252749   2.629   2.788   5.856 -0.0765  0.2885 -0.0414
10445TIP3    H152750   2.616   2.859   5.794  0.4562 -0.2917 -0.8362
10445TIP3    H252751   2.581   2.714   5.818 -0.8315  0.2648  0.8924
10446TIP3   OH252752   4.846   0.339  16.605 -0.3520  0.2850  0.4920
10446TIP3    H152753   4.767   0.301  16.566  1.1641 -1.3967 -1.1517
10446TIP3    H252754   4.898   0.263  16.632  2.2856  1.1117 -1.7884
10447TIP3   OH252755   0.764   4.599  16.971 -0.1122 -0.0293  0.2263
10447TIP3    H152756   0.768   4.504  16.961 -0.4514  0.0699 -0.9850
10447TIP3    H252757   0.836   4.620  17.031  1.8470 -0.7862 -1.7194
10448TIP3   OH252758   5.524   5.384   1.734  0.2182 -0.6033  0.0214
10448TIP3    H152759   5.524   5.475   1.766  1.4908 -0.3976 -0.4846
10448TIP3    H252760   5.510   5.392   1.639 -0.7753 -1.0165  0.1282
10449TIP3   OH252761   3.348   5.357   3.078 -0.1981 -0.3417  0.2710
10449TIP3    H152762   3.259   5.374   3.108  0.5577  3.6994  0.8247
10449TIP3    H252763   3.403   5.372   3.155  1.0996 -1.1553 -0.4573
10450TIP3   OH252764   0.650   4.124   0.497  0.5423 -0.1938  0.2056
10450TIP3    H152765   0.612   4.145   0.411 -0.9856 -2.3632  0.2904
10450TIP3    H252766   0.737   4.164   0.494  0.2307  0.4879 -2.0273
10451TIP3   OH252767   5.113   4.440  17.336 -0.0087  0.3758 -0.2884
10451TIP3    H152768   5.130   4.515  17.393  1.4440  0.6118 -0.9902
10451TIP3    H252769   5.100   4.367  17.396  0.5695  0.7939  0.3627
10452TIP3   OH252770   5.364   1.918  11.715  0.3706  0.6917 -0.2451
10452TIP3    H152771   5.432   1.950  11.774  1.4406  0.2041 -1.1711
10452TIP3    H252772   5.394   1.831  11.689 -1.3201 -0.1270  0.3981
10453TIP3   OH252773   1.014   0.802   0.632 -0.1198 -0.1420  0.0004
10453TIP3    H152774   1.010   0.873   0.567 -0.9442 -0.5398 -0.3962
10453TIP3    H252775   1.108   0.788   0.646  0.0634  1.0891  0.1627
10454TIP3   OH252776   5.303   0.170   1.665  0.0947 -0.0428 -0.1666
10454TIP3    H152777   5.373   0.119   1.706 -0.4449  0.4198  1.4028
10454TIP3    H252778   5.224   0.116   1.678 -0.2802  0.6361  0.4762
10455TIP3   OH252779   3.569   4.800  16.938  0.3343 -0.3317 -0.1556
10455TIP3    H152780   3.543   4.887  16.908 -1.4782 -0.3859  1.0671
10455TIP3    H252781   3.622   4.816  17.017 -1.5682 -0.3014  1.1885
10456TIP3   OH252782   0.198   3.847   6.334  0.3673 -0.2342 -0.4569
10456TIP3    H152783   0.289   3.844   6.363 -0.0763  1.2947  1.2512
10456TIP3    H252784   0.154   3.903   6.398 -1.4351  0.4280 -2.1794
10457TIP3   OH252785   5.728   0.060  15.386  0.0030 -0.6406 -0.2644
10457TIP3    H152786   5.772   0.128  15.438 -2.2358 -0.9514  2.2657
10457TIP3    H252787   5.662   0.108  15.336  0.6079 -0.6163 -1.0559
10458TIP3   OH252788   2.264   6.148  15.819  0.0851 -0.3936  0.4353
10458TIP3    H152789   2.247   6.160  15.912  1.1469 -1.0944  0.7431
10458TIP3    H252790   2.238   6.231  15.778  1.0568  0.4930  1.5623
10459TIP3   OH252791   4.658   1.652   6.424 -0.4803  0.4915  0.5939
10459TIP3    H152792   4.655   1.655   6.520  0.3787 -3.6914  0.9741
10459TIP3    H252793   4.619   1.567   6.402  0.7162  0.6480 -2.6535
10460TIP3   OH252794   2.105   4.647  15.979  0.1914 -0.2928 -0.4283
10460TIP3    H152795   2.108   4.718  16.042 -2.2554 -0.3763 -0.1440
10460TIP3    H252796   2.108   4.691  15.894 -0.0166  0.0759 -0.2486
10461TIP3   OH252797   5.852   1.535   3.122 -0.5126 -0.8267  0.1626
10461TIP3    H152798   5.940   1.556   3.090 -0.8855 -0.7888 -0.8877
10461TIP3    H252799   5.861   1.450   3.164  0.3658 -0.0491  1.6127
10462TIP3   OH252800   5.772   3.007   2.843 -0.1634 -0.3167  0.3386
10462TIP3    H152801   5.864   3.016   2.871  0.7917  2.1193 -2.9983
10462TIP3    H252802   5.775   2.942   2.772 -1.0210 -0.1202  0.1130
10463TIP3   OH252803   5.579   2.869  14.420  1.2492  0.2102  0.5018
10463TIP3    H152804   5.623   2.785  14.427  0.6921 -0.2399 -1.0368
10463TIP3    H252805   5.632   2.919  14.357 -0.7105 -0.6165 -1.9854
10464TIP3   OH252806   2.008   0.410  17.127 -0.7696  0.0320  0.2757
10464TIP3    H152807   1.965   0.475  17.072 -0.6160 -0.3667 -0.3232
10464TIP3    H252808   1.964   0.328  17.107  0.5483 -0.4810 -0.7148
10465TIP3   OH252809   0.990   2.191   1.038 -0.4240 -0.4458 -0.0320
10465TIP3    H152810   0.897   2.176   1.021 -0.5814  1.3441 -0.9332
10465TIP3    H252811   1.017   2.256   0.973  1.4200 -0.7693  0.3413
10466TIP3   OH252812   4.964   3.557  15.396 -0.1689  0.2122 -0.1751
10466TIP3    H152813   4.905   3.482  15.387  0.9799 -0.6219 -1.2053
10466TIP3    H252814   4.941   3.596  15.480 -0.4996 -1.5849  0.6106
10467TIP3   OH252815   0.655   3.537   2.461 -0.1166 -0.2016  0.0152
10467TIP3    H152816   0.591   3.533   2.390  0.0209 -2.2842 -0.0531
10467TIP3    H252817   0.607   3.575   2.535 -0.6008  0.8625 -0.8198
10468TIP3   OH252818   4.281   4.920  14.114 -0.2384 -0.6124 -0.2714
10468TIP3    H152819   4.197   4.874  14.115 -0.7354  0.2570  0.8031
10468TIP3    H252820   4.293   4.947  14.023 -1.3978 -0.2952 -0.3517
10469TIP3   OH252821   5.981   1.133  16.281 -0.2527 -0.4980  0.3597
10469TIP3    H152822   6.030   1.057  16.313  0.6681 -0.2182 -0.3362
10469TIP3    H252823   5.947   1.106  16.196  3.3931  1.0542 -1.8206
10470TIP3   OH252824   0.991   0.670  13.302  0.2910 -0.2244 -0.3137
10470TIP3    H152825   1.046   0.690  13.378 -1.0254 -2.2658  1.2698
10470TIP3    H252826   1.040   0.706  13.228  1.9865  1.2109  1.3827
10471TIP3   OH252827   3.232   1.752  13.949 -0.1170 -0.7918 -0.0036
10471TIP3    H152828   3.217   1.700  14.029 -2.1462 -1.1211 -0.5568
10471TIP3    H252829   3.195   1.699  13.879 -0.0776  0.3618 -0.9118
10472TIP3   OH252830   2.220   5.477  16.538  0.2371 -0.5784 -0.4568
10472TIP3    H152831   2.245   5.548  16.480 -1.5355  0.5651  0.0711
10472TIP3    H252832   2.148   5.433  16.493 -0.4846 -0.3053  0.3950
10473TIP3   OH252833   2.619   5.654   3.060 -0.0603 -0.2823 -0.0167
10473TIP3    H152834   2.693   5.705   3.094  0.7466 -1.6457  0.3358
10473TIP3    H252835   2.543   5.711   3.074  0.4671 -0.0657  2.5169
10474TIP3   OH252836   4.775   1.657   2.419 -0.1854 -0.0092  0.1567
10474TIP3    H152837   4.841   1.597   2.384  0.5810  1.3690 -0.8859
10474TIP3    H252838   4.804   1.677   2.508  0.1237 -0.3702  0.1371
10475TIP3   OH252839   1.047   2.721  15.216 -0.1634  0.2446  0.1099
10475TIP3    H152840   1.133   2.683  15.233 -0.9043 -1.8872 -0.6711
10475TIP3    H252841   1.021   2.687  15.130 -1.2128  1.9659 -0.3149
10476TIP3   OH252842   5.824   0.754   2.974 -0.1904  0.3445  0.1549
10476TIP3    H152843   5.763   0.735   3.045 -0.4544  1.5397  0.2697
10476TIP3    H252844   5.788   0.709   2.897 -0.2135 -0.4653  0.6268
10477TIP3   OH252845   0.562   6.044  14.363 -0.1759  0.1208  0.2465
10477TIP3    H152846   0.601   6.126  14.392 -2.1365  1.1727  0.1065
10477TIP3    H252847   0.597   5.978  14.422  2.7181  0.7277 -0.6536
10478TIP3   OH252848   1.917   3.173  11.667 -0.2626 -0.2941 -0.1877
10478TIP3    H152849   1.904   3.170  11.762  1.9630 -0.5517  0.1740
10478TIP3    H252850   1.973   3.097  11.649 -1.0787 -0.5413 -1.7964
10479TIP3   OH252851   5.840   0.880   1.366  0.2933  0.0300 -0.0185
10479TIP3    H152852   5.828   0.789   1.394  1.7321 -0.5753 -1.2376
10479TIP3    H252853   5.923   0.880   1.319  0.6434  2.1246  0.4920
10480TIP3   OH252854   1.667   6.225   0.876 -0.1853 -0.3348 -0.6071
10480TIP3    H152855   1.597   6.195   0.818 -1.3681  0.6797  0.2380
10480TIP3    H252856   1.665   6.321   0.868 -1.1631 -0.0717  1.9286
10481TIP3   OH252857   3.760   2.410  13.702  0.3721  0.0104 -0.2020
10481TIP3    H152858   3.727   2.364  13.624  0.2007  1.5316 -1.0591
10481TIP3    H252859   3.841   2.452  13.672  0.7467 -0.0700  0.6769
10482TIP3   OH252860   0.076   6.108   4.859  0.2183  0.2084 -0.0742
10482TIP3    H152861   0.092   6.125   4.766 -0.2164  2.0468  0.1574
10482TIP3    H252862   0.123   6.026   4.877  0.8106  0.1454 -1.7572
10483TIP3   OH252863   0.329   1.875  16.671 -0.2146  0.0203 -0.3341
10483TIP3    H152864   0.318   1.792  16.627  0.2901 -0.5578  0.5911
10483TIP3    H252865   0.398   1.920  16.622  1.2100 -1.1286  0.5535
10484TIP3   OH252866   6.655   3.865  13.894 -0.3719  0.0884 -0.3828
10484TIP3    H152867   6.652   3.775  13.861  0.0317 -0.8271  1.8542
10484TIP3    H252868   6.575   3.905  13.861 -0.9470 -1.3403 -0.8196
10485TIP3   OH252869   4.700   0.530   1.271 -0.2484 -0.3039  0.0316
10485TIP3    H152870   4.716   0.620   1.243  0.3646  0.1537  1.7530
10485TIP3    H252871   4.698   0.480   1.189  0.3755  1.1178 -0.8976
10486TIP3   OH252872   5.660   4.628  13.624  0.2575  0.0983 -0.0846
10486TIP3    H152873   5.632   4.688  13.693  1.6466  0.1399  0.4628
10486TIP3    H252874   5.592   4.561  13.622 -0.4473  0.7794  0.4479
10487TIP3   OH252875   2.037   6.574  15.506 -0.0619  0.0509 -0.2275
10487TIP3    H152876   1.967   6.606  15.450  0.4916  1.0859 -0.3535
10487TIP3    H252877   2.098   6.648  15.513 -0.3728  0.1665  2.1645
10488TIP3   OH252878   2.015   4.698  17.076  0.0313  0.2372 -0.2521
10488TIP3    H152879   2.031   4.787  17.045 -0.6092  0.7177  0.7471
10488TIP3    H252880   2.027   4.643  16.999  3.0361  0.8736 -0.3888
10489TIP3   OH252881   2.272   6.051   4.578 -0.1033  0.5283  0.1165
10489TIP3    H152882   2.253   5.958   4.572 -0.3639  0.6670 -2.1755
10489TIP3    H252883   2.367   6.055   4.594 -0.3666 -0.0902  2.0834
10490TIP3   OH252884   1.349   5.443   4.957 -0.5866  0.1494  0.1252
10490TIP3    H152885   1.412   5.386   5.001  0.3874  0.4046 -0.9119
10490TIP3    H252886   1.292   5.474   5.028  0.6765  0.2218  1.1457
10491TIP3   OH252887   0.594   0.130   0.263 -0.1486  0.2468  0.3126
10491TIP3    H152888   0.530   0.081   0.314  0.8354 -0.3578  1.0122
10491TIP3    H252889   0.588   0.092   0.175 -0.0807 -0.4749  0.6091
10492TIP3   OH252890   3.742   5.204   3.584 -0.0979 -0.0723  0.5720
10492TIP3    H152891   3.710   5.156   3.507 -0.3340 -0.2215  0.7637
10492TIP3    H252892   3.768   5.136   3.646 -0.3789  0.0474  0.8237
10493TIP3   OH252893   5.016   0.826  13.526  0.2962 -0.2340 -0.4501
10493TIP3    H152894   5.056   0.888  13.587 -0.9738 -0.4011  0.5977
10493TIP3    H252895   5.059   0.743  13.545 -0.3785 -0.3788  0.5561
10494TIP3   OH252896   0.718   6.581  12.103 -0.6220 -0.2458  0.1172
10494TIP3    H152897   0.638   6.530  12.115 -0.2050 -0.7458  0.8103
10494TIP3    H252898   0.693   6.651  12.042 -2.1488  0.8839  1.9570
10495TIP3   OH252899   4.186   1.185   0.048 -0.9582 -0.4954  0.5537
10495TIP3    H152900   4.272   1.147   0.065  0.5307  1.5521 -1.6948
10495TIP3    H252901   4.184   1.266   0.100 -1.2298 -0.1892  0.0793
10496TIP3   OH252902   5.586   3.138   1.489 -0.0278  0.0840  0.3617
10496TIP3    H152903   5.564   3.061   1.542 -0.4869  0.9122  1.4074
10496TIP3    H252904   5.534   3.209   1.526  0.6461  0.9851 -0.3573
10497TIP3   OH252905   2.970   5.763  14.917 -1.1061 -0.2415  0.2768
10497TIP3    H152906   3.054   5.718  14.901 -0.4903  1.0247 -0.1600
10497TIP3    H252907   2.963   5.766  15.012 -1.6272 -2.0696  0.3369
10498TIP3   OH252908   4.063   1.935   4.408 -0.2209  0.3718  0.2160
10498TIP3    H152909   4.131   1.868   4.412 -0.0490  0.4326 -1.1166
10498TIP3    H252910   3.981   1.886   4.411 -0.0966  0.0993 -0.5671
10499TIP3   OH252911   6.512   5.871  15.997 -0.2446 -0.2375 -0.2207
10499TIP3    H152912   6.511   5.948  15.940 -1.3109 -1.0573 -1.3705
10499TIP3    H252913   6.603   5.842  15.998  0.3820  1.6115  1.0737
10500TIP3   OH252914   5.919   6.113  11.163  0.1161  1.0047 -0.1167
10500TIP3    H152915   5.876   6.120  11.077  0.9988  2.7760 -0.4478
10500TIP3    H252916   6.000   6.162  11.153 -0.2634  2.1713  2.0481
10501TIP3   OH252917   6.266   3.851   1.211  0.2005  0.2415  0.4554
10501TIP3    H152918   6.201   3.818   1.149  1.0119  1.3682 -1.0444
10501TIP3    H252919   6.289   3.774   1.264 -0.8973 -0.6229 -0.2743
10502TIP3   OH252920   4.571   3.368   0.811  0.0461  0.0641  0.2392
10502TIP3    H152921   4.493   3.396   0.764 -0.2050  0.9773  1.1607
10502TIP3    H252922   4.538   3.312   0.881  0.3065 -0.3248  0.0556
10503TIP3   OH252923   5.454   3.406   6.325 -0.0670 -0.5566  0.4797
10503TIP3    H152924   5.424   3.495   6.307  2.5426  0.1435 -0.8894
10503TIP3    H252925   5.518   3.416   6.395  2.4260 -0.8478 -1.6453
10504TIP3   OH252926   0.123   3.892  16.521 -0.2037  0.6640  0.7398
10504TIP3    H152927   0.118   3.930  16.609 -1.3586 -0.1959  1.0810
10504TIP3    H252928   0.191   3.825  16.528 -1.0945 -0.2033  1.3283
10505TIP3   OH252929   0.499   6.317   0.532  0.1245 -0.5220  0.3381
10505TIP3    H152930   0.519   6.240   0.479 -0.5959 -0.2252 -0.3851
10505TIP3    H252931   0.425   6.358   0.488  0.2288  0.3572  0.9546
10506TIP3   OH252932   1.123   1.391   5.157 -0.1333 -0.4000 -0.3451
10506TIP3    H152933   1.059   1.392   5.228  0.0705 -0.3903 -0.1595
10506TIP3    H252934   1.072   1.371   5.078 -0.7450  1.9166 -0.5885
10507TIP3   OH252935   6.211   5.625   2.552  0.2382 -0.1840  0.1846
10507TIP3    H152936   6.169   5.558   2.606  0.1775 -0.6938 -0.4784
10507TIP3    H252937   6.304   5.618   2.572  0.1970 -0.2488  0.3538
10508TIP3   OH252938   0.881   2.524   3.631 -0.2088 -0.0359  0.1138
10508TIP3    H152939   0.931   2.511   3.712  0.7607  0.7224 -0.3386
10508TIP3    H252940   0.842   2.438   3.612 -1.0106 -0.0707  1.7260
10509TIP3   OH252941   5.145   1.410  14.916 -0.4056 -0.4640  0.5429
10509TIP3    H152942   5.100   1.331  14.945 -1.3849  0.5362  1.9045
10509TIP3    H252943   5.074   1.473  14.900  0.3994  0.5311  0.7549
10510TIP3   OH252944   3.799   4.894  13.625  0.7627 -0.0449 -0.0668
10510TIP3    H152945   3.786   4.831  13.554 -1.2225 -0.2111  0.3821
10510TIP3    H252946   3.855   4.848  13.687  0.8054 -0.6863 -0.5694
10511TIP3   OH252947   6.034   1.787  16.212 -0.2358  0.2179  0.5462
10511TIP3    H152948   6.036   1.842  16.134 -1.0419  1.4694  1.3763
10511TIP3    H252949   5.991   1.707  16.184  0.1753  0.3367 -0.4731
10512TIP3   OH252950   2.495   1.214  12.988  0.3217  0.1590 -0.0918
10512TIP3    H152951   2.402   1.211  12.964  0.1626  0.0296  0.5113
10512TIP3    H252952   2.494   1.234  13.082  0.9210  0.7768 -0.2166
10513TIP3   OH252953   6.249   2.309   4.585  0.2840 -0.2635 -0.1221
10513TIP3    H152954   6.289   2.395   4.571  0.2249 -0.2682 -0.3232
10513TIP3    H252955   6.323   2.250   4.598  0.2911  0.0879  1.6421
10514TIP3   OH252956   4.501   0.963  11.381 -0.4329 -0.7332  0.0690
10514TIP3    H152957   4.560   0.913  11.325  0.3963 -0.5886  0.7936
10514TIP3    H252958   4.518   1.055  11.359 -0.7750 -0.7098 -0.1023
10515TIP3   OH252959   6.098   3.751   5.029  0.0321  0.0066  0.2608
10515TIP3    H152960   6.034   3.787   4.968  0.2441 -1.3559 -0.8088
10515TIP3    H252961   6.091   3.656   5.018  1.1884 -0.2141  1.2077
10516TIP3   OH252962   4.774   3.213   4.780  0.1971  0.2928  0.9462
10516TIP3    H152963   4.807   3.225   4.869 -1.1183 -1.3587  1.7108
10516TIP3    H252964   4.717   3.288   4.765  0.9212  0.9109  1.2467
10517TIP3   OH252965   6.075   3.934   2.796  0.2973 -0.0094 -0.3369
10517TIP3    H152966   6.009   3.864   2.797 -0.1071  0.3667  1.2377
10517TIP3    H252967   6.159   3.887   2.801  0.0400 -0.3983  0.4581
10518TIP3   OH252968   2.550   0.328  13.618 -0.4464  0.1788 -0.3173
10518TIP3    H152969   2.466   0.373  13.618 -1.1735 -1.1236  0.6315
10518TIP3    H252970   2.612   0.393  13.652 -1.1297  0.9918 -0.5878
10519TIP3   OH252971   2.610   0.182  17.019  0.2842 -0.3906  0.3282
10519TIP3    H152972   2.698   0.181  17.056 -0.0822  1.0921  1.3510
10519TIP3    H252973   2.552   0.191  17.095 -0.4960  2.8475 -0.4974
10520TIP3   OH252974   4.266   3.910  11.793  0.2771 -0.4736  0.2776
10520TIP3    H152975   4.230   3.848  11.729  1.4300 -0.5916 -0.2777
10520TIP3    H252976   4.228   3.882  11.877 -0.8481 -0.6335 -0.2719
10521TIP3   OH252977   1.199   4.447   5.460  0.3365 -0.1478  0.3825
10521TIP3    H152978   1.290   4.472   5.446  0.1525 -0.0455 -0.6874
10521TIP3    H252979   1.169   4.417   5.374 -0.0696 -2.0557  1.1581
10522TIP3   OH252980   5.933   5.867  13.059  0.2929 -0.4704 -0.0230
10522TIP3    H152981   5.931   5.775  13.032 -0.2040  0.1121 -2.2137
10522TIP3    H252982   5.959   5.914  12.980 -0.2214  1.3393  0.8398
10523TIP3   OH252983   0.112   3.828  12.385 -0.4118 -0.7181 -0.3546
10523TIP3    H152984   0.097   3.831  12.480  0.8523 -0.0301 -0.1497
10523TIP3    H252985   0.190   3.881  12.372 -1.1606  0.0516 -1.9279
10524TIP3   OH252986   0.063   1.606  12.124  1.0255 -0.1429  0.0493
10524TIP3    H152987   0.046   1.697  12.145  2.3684  0.4494 -1.2316
10524TIP3    H252988  -0.024   1.565  12.119  0.4708  0.7208  1.9384
10525TIP3   OH252989   4.050   4.790  14.143 -0.2851  0.4109  0.4473
10525TIP3    H152990   4.079   4.757  14.228 -1.1781 -1.0766  0.2123
10525TIP3    H252991   3.955   4.799  14.152 -0.4366 -0.0812 -0.4646
10526TIP3   OH252992   4.503   6.165   5.129 -0.4480 -0.3233 -0.4325
10526TIP3    H152993   4.477   6.101   5.064 -1.0837  0.1768 -0.6829
10526TIP3    H252994   4.546   6.235   5.079  1.5658 -1.1892 -0.0157
10527TIP3   OH252995   3.105   1.446   2.319  0.4591  0.8068  0.1363
10527TIP3    H152996   3.042   1.502   2.273  1.2341  0.5499 -1.3064
10527TIP3    H252997   3.187   1.497   2.317  0.9096  0.0836 -0.2670
10528TIP3   OH252998   5.658   6.434  15.628 -0.6919 -0.4363 -0.2256
10528TIP3    H152999   5.678   6.347  15.663 -2.7225 -0.6403  0.5590
10528TIP3    H253000   5.744   6.475  15.615  0.2952 -2.4033 -0.2688
10529TIP3   OH253001   4.189   6.361  12.260  0.1027 -0.0016  1.1912
10529TIP3    H153002   4.266   6.374  12.205 -2.4975  2.4176 -2.2580
10529TIP3    H253003   4.151   6.279  12.229 -0.7152  0.7549  0.1332
10530TIP3   OH253004   6.746   4.265  14.559 -0.1167 -0.2239  0.0631
10530TIP3    H153005   6.656   4.268  14.591 -0.3446 -0.2402 -0.5579
10530TIP3    H253006   6.799   4.296  14.633 -0.5205 -1.2884  0.8181
10531TIP3   OH253007   0.203   5.335  17.139  0.1101  0.1037  0.3899
10531TIP3    H153008   0.278   5.378  17.097  0.2938 -0.6451 -0.0712
10531TIP3    H253009   0.240   5.295  17.218  0.6660 -1.9208 -0.8053
10532TIP3   OH253010   6.684   5.424   0.168 -0.2739  1.0825  0.0130
10532TIP3    H153011   6.626   5.357   0.204  0.6914  0.4668  0.4554
10532TIP3    H253012   6.631   5.467   0.100 -0.1484 -1.7790 -2.0675
10533TIP3   OH253013   5.396   1.266  14.760 -0.2728 -0.3552 -0.1928
10533TIP3    H153014   5.471   1.221  14.799  0.3512  1.4058  0.7744
10533TIP3    H253015   5.323   1.204  14.771  0.5761 -1.2223  0.8621
10534TIP3   OH253016   0.751   4.708   5.935  0.1087 -0.4784 -0.0306
10534TIP3    H153017   0.773   4.741   5.849 -0.5298  1.2440  0.4259
10534TIP3    H253018   0.743   4.613   5.924  2.0299 -0.5236 -1.3936
10535TIP3   OH253019   2.189   4.474  16.738 -0.1102  0.2781  0.7400
10535TIP3    H153020   2.226   4.414  16.802  1.5920 -1.5637 -1.7993
10535TIP3    H253021   2.215   4.561  16.769  2.0586 -0.6582  1.7137
10536TIP3   OH253022   2.720   3.907   3.888 -0.6672  0.5570  0.1417
10536TIP3    H153023   2.677   3.993   3.883 -3.0810 -0.5556  0.0727
10536TIP3    H253024   2.678   3.864   3.962 -0.3368 -0.9661 -0.5234
10537TIP3   OH253025   6.127   2.487   0.723 -0.0891  0.4207  0.0461
10537TIP3    H153026   6.095   2.522   0.805  0.6820  0.0810  0.5024
10537TIP3    H253027   6.052   2.439   0.686 -0.2084 -0.0713  0.9169
10538TIP3   OH253028   6.307   6.226   0.608  0.2124  0.2126  0.2531
10538TIP3    H153029   6.221   6.224   0.568  0.6475 -0.5406 -0.6920
10538TIP3    H253030   6.342   6.313   0.588 -0.2133  0.4209  0.4153
10539TIP3   OH253031   3.205   1.567  13.240 -0.2049  0.5696  0.0245
10539TIP3    H153032   3.279   1.518  13.205  0.5796  0.9584  1.0871
10539TIP3    H253033   3.156   1.595  13.162  0.4839 -0.1090 -0.6705
10540TIP3   OH253034   3.977   1.324   2.630 -0.3969 -0.9151  0.2744
10540TIP3    H153035   3.889   1.291   2.646 -0.2049 -1.4690  0.1890
10540TIP3    H253036   4.024   1.251   2.589 -0.4545 -0.0254 -1.5068
10541TIP3   OH253037   4.883   0.671  12.194 -0.1809 -0.0885  0.5017
10541TIP3    H153038   4.801   0.698  12.235 -0.7496 -1.3810  0.2486
10541TIP3    H253039   4.871   0.691  12.101  0.5436  1.4658  0.7012
10542TIP3   OH253040   0.832   2.998  16.701 -0.5782 -0.7049  0.1098
10542TIP3    H153041   0.894   2.994  16.628 -0.7736  0.6163 -0.1530
10542TIP3    H253042   0.762   3.055  16.669 -0.3916  0.3609  1.5326
10543TIP3   OH253043   6.404   3.705  14.137 -0.4441 -0.0935 -0.3554
10543TIP3    H153044   6.384   3.662  14.219 -2.8880 -0.2269 -0.9469
10543TIP3    H253045   6.447   3.638  14.084 -2.7732 -1.4496 -0.6904
10544TIP3   OH253046   1.326   6.101  12.251 -0.5906  0.6489  0.1279
10544TIP3    H153047   1.290   6.072  12.167  0.1652 -1.1593  0.3670
10544TIP3    H253048   1.294   6.035  12.314  1.0755  0.3856  0.7554
10545TIP3   OH253049   0.416   4.195   6.266  0.0048  0.3911  0.4350
10545TIP3    H153050   0.424   4.115   6.318  0.9562  0.6014  0.6318
10545TIP3    H253051   0.326   4.192   6.232  0.1122 -0.9071  0.1906
10546TIP3   OH253052   6.622   3.634   4.152  0.7009 -0.2718 -0.4151
10546TIP3    H153053   6.606   3.642   4.246  1.4349 -0.1410 -0.2890
10546TIP3    H253054   6.586   3.714   4.114  1.0600  0.0261 -0.1423
10547TIP3   OH253055   4.093   0.595  15.399  1.1234 -0.0637 -0.3609
10547TIP3    H153056   4.186   0.616  15.390  1.2274 -0.8596 -1.2242
10547TIP3    H253057   4.052   0.680  15.416  2.0955  0.1889  0.8887
10548TIP3   OH253058   2.154   2.082  14.552 -0.2852 -0.0046  0.7185
10548TIP3    H153059   2.097   2.087  14.629 -0.7930 -0.3574  0.3712
10548TIP3    H253060   2.101   2.120  14.481  0.9040  2.2423  0.9404
10549TIP3   OH253061   0.202   5.991   6.094  0.1717  0.1156  0.0571
10549TIP3    H153062   0.246   6.053   6.153  0.5112 -1.5508  1.6493
10549TIP3    H253063   0.152   5.934   6.152  0.0899 -1.2765 -1.3061
10550TIP3   OH253064   0.403   3.662  13.766 -0.2964 -0.4356 -0.0372
10550TIP3    H153065   0.418   3.568  13.755 -0.0915 -0.3099 -0.8997
10550TIP3    H253066   0.311   3.668  13.793  0.1344 -0.9727  1.6557
10551TIP3   OH253067   1.270   3.402   2.200  0.0708  0.6677 -0.6677
10551TIP3    H153068   1.293   3.408   2.293 -0.6766 -2.9392 -0.0889
10551TIP3    H253069   1.354   3.391   2.155  0.2866 -1.7646  0.1705
10552TIP3   OH253070   0.272   1.379   6.016  0.0353 -0.0358 -0.1262
10552TIP3    H153071   0.201   1.368   5.952 -1.0968 -0.1717  1.0966
10552TIP3    H253072   0.232   1.428   6.088  1.0858 -0.4234  0.7558
10553TIP3   OH253073   4.186   4.834   4.385  0.5531  0.0189 -0.0530
10553TIP3    H153074   4.161   4.887   4.461  2.1967  1.5186 -0.5066
10553TIP3    H253075   4.281   4.823   4.393  0.5041 -1.2999 -0.9800
10554TIP3   OH253076   2.576   2.939   5.133 -0.3941  0.0895  0.1490
10554TIP3    H153077   2.657   2.988   5.120 -0.8155  0.8855  0.4109
10554TIP3    H253078   2.519   2.968   5.061 -0.2573 -0.8887 -0.3648
10555TIP3   OH253079   4.119   2.562  14.303  0.4270  0.4351  0.4708
10555TIP3    H153080   4.037   2.514  14.312 -0.5432  1.3637 -2.2486
10555TIP3    H253081   4.183   2.494  14.278  0.1970 -0.0914  1.2654
10556TIP3   OH253082   3.694   2.623   2.259 -0.1819 -0.1149 -0.2507
10556TIP3    H153083   3.606   2.587   2.248 -0.4208  0.6698 -1.0464
10556TIP3    H253084   3.753   2.549   2.241 -0.6179 -1.4830  3.2074
10557TIP3   OH253085   2.657   2.160  16.704  0.0858 -0.1111 -0.2430
10557TIP3    H153086   2.592   2.117  16.648 -0.7630  1.4042 -0.4759
10557TIP3    H253087   2.733   2.172  16.648 -0.1592 -0.0966 -0.5773
10558TIP3   OH253088   0.106   2.079  15.378  0.3288 -0.1455  0.1160
10558TIP3    H153089   0.129   1.997  15.423 -0.8662 -0.1440  0.7883
10558TIP3    H253090   0.011   2.084  15.386  0.2931  0.8399 -0.7633
10559TIP3   OH253091   4.827   5.863  16.004 -0.5016  0.3240  0.2262
10559TIP3    H153092   4.847   5.821  16.088 -0.6634  1.4574  0.8426
10559TIP3    H253093   4.912   5.888  15.969 -0.3294 -1.1559 -0.5201
10560TIP3   OH253094   1.696   2.866  16.933 -0.1904  0.2857  0.4517
10560TIP3    H153095   1.726   2.868  17.024  1.9012  0.8719 -0.1882
10560TIP3    H253096   1.757   2.923  16.886 -1.3212  0.1402 -1.2958
10561TIP3   OH253097   3.007   4.294  11.100 -0.3876 -0.1016  0.2183
10561TIP3    H153098   3.100   4.285  11.083 -0.5989 -2.9638  0.2370
10561TIP3    H253099   2.966   4.222  11.053 -2.9802  2.5393 -2.0420
10562TIP3   OH253100   2.454   3.513   3.689  0.2341 -0.1683  0.5367
10562TIP3    H153101   2.373   3.547   3.650 -1.1389 -3.9701 -0.3071
10562TIP3    H253102   2.441   3.525   3.783  0.0246  1.8114  0.3084
10563TIP3   OH253103   2.907   2.303   0.723  0.1706  0.1678 -0.0466
10563TIP3    H153104   2.817   2.316   0.751  0.1388 -0.9230  0.4098
10563TIP3    H253105   2.899   2.260   0.638  0.2722  0.8734 -0.4230
10564TIP3   OH253106   2.133   0.188  10.467 -0.3168 -0.3016 -0.1583
10564TIP3    H153107   2.171   0.265  10.510  2.4379 -1.3533 -0.4996
10564TIP3    H253108   2.068   0.155  10.530  1.0234  0.2592  1.6056
10565TIP3   OH253109   4.293   6.633   5.230  0.6225 -0.3534 -0.1471
10565TIP3    H153110   4.287   6.723   5.200 -0.2027 -0.4692 -0.3377
10565TIP3    H253111   4.311   6.583   5.150  1.5573 -0.3118  0.0271
10566TIP3   OH253112   0.061   3.495  12.493  0.1054  0.2594 -0.2568
10566TIP3    H153113   0.139   3.441  12.500  0.6509  0.8705 -1.3448
10566TIP3    H253114   0.077   3.568  12.553  0.1376  0.1091 -0.0825
10567TIP3   OH253115   1.697   2.388   3.716 -1.1025 -0.1528  0.2630
10567TIP3    H153116   1.636   2.356   3.649 -0.4991  0.8092 -0.7805
10567TIP3    H253117   1.782   2.391   3.671 -0.8943  1.6036  0.7205
10568TIP3   OH253118   2.097   2.847  16.215  0.1327 -0.0895  0.0746
10568TIP3    H153119   2.170   2.904  16.190 -1.1386  1.6784  0.1901
10568TIP3    H253120   2.040   2.847  16.138 -0.6627  0.1132  0.6603
10569TIP3   OH253121   0.327   5.187   4.296  0.1877  0.0896 -0.1085
10569TIP3    H153122   0.257   5.153   4.352 -1.1321  1.7209 -0.6839
10569TIP3    H253123   0.381   5.239   4.355  0.9009 -1.1185  0.3255
10570TIP3   OH253124   3.331   2.814  11.234 -0.3725 -0.8990  0.4835
10570TIP3    H153125   3.386   2.794  11.310 -1.5088 -1.7887  1.1060
10570TIP3    H253126   3.390   2.804  11.159  0.7892  0.0607  1.2320
10571TIP3   OH253127   1.785   2.386  11.571 -0.3658 -0.2081  0.6442
10571TIP3    H153128   1.711   2.446  11.573 -1.0929 -0.9732 -1.2055
10571TIP3    H253129   1.848   2.427  11.513  0.0886 -0.2209  1.1158
10572TIP3   OH253130   5.674   0.038  14.243  0.3263 -0.7119  0.4085
10572TIP3    H153131   5.710   0.012  14.328 -1.0344 -0.9015  0.9626
10572TIP3    H253132   5.582   0.059  14.262  0.3341  0.5230 -0.7812
10573TIP3   OH253133   2.594   4.521   0.128  0.1781 -0.0699 -0.5411
10573TIP3    H153134   2.597   4.425   0.131 -1.6090 -0.1654 -0.9786
10573TIP3    H253135   2.591   4.547   0.219 -0.6474 -0.5143 -0.4268
10574TIP3   OH253136   2.359   3.952   5.169  0.0863 -0.5721 -0.4424
10574TIP3    H153137   2.368   3.879   5.230  1.5176 -1.7180 -1.9360
10574TIP3    H253138   2.405   4.024   5.211 -0.4131 -0.8308  0.5746
10575TIP3   OH253139   2.755   1.373   2.573  0.2785  0.2177  0.0843
10575TIP3    H153140   2.784   1.423   2.650 -0.5525 -1.5555  1.6412
10575TIP3    H253141   2.660   1.382   2.573  0.3153  0.6364 -1.0647
10576TIP3   OH253142   0.592   0.596  14.735 -0.2257  0.1983  0.0487
10576TIP3    H153143   0.647   0.518  14.746  0.6876  0.8054 -0.0213
10576TIP3    H253144   0.622   0.655  14.804 -1.0218  0.4237  0.2031
10577TIP3   OH253145   5.977   6.461  11.422  0.3910 -0.0758  0.2614
10577TIP3    H153146   5.900   6.404  11.415 -0.0359  0.5286 -0.0700
10577TIP3    H253147   6.048   6.402  11.447 -0.1368 -0.6775  0.3820
10578TIP3   OH253148   2.155   5.111   4.843  0.0995  0.2604 -0.0511
10578TIP3    H153149   2.076   5.058   4.830 -0.3811  1.2228 -1.3157
10578TIP3    H253150   2.227   5.051   4.825 -0.4071 -0.1818 -0.6634
10579TIP3   OH253151   1.636   3.204  10.830 -0.0259 -0.0740 -0.2351
10579TIP3    H153152   1.655   3.190  10.922  0.3782  0.0732 -0.2974
10579TIP3    H253153   1.701   3.267  10.800  0.0573 -0.3745 -0.7044
10580TIP3   OH253154   2.754   4.919  15.880 -0.0937 -0.2744  0.1726
10580TIP3    H153155   2.766   4.867  15.800  0.0464  0.3812 -0.2367
10580TIP3    H253156   2.660   4.914  15.898  0.2375 -2.8067  1.6073
10581TIP3   OH253157   1.308   5.472   3.598 -0.0343  0.3489 -0.3499
10581TIP3    H153158   1.307   5.482   3.503 -0.4308 -0.1878 -0.4072
10581TIP3    H253159   1.291   5.560   3.632 -0.9377  0.3547 -0.7958
10582TIP3   OH253160   4.171   5.011  12.688  0.1512  0.3628 -0.4032
10582TIP3    H153161   4.216   4.930  12.711  1.2422  1.4099  1.4121
10582TIP3    H253162   4.079   4.994  12.709  0.7710  0.5508  3.1742
10583TIP3   OH253163   4.617   2.550   4.741  0.0489 -0.6302 -0.1192
10583TIP3    H153164   4.708   2.555   4.770 -0.1806 -0.8393  0.6628
10583TIP3    H253165   4.584   2.468   4.779 -0.7740 -0.0065  0.5589
10584TIP3   OH253166   0.601   6.183   2.063  0.1043  0.2901  0.4761
10584TIP3    H153167   0.607   6.186   1.968  0.6232  0.0686  0.4990
10584TIP3    H253168   0.692   6.190   2.093  0.0909 -1.1683  0.9188
10585TIP3   OH253169   0.651   0.008  14.334 -0.1942 -0.0613 -0.3593
10585TIP3    H153170   0.726  -0.000  14.275 -0.1101  0.0631 -0.2703
10585TIP3    H253171   0.673  -0.047  14.409 -0.3753 -0.3517 -0.5194
10586TIP3   OH253172   5.504   1.726   4.009  0.3517  0.7201  0.3714
10586TIP3    H153173   5.512   1.773   3.927 -0.4107 -0.1340 -0.2084
10586TIP3    H253174   5.413   1.694   4.011  1.0626 -1.5147  0.2770
10587TIP3   OH253175   5.593   1.791   2.076 -0.4593  0.5971 -0.5292
10587TIP3    H153176   5.512   1.794   2.127  0.0916  0.9242  0.3495
10587TIP3    H253177   5.656   1.747   2.134  0.3117  1.4281 -0.7259
10588TIP3   OH253178   4.644   5.558   0.017  0.1743  0.4594 -0.9855
10588TIP3    H153179   4.727   5.602  -0.004 -0.1003  1.1711 -0.5934
10588TIP3    H253180   4.652   5.472  -0.025  1.9659 -0.3063  0.7242
10589TIP3   OH253181   3.520   0.371   0.287 -0.5416  0.3194 -0.0364
10589TIP3    H153182   3.533   0.465   0.300 -0.6517  0.2713  0.4305
10589TIP3    H253183   3.425   0.360   0.284 -0.6530 -0.1111  2.5911
10590TIP3   OH253184   5.554   6.441   3.273 -0.1046 -0.7223  0.4843
10590TIP3    H153185   5.535   6.489   3.354 -0.3361 -2.0751  1.2603
10590TIP3    H253186   5.633   6.391   3.292 -0.6931 -1.7845  0.2036
10591TIP3   OH253187   4.280   5.225   0.519 -0.1158 -0.3647 -0.3670
10591TIP3    H153188   4.354   5.218   0.580 -0.5649  1.2671  0.4157
10591TIP3    H253189   4.296   5.157   0.454  1.7072 -0.4984  0.1713
10592TIP3   OH253190   0.827   6.753   3.730  0.2874 -0.3636  0.5934
10592TIP3    H153191   0.748   6.700   3.736  0.0821  0.1020  3.8929
10592TIP3    H253192   0.795   6.843   3.724  0.5698 -0.2357  0.9804
10593TIP3   OH253193   5.803   4.306  11.816 -0.6856 -0.1612 -0.0766
10593TIP3    H153194   5.820   4.400  11.817 -1.6659  0.0273 -0.4153
10593TIP3    H253195   5.714   4.298  11.782 -0.2917 -1.2598 -0.8902
10594TIP3   OH253196   0.310   0.030   1.911 -0.1707  0.1592 -0.0029
10594TIP3    H153197   0.225  -0.009   1.930  0.3380 -0.2580  1.5422
10594TIP3    H253198   0.302   0.121   1.939 -0.5406  0.5315 -1.2270
10595TIP3   OH253199   2.912   4.651   5.810  0.6625  0.0695  0.1766
10595TIP3    H153200   2.999   4.626   5.778  1.1467  0.3606  1.2276
10595TIP3    H253201   2.902   4.604   5.893  0.0451  0.4570  0.3329
10596TIP3   OH253202   5.776   6.014   2.138 -0.3788  0.3481  0.4845
10596TIP3    H153203   5.849   6.029   2.078  0.5246 -2.9610  0.5474
10596TIP3    H253204   5.802   6.057   2.219 -0.1708  2.1380 -0.4630
10597TIP3   OH253205   4.713   2.718  12.648  0.1696 -0.7290 -0.1611
10597TIP3    H153206   4.746   2.806  12.630 -0.8588 -0.1110  0.9033
10597TIP3    H253207   4.792   2.666  12.667  1.1071 -0.8063 -3.5581
10598TIP3   OH253208   5.724   0.390  11.336 -0.9556  0.6147  0.0642
10598TIP3    H153209   5.646   0.348  11.373 -0.6066 -0.1834 -0.0895
10598TIP3    H253210   5.695   0.423  11.251 -0.5353 -1.9194 -1.1665
10599TIP3   OH253211   1.042   4.932  14.871  0.4721 -0.4318 -0.0801
10599TIP3    H153212   0.956   4.909  14.905  1.3374 -2.4431  0.9448
10599TIP3    H253213   1.027   5.010  14.817 -1.5400  0.8541  2.1430
10600TIP3   OH253214   5.037   1.143  11.878  0.4131  0.3511 -0.2776
10600TIP3    H153215   5.087   1.205  11.931  0.7108  0.5664 -0.7986
10600TIP3    H253216   5.003   1.195  11.805 -1.3032  0.3875  0.4998
10601TIP3   OH253217   2.743   2.184   6.548  0.1140 -0.3677 -0.0965
10601TIP3    H153218   2.829   2.226   6.547  0.9570 -2.0067  0.2672
10601TIP3    H253219   2.750   2.115   6.614 -1.0987 -1.3105 -0.9030
10602TIP3   OH253220   2.468   2.799   3.100  0.3576 -0.6048  0.4405
10602TIP3    H153221   2.435   2.885   3.073  0.0513 -0.0443  2.4408
10602TIP3    H253222   2.480   2.751   3.018 -1.1565  0.7277 -0.6141
10603TIP3   OH253223   2.220   0.965  12.203 -0.1981  0.6015 -0.5585
10603TIP3    H153224   2.198   0.878  12.235  0.9519  1.4276  2.8563
10603TIP3    H253225   2.307   0.955  12.164 -0.4808  0.0513 -1.0573
10604TIP3   OH253226   4.130   6.098  13.435 -0.3563 -0.1887 -0.6234
10604TIP3    H153227   4.075   6.122  13.509  0.4582  0.4529 -0.2108
10604TIP3    H253228   4.219   6.122  13.462  0.0738 -0.7945 -1.4473
10605TIP3   OH253229   1.542   0.678   4.207 -0.5314 -0.1989  0.2704
10605TIP3    H153230   1.566   0.586   4.197  0.1861 -0.0700  0.7630
10605TIP3    H253231   1.532   0.690   4.301  0.9493  0.6053  0.3478
10606TIP3   OH253232   4.651   1.675   0.180  0.3411 -0.3382  0.4085
10606TIP3    H153233   4.742   1.684   0.151  0.2281 -3.0066 -1.1314
10606TIP3    H253234   4.649   1.590   0.224 -1.3978 -0.3219  0.4205
10607TIP3   OH253235   4.196   5.770   3.474  0.0097 -0.4972  0.3453
10607TIP3    H153236   4.176   5.676   3.469  0.8128 -0.6670  0.1594
10607TIP3    H253237   4.217   5.795   3.384 -0.8900  0.0267  0.2719
10608TIP3   OH253238   2.041   3.489   6.567  0.0216 -0.1213 -0.3253
10608TIP3    H153239   2.001   3.573   6.587 -0.8309 -0.4780 -0.5064
10608TIP3    H253240   2.002   3.428   6.630  1.8722 -0.0798  0.9384
10609TIP3   OH253241   3.344   6.001  11.658 -0.7511  0.2060 -0.5867
10609TIP3    H153242   3.396   5.979  11.581 -1.5958 -1.2003 -0.7817
10609TIP3    H253243   3.272   5.938  11.658 -2.2220  1.7879 -0.0645
10610TIP3   OH253244   3.292   0.685   4.467 -0.2412  0.4370  0.2851
10610TIP3    H153245   3.301   0.590   4.461  3.8993  0.6551 -0.1974
10610TIP3    H253246   3.325   0.706   4.555  0.5287  1.4914 -0.2367
10611TIP3   OH253247   0.856   1.803  17.103  0.5521  0.1488 -0.2042
10611TIP3    H153248   0.773   1.810  17.055 -0.3668 -0.6638  1.2098
10611TIP3    H253249   0.899   1.888  17.089 -1.6028  1.5104  0.9495
10612TIP3   OH253250   0.673   5.097  11.773 -0.6893  0.3887 -0.2209
10612TIP3    H153251   0.600   5.042  11.745  0.4993 -1.3308 -0.0925
10612TIP3    H253252   0.709   5.133  11.692  0.1420 -1.1912 -0.5915
10613TIP3   OH253253   3.529   5.684   1.657  0.0615  0.1295 -0.3942
10613TIP3    H153254   3.598   5.627   1.621 -0.1595  0.2243 -0.9876
10613TIP3    H253255   3.449   5.652   1.615 -0.4148 -0.6466  1.0618
10614TIP3   OH253256   1.183   4.004   0.708  0.6332 -0.0222 -0.1751
10614TIP3    H153257   1.105   3.981   0.759  0.1210 -1.8712 -1.6821
10614TIP3    H253258   1.162   4.089   0.670 -0.6908 -0.5156 -0.6027
10615TIP3   OH253259   4.069   0.761  14.184  0.2219  0.3095 -0.1280
10615TIP3    H153260   4.021   0.839  14.158  0.4719  0.6489  0.4129
10615TIP3    H253261   4.067   0.761  14.280 -4.3867 -3.1561  0.1126
10616TIP3   OH253262   4.502   6.013  15.747  0.1776  0.3524  0.0833
10616TIP3    H153263   4.533   6.102  15.764  0.0800  0.7044 -1.4959
10616TIP3    H253264   4.490   5.975  15.835  0.1705  1.8958  0.7823
10617TIP3   OH253265   0.157   2.915  14.832 -0.0717  0.6396 -0.0994
10617TIP3    H153266   0.250   2.910  14.857 -0.4998 -0.3019  1.4019
10617TIP3    H253267   0.158   2.956  14.746  1.8988 -1.4482 -1.1625
10618TIP3   OH253268   4.271   3.836   3.455 -0.2036 -0.4682  0.8624
10618TIP3    H153269   4.251   3.745   3.436 -0.7585 -0.0861 -0.5231
10618TIP3    H253270   4.332   3.862   3.385 -1.3449  0.6582  0.2482
10619TIP3   OH253271   2.564   3.919  16.948  0.4335 -0.6928 -0.0878
10619TIP3    H153272   2.545   3.879  17.032 -0.6491  0.3001  0.1548
10619TIP3    H253273   2.571   3.845  16.887 -0.7696 -1.2975  0.4871
10620TIP3   OH253274   0.521   1.145  17.137  0.7841 -0.1985  0.0469
10620TIP3    H153275   0.608   1.117  17.110  0.3049 -0.8779 -0.8574
10620TIP3    H253276   0.519   1.129  17.232  0.6154 -3.2043 -0.3574
10621TIP3   OH253277   5.729   4.721  12.945 -0.1677  0.2254  0.0727
10621TIP3    H153278   5.680   4.775  12.884 -1.5946 -0.4755  0.5631
10621TIP3    H253279   5.790   4.782  12.988 -0.0001  0.9420 -1.1485
10622TIP3   OH253280   1.458   4.737   0.453  0.8183  0.0779  0.1160
10622TIP3    H153281   1.392   4.756   0.520  0.2175  0.0833 -0.4691
10622TIP3    H253282   1.504   4.820   0.441 -0.0333  0.4812 -0.5048
10623TIP3   OH253283   6.661   4.797  12.110  0.6204  0.4722  0.3721
10623TIP3    H153284   6.626   4.882  12.137 -1.8335 -0.0792 -0.8621
10623TIP3    H253285   6.606   4.733  12.154  2.3018 -0.5471  1.1014
10624TIP3   OH253286   4.424   2.616  16.706  0.0619  0.3089 -0.6749
10624TIP3    H153287   4.422   2.656  16.619  1.2777  1.3793 -0.2408
10624TIP3    H253288   4.340   2.571  16.714 -0.1877  0.4463 -2.2831
10625TIP3   OH253289   5.795   1.755   4.012 -0.9023  0.0166 -0.6133
10625TIP3    H153290   5.709   1.721   4.033 -0.3315 -0.8575  0.4247
10625TIP3    H253291   5.849   1.734   4.088  0.6541 -0.9829 -1.9140
10626TIP3   OH253292   3.383   4.417   1.725  0.0878  0.4277 -0.6941
10626TIP3    H153293   3.352   4.476   1.794  0.7406  0.1605 -0.1641
10626TIP3    H253294   3.312   4.416   1.662  0.0759  1.8214 -0.7403
10627TIP3   OH253295   5.007   4.297   3.663 -0.0505  0.1360  0.1740
10627TIP3    H153296   4.968   4.218   3.627 -0.8510  0.8240 -0.5011
10627TIP3    H253297   4.987   4.365   3.599  0.3342  0.9525  0.9071
10628TIP3   OH253298   0.713   6.509   2.930 -0.0848 -0.0038 -0.3207
10628TIP3    H153299   0.659   6.570   2.879 -3.1738 -1.0743  1.3935
10628TIP3    H253300   0.666   6.426   2.926  1.1230 -0.8799  1.7942
10629TIP3   OH253301   1.879   2.738  11.900  0.3237  0.4189 -0.3381
10629TIP3    H153302   1.880   2.772  11.989  0.0213 -1.0729  0.2663
10629TIP3    H253303   1.931   2.657  11.904  0.4842  0.4427 -1.5599
10630TIP3   OH253304   1.039   4.121  13.860  0.0693 -0.5038 -0.7799
10630TIP3    H153305   0.971   4.054  13.851 -0.9121  0.4633 -0.7433
10630TIP3    H253306   1.040   4.142  13.953  2.0857 -2.1595 -0.3352
10631TIP3   OH253307   2.446   2.556  11.111 -0.2023  0.1875 -0.2751
10631TIP3    H153308   2.373   2.618  11.103 -0.2965  0.2951  1.0701
10631TIP3    H253309   2.524   2.610  11.097 -0.3754 -0.0802 -2.4988
10632TIP3   OH253310   6.510   3.199  10.841  0.5106 -0.3276  0.1307
10632TIP3    H153311   6.515   3.293  10.822 -0.4981 -0.5937 -1.6744
10632TIP3    H253312   6.438   3.190  10.903 -2.7628 -0.2365 -3.2560
10633TIP3   OH253313   4.261   0.730  15.158  1.1252  0.0084 -0.2003
10633TIP3    H153314   4.238   0.817  15.125 -0.9459 -0.7538 -0.8854
10633TIP3    H253315   4.227   0.669  15.093  1.5173 -1.3667  0.8356
10634TIP3   OH253316   4.363   5.890  13.798 -0.0132 -0.5698 -0.4484
10634TIP3    H153317   4.338   5.797  13.794 -0.7288 -0.4399  0.5929
10634TIP3    H253318   4.282   5.935  13.824  0.8467  0.0926  1.1911
10635TIP3   OH253319   2.213   3.077  15.045  0.0014 -0.2088  0.3499
10635TIP3    H153320   2.283   3.042  14.991  1.1126  0.4672  1.3082
10635TIP3    H253321   2.161   3.000  15.069 -1.0272 -0.4360 -2.2947
10636TIP3   OH253322   4.646   0.857   0.254 -0.3526  0.3668  0.0797
10636TIP3    H153323   4.684   0.896   0.175  2.7752 -2.9295 -0.3106
10636TIP3    H253324   4.686   0.907   0.326  1.3727 -0.1812 -0.4348
10637TIP3   OH253325   3.072   0.695   1.316 -0.4734 -0.0923  0.2748
10637TIP3    H153326   2.989   0.651   1.337 -0.1813 -0.9639 -0.3584
10637TIP3    H253327   3.085   0.680   1.223  1.3809 -1.6830  0.7272
10638TIP3   OH253328   6.358   5.506  13.749  0.1824  0.2742  0.4767
10638TIP3    H153329   6.347   5.583  13.805  2.0358  0.7953  0.2166
10638TIP3    H253330   6.449   5.480  13.763 -0.0944 -1.1915 -0.3049
10639TIP3   OH253331   2.838   2.296  14.766  0.7171  0.4440 -0.6244
10639TIP3    H153332   2.856   2.207  14.738 -1.8700 -0.0873 -0.8276
10639TIP3    H253333   2.875   2.302  14.854 -0.1780 -1.2945 -0.0823
10640TIP3   OH253334   6.706   6.015   3.747  0.1633 -0.6326  0.2350
10640TIP3    H153335   6.639   6.060   3.798  0.2361 -0.2681  0.0117
10640TIP3    H253336   6.700   6.054   3.660  0.4571 -0.8182  0.1313
10641TIP3   OH253337   1.231   4.519  15.661  0.1645  0.4212  0.1443
10641TIP3    H153338   1.201   4.527  15.571  0.2064 -0.7689  0.0061
10641TIP3    H253339   1.245   4.425  15.673 -1.5316  0.3346  1.9303
10642TIP3   OH253340   5.999   5.922   1.541 -0.1098 -0.1325  0.4428
10642TIP3    H153341   6.009   5.941   1.448 -0.2918  1.4601  0.7327
10642TIP3    H253342   5.907   5.902   1.552 -0.2557  0.4996  0.4085
10643TIP3   OH253343   1.154   4.726   2.414  0.2925  0.0885  0.2819
10643TIP3    H153344   1.192   4.647   2.450  2.4330 -0.2255 -2.3634
10643TIP3    H253345   1.097   4.696   2.343 -0.3533  0.8475  0.4560
10644TIP3   OH253346   6.016   1.891  16.446 -0.0759  0.0315  0.3696
10644TIP3    H153347   6.023   1.830  16.372  0.0750  0.2400  0.2110
10644TIP3    H253348   5.922   1.900  16.460 -0.0952 -1.3254  1.3014
10645TIP3   OH253349   6.540   3.340  13.596  0.5582 -0.3469  0.5380
10645TIP3    H153350   6.576   3.391  13.524  1.5720 -2.1166 -0.3001
10645TIP3    H253351   6.454   3.311  13.566 -0.4215  1.5011  1.3769
10646TIP3   OH253352   2.211   0.887   3.638 -0.4669  0.0438  0.0662
10646TIP3    H153353   2.196   0.900   3.732 -0.0492 -1.7021  0.4193
10646TIP3    H253354   2.125   0.900   3.598 -0.5101  1.4998  0.5741
10647TIP3   OH253355   1.137   2.491  12.985  0.0165  0.1711 -0.0819
10647TIP3    H153356   1.198   2.558  12.953 -0.6781  0.3315 -1.1169
10647TIP3    H253357   1.188   2.442  13.050  0.2736  2.2060  1.3263
10648TIP3   OH253358   1.220   2.167   2.932  0.3722  0.3884  0.3293
10648TIP3    H153359   1.175   2.241   2.972  1.4929  0.5076  1.4199
10648TIP3    H253360   1.238   2.108   3.005 -0.3625 -0.9109 -0.4944
10649TIP3   OH253361   3.068   6.649  13.033 -0.2128  0.2629  0.1163
10649TIP3    H153362   3.102   6.731  12.997 -0.9666 -0.7466 -3.2178
10649TIP3    H253363   2.979   6.670  13.061 -1.0109  0.3420 -2.2442
10650TIP3   OH253364   1.013   4.927   1.493  0.6188  0.2740  0.8260
10650TIP3    H153365   1.038   4.997   1.433  0.7781  1.0496  1.7693
10650TIP3    H253366   0.993   4.972   1.576 -0.5573 -0.6623  1.0862
10651TIP3   OH253367   2.973   4.808  16.267 -0.0461  0.2755 -0.3805
10651TIP3    H153368   2.993   4.823  16.175 -0.6270  0.2308 -0.5198
10651TIP3    H253369   2.922   4.727  16.268 -0.1952  0.3700 -0.0435
10652TIP3   OH253370   1.469   1.952   2.951  0.1387 -0.5046 -0.7490
10652TIP3    H153371   1.517   2.035   2.947 -0.4328 -0.1993 -1.4783
10652TIP3    H253372   1.525   1.889   2.906  0.0981 -0.2685 -1.1350
10653TIP3   OH253373   2.075   3.865  11.652  0.6318  0.6172  0.1560
10653TIP3    H153374   2.076   3.797  11.584 -0.4429 -1.0300  1.6882
10653TIP3    H253375   2.158   3.853  11.698  0.9723  1.1616 -0.2991
10654TIP3   OH253376   1.304   1.171  16.186  0.5350 -0.3787 -0.1353
10654TIP3    H153377   1.298   1.111  16.112  1.6222  0.2804 -0.7733
10654TIP3    H253378   1.395   1.198  16.188  0.2408  0.6072  0.6586
10655TIP3   OH253379   3.067   0.789   4.396 -0.2099  0.4045  0.4437
10655TIP3    H153380   3.016   0.722   4.351 -0.6591  1.0847 -0.0825
10655TIP3    H253381   3.156   0.754   4.397 -0.2277  0.2675 -0.7961
10656TIP3   OH253382   4.986   6.301  11.962 -0.6603  0.1336 -0.0235
10656TIP3    H153383   4.985   6.220  11.912 -1.8377  0.1584 -0.0693
10656TIP3    H253384   4.993   6.272  12.053  0.2374  0.0442 -0.1115
10657TIP3   OH253385   1.929   0.428   3.020 -0.0802 -0.3998 -0.3086
10657TIP3    H153386   1.905   0.487   2.949  0.4345  0.0681 -0.1073
10657TIP3    H253387   2.017   0.457   3.046  0.1506 -1.2146 -0.1608
10658TIP3   OH253388   3.933   2.159   3.421  0.2874  0.4309 -0.1136
10658TIP3    H153389   3.870   2.217   3.379  0.8047  2.5807  1.8319
10658TIP3    H253390   3.991   2.130   3.351 -1.0890  0.8255 -1.4424
10659TIP3   OH253391   4.700   4.764  12.291 -0.5477  0.0208 -0.7641
10659TIP3    H153392   4.762   4.691  12.297 -1.2348 -0.5290 -0.1335
10659TIP3    H253393   4.636   4.746  12.359 -0.6284  1.3324 -0.4760
10660TIP3   OH253394   4.512   2.425   2.109  0.3684  0.2955  0.5474
10660TIP3    H153395   4.421   2.428   2.078  0.4366  1.8557  0.3896
10660TIP3    H253396   4.512   2.482   2.186  1.2686  0.5924  0.3367
10661TIP3   OH253397   0.506   2.451  11.673  0.1750  0.1762 -0.3826
10661TIP3    H153398   0.563   2.482  11.743  0.1682 -0.3539 -0.1393
10661TIP3    H253399   0.457   2.529  11.646 -0.5565  0.1961  0.8974
10662TIP3   OH253400   5.472   2.276   0.203 -0.6447 -0.0958 -0.0127
10662TIP3    H153401   5.565   2.270   0.224 -0.6561  2.2020  0.8876
10662TIP3    H253402   5.453   2.194   0.156  1.4878 -1.2174  0.9614
10663TIP3   OH253403   0.232   5.782   6.482 -0.2828  0.0693 -0.0013
10663TIP3    H153404   0.200   5.844   6.548 -1.6136 -0.3489 -0.2318
10663TIP3    H253405   0.197   5.813   6.399 -1.4627 -1.2938 -0.0442
10664TIP3   OH253406   6.554   5.468  11.669 -0.0293  0.0205 -0.4825
10664TIP3    H153407   6.583   5.392  11.619  0.2151 -0.3168  0.1579
10664TIP3    H253408   6.541   5.536  11.603  0.3062 -0.4033 -1.0013
10665TIP3   OH253409   3.414   1.621   3.510  0.1481 -0.2281 -0.1083
10665TIP3    H153410   3.426   1.716   3.502 -3.0650  0.2593 -0.5830
10665TIP3    H253411   3.456   1.586   3.432  1.0279  0.8352 -0.1419
10666TIP3   OH253412   0.603   0.231  16.934 -0.2871 -0.8800  0.1761
10666TIP3    H153413   0.672   0.291  16.905 -0.1818 -0.7737  0.6328
10666TIP3    H253414   0.614   0.153  16.880 -1.8357  0.3285 -2.0417
10667TIP3   OH253415   3.743   3.679   2.789  0.2740  0.0834  0.4597
10667TIP3    H153416   3.773   3.690   2.698  0.6916  2.5614  0.8294
10667TIP3    H253417   3.823   3.685   2.841 -0.2994  2.3450  1.1737
10668TIP3   OH253418   1.409   4.020   4.825  0.5280  0.6698 -0.0405
10668TIP3    H153419   1.464   4.028   4.904  1.0108  0.3334 -0.3353
10668TIP3    H253420   1.320   4.014   4.859  0.7089  0.7754  0.4732
10669TIP3   OH253421   0.428   0.702  12.379  0.2271  0.1639  0.1148
10669TIP3    H153422   0.340   0.733  12.399  0.4236  0.6956  0.1780
10669TIP3    H253423   0.427   0.609  12.402 -0.0301  0.3921  1.0786
10670TIP3   OH253424   3.986   3.661  11.164 -0.0751 -0.2104 -0.1869
10670TIP3    H153425   4.056   3.686  11.103 -2.0187 -1.2236 -3.0444
10670TIP3    H253426   3.990   3.727  11.233  1.2323  2.0820 -2.2776
10671TIP3   OH253427   5.240   3.666  13.219 -0.3543 -0.2734  0.1256
10671TIP3    H153428   5.258   3.638  13.129 -2.1646 -1.7872  0.1764
10671TIP3    H253429   5.282   3.752  13.226  0.2574 -0.3438 -1.9980
10672TIP3   OH253430   4.757   2.924   0.102 -0.3097  0.0948  0.2164
10672TIP3    H153431   4.765   2.920   0.007  0.3524  1.8335  0.1687
10672TIP3    H253432   4.844   2.902   0.135 -0.6497 -0.9513  0.4585
10673TIP3   OH253433   2.998   4.165  12.945 -0.1539  0.1671  0.1933
10673TIP3    H153434   2.920   4.192  12.895 -0.7436 -2.0194 -0.1486
10673TIP3    H253435   2.968   4.094  13.001  1.4971 -0.3923  0.4275
10674TIP3   OH253436   4.667   0.179   3.847 -0.1383 -0.1977  0.2499
10674TIP3    H153437   4.728   0.215   3.783  0.2997 -1.3107  0.0016
10674TIP3    H253438   4.580   0.192   3.810  0.1051 -0.7113 -0.5254
10675TIP3   OH253439   3.894   4.324   3.795  0.0319  0.3613 -0.0496
10675TIP3    H153440   3.960   4.262   3.826  0.4480  1.2294  0.8631
10675TIP3    H253441   3.817   4.271   3.779  0.4871 -0.4435  0.3773
10676TIP3   OH253442   4.902   6.276   1.499  0.2027  0.0139 -0.0959
10676TIP3    H153443   4.876   6.195   1.455  0.8243 -1.1125  1.5117
10676TIP3    H253444   4.826   6.301   1.551  0.1995  0.1914 -0.1836
10677TIP3   OH253445   6.606   5.984   1.481  0.0743  0.4201 -0.4336
10677TIP3    H153446   6.511   5.996   1.479  0.2646  2.1215 -1.7490
10677TIP3    H253447   6.618   5.895   1.514 -1.9258  0.5719  0.8886
10678TIP3   OH253448   5.815   3.817  12.988 -0.4517 -0.0572  0.1636
10678TIP3    H153449   5.749   3.759  13.027  0.2093  0.5170  2.3129
10678TIP3    H253450   5.898   3.770  12.998 -0.2858  0.0335 -0.7590
10679TIP3   OH253451   4.796   4.849  16.189  0.2714  0.2226  0.1216
10679TIP3    H153452   4.816   4.935  16.150 -0.3920  0.4354  0.2461
10679TIP3    H253453   4.856   4.789  16.144 -1.5530  0.1807 -2.4650
10680TIP3   OH253454   4.778   2.781  13.007  0.0841  0.4529 -0.1237
10680TIP3    H153455   4.857   2.778  12.953  0.7454 -0.4717  0.8542
10680TIP3    H253456   4.745   2.871  12.996  0.1619  0.2880 -2.0714
10681TIP3   OH253457   1.777   0.637   2.639  0.1449  0.1750  0.6242
10681TIP3    H153458   1.751   0.639   2.732 -0.3367 -1.2066  0.5364
10681TIP3    H253459   1.707   0.590   2.595  0.4885  0.6055 -0.4176
10682TIP3   OH253460   0.673   3.195  16.596 -0.0597 -0.2782  0.6488
10682TIP3    H153461   0.659   3.203  16.502 -0.9247 -0.0916  0.7890
10682TIP3    H253462   0.611   3.256  16.635  0.0710 -0.5878  1.3589
10683TIP3   OH253463   6.652   1.415   1.008 -0.5740  0.1737  0.1613
10683TIP3    H153464   6.656   1.437   1.101 -1.2703  0.4058  0.1380
10683TIP3    H253465   6.616   1.493   0.966  0.7850  0.4931 -0.4648
10684TIP3   OH253466   4.758   2.380  14.483  0.1211  0.6733  0.0928
10684TIP3    H153467   4.769   2.330  14.403  2.7332 -1.6045  1.6955
10684TIP3    H253468   4.783   2.469  14.459  1.3948 -0.0618 -1.5205
10685TIP3   OH253469   2.034   6.039  17.204  0.0318  0.3124 -0.5279
10685TIP3    H153470   1.953   5.992  17.183  1.0503 -1.8866  0.1477
10685TIP3    H253471   2.097   6.008  17.138  1.4311 -1.4306  1.4865
10686TIP3   OH253472   0.129   4.806  13.711  0.0837 -0.5335 -0.3350
10686TIP3    H153473   0.080   4.791  13.792 -0.8053 -1.1709 -0.9709
10686TIP3    H253474   0.154   4.898  13.715 -0.5254 -0.3882  0.3529
10687TIP3   OH253475   0.785   0.676   0.726  0.2040 -0.0713 -0.3146
10687TIP3    H153476   0.722   0.746   0.738  0.0742 -0.3908  1.0754
10687TIP3    H253477   0.867   0.721   0.705  0.8054  0.7923  3.2086
10688TIP3   OH253478   5.196   0.605   1.358 -0.4377 -0.3148  0.1004
10688TIP3    H153479   5.212   0.577   1.449  0.5095 -1.3071 -0.3432
10688TIP3    H253480   5.223   0.697   1.356  0.1495 -0.4680  0.6753
10689TIP3   OH253481   6.408   0.827   4.290  0.1107 -0.5759  0.1625
10689TIP3    H153482   6.472   0.897   4.272 -1.1216  1.4234  2.8627
10689TIP3    H253483   6.404   0.778   4.208  2.3045  1.4872 -1.3494
10690TIP3   OH253484   0.170   2.707   2.226  0.1106 -0.3499 -0.1862
10690TIP3    H153485   0.238   2.756   2.181  1.4576 -0.9895  1.0573
10690TIP3    H253486   0.114   2.773   2.266  1.0521  0.1984  0.2553
10691TIP3   OH253487   0.097   2.573   4.969 -0.0749 -0.8804  0.3738
10691TIP3    H153488   0.173   2.561   5.025  0.7621  0.9579 -0.2563
10691TIP3    H253489   0.048   2.645   5.009  1.1682  1.3137 -1.7029
10692TIP3   OH253490   3.769   1.203   4.613 -0.6021  0.0388  0.9109
10692TIP3    H153491   3.862   1.182   4.602 -0.0190  2.5752  0.3205
10692TIP3    H253492   3.769   1.294   4.640 -2.9170 -0.3048  2.2478
10693TIP3   OH253493   6.182   4.338  17.123 -0.1260  0.1345  0.2244
10693TIP3    H153494   6.225   4.385  17.051 -2.0398  0.8337 -0.5448
10693TIP3    H253495   6.174   4.403  17.193 -2.3043  0.9011 -0.6486
10694TIP3   OH253496   5.006   4.080  12.491 -0.4929  0.1485 -0.2828
10694TIP3    H153497   4.935   4.033  12.446 -1.1811  1.3734 -0.5115
10694TIP3    H253498   5.080   4.075  12.431 -0.5825 -0.5606 -0.3454
10695TIP3   OH253499   1.669   3.053  16.321  0.0983  0.2704 -0.4021
10695TIP3    H153500   1.669   3.001  16.241  1.2459 -0.3381 -0.0223
10695TIP3    H253501   1.714   3.135  16.296 -1.8124  1.1855 -1.0311
10696TIP3   OH253502   4.634   6.286  14.868 -0.2026  0.2621  0.4046
10696TIP3    H153503   4.679   6.256  14.947  1.3806 -0.6866 -0.7986
10696TIP3    H253504   4.683   6.247  14.796 -1.5514  1.1625 -1.0722
10697TIP3   OH253505   0.742   1.055  14.529 -0.2280  0.6921 -0.0913
10697TIP3    H153506   0.784   1.010  14.455  1.0389  1.3634  0.1863
10697TIP3    H253507   0.662   1.006  14.544 -0.1296  0.0660 -1.4135
10698TIP3   OH253508   6.388   1.031   2.283  0.3053  0.5288 -0.0110
10698TIP3    H153509   6.413   1.118   2.250  1.0487 -0.2518 -1.5638
10698TIP3    H253510   6.455   0.972   2.250  0.0884 -0.6045  1.4367
10699TIP3   OH253511   1.009   3.034  14.201  0.0169 -0.8291 -0.2928
10699TIP3    H153512   0.947   3.080  14.257 -0.7321 -0.7527 -1.1545
10699TIP3    H253513   0.990   2.941  14.216  0.1321 -0.8197 -0.0836
10700TIP3   OH253514   0.541   5.583  12.819  0.1550  0.2497  0.1955
10700TIP3    H153515   0.592   5.528  12.760  0.2632  0.6205 -0.0614
10700TIP3    H253516   0.584   5.574  12.904  0.2633  0.0619  0.1210
10701TIP3   OH253517   3.746   5.771   5.447  0.5840  0.3290  0.2672
10701TIP3    H153518   3.698   5.843   5.490  1.8784  1.3020  0.1506
10701TIP3    H253519   3.830   5.810   5.422  0.1131 -0.3408 -2.6906
10702TIP3   OH253520   3.805   3.101  13.268 -0.1304  0.4498 -0.0126
10702TIP3    H153521   3.718   3.098  13.229 -0.5594  0.2948  0.9289
10702TIP3    H253522   3.857   3.154  13.208 -0.8182  0.3671 -0.6908
10703TIP3   OH253523   5.433   1.973  14.758  0.1123  0.3828 -0.1418
10703TIP3    H153524   5.344   1.999  14.736 -0.1413 -0.8213 -0.5953
10703TIP3    H253525   5.475   2.054  14.788 -1.3851  0.7894  0.9535
10704TIP3   OH253526   0.736   0.867  16.612  0.0559 -0.5555 -0.2396
10704TIP3    H153527   0.694   0.856  16.697 -0.9229 -0.4180 -0.6872
10704TIP3    H253528   0.785   0.949  16.620 -0.6156 -0.1649 -0.0318
10705TIP3   OH253529   1.374   4.276  12.287 -0.6171 -0.2019  0.0583
10705TIP3    H153530   1.318   4.280  12.210  1.4037 -0.2949 -1.5146
10705TIP3    H253531   1.329   4.218  12.348 -3.2513  1.4507 -0.1578
10706TIP3   OH253532   2.493   3.733  12.003 -0.5019 -0.1057  0.2554
10706TIP3    H153533   2.400   3.736  12.026 -0.6115 -0.6645 -0.0766
10706TIP3    H253534   2.535   3.688  12.077 -0.5727 -0.2606  0.2037
10707TIP3   OH253535   4.677   5.274   4.088  0.1274  0.4876 -0.0367
10707TIP3    H153536   4.618   5.343   4.119 -0.0480 -0.1541  1.0780
10707TIP3    H253537   4.639   5.246   4.005  0.2446  1.7701 -0.5550
10708TIP3   OH253538   4.507   5.811  11.415  0.8341  0.2923 -0.5092
10708TIP3    H153539   4.526   5.728  11.373 -0.5418  0.1528 -0.8890
10708TIP3    H253540   4.560   5.875  11.367  1.6532 -0.3035 -0.4149
10709TIP3   OH253541   2.439   2.965   4.447 -0.1468  0.4037 -0.1457
10709TIP3    H153542   2.487   2.892   4.487  2.2922  1.2429 -1.3618
10709TIP3    H253543   2.483   3.044   4.479 -1.5693  1.3077 -0.3056
10710TIP3   OH253544   2.249   1.068   0.869  0.2905 -0.0824  0.2066
10710TIP3    H153545   2.278   1.153   0.903 -1.1724  0.1224  1.0277
10710TIP3    H253546   2.174   1.088   0.813  0.0757 -0.7986  0.2184
10711TIP3   OH253547   3.541   4.375   4.388  0.0758  0.2687 -0.9864
10711TIP3    H153548   3.483   4.384   4.463 -0.0455  1.6545 -1.2187
10711TIP3    H253549   3.628   4.361   4.426  0.0605  1.2390 -0.5478
10712TIP3   OH253550   4.337   5.730   5.646 -0.3227 -0.0464 -0.9329
10712TIP3    H153551   4.281   5.730   5.568  0.7529  1.5168 -1.7643
10712TIP3    H253552   4.423   5.704   5.613 -0.3574 -1.7955  0.2118
10713TIP3   OH253553   2.721   2.902   3.158  0.0482  0.5437  0.0389
10713TIP3    H153554   2.694   2.923   3.247  0.2118  0.0533  0.2074
10713TIP3    H253555   2.654   2.840   3.127 -1.1402  2.2162 -0.8921
10714TIP3   OH253556   3.010   0.532  15.999 -0.2089 -0.0205  0.2335
10714TIP3    H153557   2.914   0.533  16.004 -0.2545 -0.7716 -0.3155
10714TIP3    H253558   3.038   0.544  16.090 -0.7666  2.7731  0.1262
10715TIP3   OH253559   3.496   5.235   4.994  0.2083  0.5369 -0.6207
10715TIP3    H153560   3.543   5.280   4.923  1.8819  0.2825  0.2903
10715TIP3    H253561   3.496   5.143   4.968  1.6285  0.3135  0.1228
10716TIP3   OH253562   5.287   0.534   3.334 -0.1325  0.4681  0.3661
10716TIP3    H153563   5.378   0.511   3.349  0.1024 -0.8031 -2.4364
10716TIP3    H253564   5.238   0.484   3.400  1.0385 -0.9667  0.1959
10717TIP3   OH253565   0.340   1.530  16.223 -0.3035 -0.5562  0.1823
10717TIP3    H153566   0.283   1.596  16.264 -1.2193  0.6236 -2.7558
10717TIP3    H253567   0.427   1.569  16.226 -0.7227  0.5134 -0.8956
10718TIP3   OH253568   0.117   4.052   3.152 -0.1739 -0.3795  0.5700
10718TIP3    H153569   0.153   4.051   3.240  0.1858 -1.0135  0.4218
10718TIP3    H253570   0.183   4.009   3.098 -0.4743 -0.1710  0.0255
10719TIP3   OH253571   4.956   1.178  14.249 -0.0261  0.0849  0.0149
10719TIP3    H153572   4.946   1.205  14.340 -1.4827  1.5213 -0.5130
10719TIP3    H253573   4.978   1.259  14.202  0.5728 -0.6048 -0.9485
10720TIP3   OH253574   4.294   5.117   0.095 -0.0711 -0.1103  0.9663
10720TIP3    H153575   4.301   5.206   0.060 -0.6557 -0.1876  0.6420
10720TIP3    H253576   4.329   5.061   0.025 -3.0151 -0.4381 -0.3773
10721TIP3   OH253577   1.574   2.955  12.019 -0.2664 -0.6370  0.1174
10721TIP3    H153578   1.591   2.973  12.112  0.4542 -0.4347 -0.0450
10721TIP3    H253579   1.561   3.041  11.980 -0.7981 -0.7382  0.0698
10722TIP3   OH253580   1.608   0.790  12.705 -0.2222 -0.7388 -0.1203
10722TIP3    H153581   1.638   0.786  12.614 -1.4001  0.2002 -0.5795
10722TIP3    H253582   1.671   0.737  12.753  1.7304  0.5279 -1.1263
10723TIP3   OH253583   3.254   2.138  15.519 -0.0393 -0.7793  0.5845
10723TIP3    H153584   3.338   2.168  15.483 -0.1867 -0.7469  0.2663
10723TIP3    H253585   3.248   2.046  15.492 -0.3802 -0.6173  0.0996
10724TIP3   OH253586   4.893   2.730   2.877 -0.4898 -0.2711  0.3612
10724TIP3    H153587   4.940   2.811   2.893 -1.6979  0.6275 -0.4318
10724TIP3    H253588   4.817   2.756   2.826 -1.8149 -1.6523  1.5006
10725TIP3   OH253589   1.379   0.063   3.222 -0.0368  0.3058  0.1028
10725TIP3    H153590   1.344   0.051   3.310 -0.1374 -0.2050 -0.0000
10725TIP3    H253591   1.393  -0.026   3.190  0.9330  0.4972 -0.0304
10726TIP3   OH253592   2.309   6.655   4.540  0.0665 -0.1409  0.1029
10726TIP3    H153593   2.405   6.662   4.541  0.0584  0.1001  2.0801
10726TIP3    H253594   2.290   6.595   4.468  1.5311  1.7095 -1.9775
10727TIP3   OH253595   3.442   2.336  11.701  0.3619  0.5296  0.2739
10727TIP3    H153596   3.507   2.356  11.769  1.8913 -0.6865 -0.7549
10727TIP3    H253597   3.486   2.273  11.644 -1.9015 -0.6707 -0.2408
10728TIP3   OH253598   5.499   6.168   5.959  0.2739  0.1559  0.0681
10728TIP3    H153599   5.435   6.100   5.979  0.3201 -0.4226 -1.5445
10728TIP3    H253600   5.448   6.248   5.950 -0.4927 -0.5297 -2.4863
10729TIP3   OH253601   3.548   0.231  12.601  0.1568 -0.0043  0.4075
10729TIP3    H153602   3.492   0.307  12.615  0.4940  0.3750 -0.2682
10729TIP3    H253603   3.564   0.197  12.689 -0.5919  0.2719  0.6585
10730TIP3   OH253604   3.630   2.504   6.835 -0.1158 -0.6660 -0.2618
10730TIP3    H153605   3.721   2.475   6.821  0.2798 -0.1841  1.1259
10730TIP3    H253606   3.579   2.451   6.774  1.0505 -1.2140 -0.8121
10731TIP3   OH253607   5.290   2.778   0.983 -0.1414  0.1906 -0.0926
10731TIP3    H153608   5.215   2.825   0.945 -0.8687 -1.4303 -0.7582
10731TIP3    H253609   5.316   2.717   0.915  0.8514 -0.2965  0.7087
10732TIP3   OH253610   0.903   5.462  12.239  0.0788 -0.0296  0.1282
10732TIP3    H153611   0.974   5.431  12.182  0.5971  1.4857 -0.1122
10732TIP3    H253612   0.843   5.506  12.179  0.3085  1.0267  0.6349
10733TIP3   OH253613   5.706   4.970   2.582  0.7194  0.1629 -0.5488
10733TIP3    H153614   5.742   4.937   2.500 -0.0364  1.2015 -1.3226
10733TIP3    H253615   5.635   4.910   2.604  1.6501 -0.7858 -0.0171
10734TIP3   OH253616   4.091   1.744   1.317  0.3769  0.7029 -0.1141
10734TIP3    H153617   4.054   1.660   1.291  1.9983  0.2792 -1.2367
10734TIP3    H253618   4.184   1.738   1.294  0.4427  3.0205 -0.7538
10735TIP3   OH253619   1.913   1.205   1.939 -0.3226  0.0200  1.2753
10735TIP3    H153620   1.955   1.179   2.021  0.1584 -0.3266  0.9259
10735TIP3    H253621   1.983   1.198   1.873 -1.2563 -2.0544  0.4078
10736TIP3   OH253622   1.785   5.647  17.251  0.0308  0.1411  0.3094
10736TIP3    H153623   1.694   5.637  17.277 -0.9439  4.4541 -0.6986
10736TIP3    H253624   1.817   5.722  17.301  2.1045  0.5325 -1.4241
10737TIP3   OH253625   0.012   5.569  11.774  0.0337 -0.4160  0.1707
10737TIP3    H153626  -0.081   5.550  11.765  0.4608 -2.0463 -1.1747
10737TIP3    H253627   0.038   5.605  11.689  0.5122  0.7029  0.7609
10738TIP3   OH253628   1.423   0.143   0.403 -0.3792 -0.6287 -0.5467
10738TIP3    H153629   1.452   0.234   0.414  1.5523 -1.3239  0.7284
10738TIP3    H253630   1.501   0.097   0.374 -1.3957 -1.8754 -1.4091
10739TIP3   OH253631   3.788   6.707  13.081 -0.5244  0.4745  0.2503
10739TIP3    H153632   3.782   6.633  13.021 -0.7252  0.9839 -0.3635
10739TIP3    H253633   3.874   6.746  13.062 -0.5669  0.6060  0.3248
10740TIP3   OH253634   6.740   1.923   2.799 -0.2606 -1.3453 -0.1170
10740TIP3    H153635   6.655   1.885   2.780 -0.5279 -0.3576 -0.9868
10740TIP3    H253636   6.738   1.940   2.893 -1.7461  0.3303 -0.4061
10741TIP3   OH253637   3.388   5.231  14.149 -0.3028  0.1209  0.4528
10741TIP3    H153638   3.444   5.154  14.152 -0.7640 -0.3775 -1.8048
10741TIP3    H253639   3.299   5.197  14.156 -0.4383  0.6843  1.6564
10742TIP3   OH253640   5.368   1.993   1.087  0.2849  0.0281  0.1518
10742TIP3    H153641   5.340   2.076   1.126  0.1691  0.9167 -1.7020
10742TIP3    H253642   5.306   1.979   1.015  1.2241 -0.8992 -0.4897
10743TIP3   OH253643   3.424   1.394  10.773 -0.7249  0.1743 -0.5917
10743TIP3    H153644   3.490   1.392  10.842 -1.5699  2.3002  0.3599
10743TIP3    H253645   3.466   1.443  10.702 -1.2070  1.5351  0.0175
10744TIP3   OH253646   3.700   1.039  14.593  0.1585  0.6911  0.2359
10744TIP3    H153647   3.788   1.020  14.560 -0.6114 -0.7686 -1.1255
10744TIP3    H253648   3.659   0.953  14.604 -0.5157  1.2332  2.6962
10745TIP3   OH253649   5.926   2.918  11.264 -0.0245  0.3239  0.1209
10745TIP3    H153650   5.931   2.830  11.226 -0.2697  0.5951 -0.5639
10745TIP3    H253651   6.012   2.933  11.302 -0.0682 -0.3191  0.4773
10746TIP3   OH253652   3.665   4.156   4.895 -0.1247 -0.1677  0.6520
10746TIP3    H153653   3.664   4.097   4.970  1.1467 -0.8864  0.1289
10746TIP3    H253654   3.671   4.244   4.934  0.8214 -0.5433  1.3951
10747TIP3   OH253655   4.572   0.153   1.179 -0.1536 -0.0493 -0.4848
10747TIP3    H153656   4.573   0.073   1.126  0.7712 -1.0950  1.0380
10747TIP3    H253657   4.606   0.220   1.121  1.1088 -1.2215 -1.1517
10748TIP3   OH253658   0.591   5.329   1.715 -1.0607 -0.2455  0.3923
10748TIP3    H153659   0.527   5.285   1.772  0.9671 -1.2072  2.0528
10748TIP3    H253660   0.670   5.336   1.769  0.4003  0.4679 -1.7402
10749TIP3   OH253661   6.250   1.232  12.090 -0.1995 -0.0305  0.1088
10749TIP3    H153662   6.329   1.271  12.127 -0.0421 -1.0315  0.8673
10749TIP3    H253663   6.238   1.150  12.138 -2.9134  1.0722  1.5521
10750TIP3   OH253664   4.144   3.217   2.813 -0.0039 -0.2150  0.2402
10750TIP3    H153665   4.148   3.285   2.880 -0.9653 -1.0484  1.1779
10750TIP3    H253666   4.214   3.239   2.752 -1.5954  2.8438 -0.6897
10751TIP3   OH253667   3.666   1.752  14.153  0.1944  0.3401 -0.1107
10751TIP3    H153668   3.703   1.665  14.136  3.1034  1.6438 -1.0811
10751TIP3    H253669   3.628   1.779  14.070 -1.6358 -0.3575  0.4636
10752TIP3   OH253670   6.490   6.163   1.735  0.4733  0.6680  0.8012
10752TIP3    H153671   6.422   6.136   1.673 -0.2110  0.6838  1.5421
10752TIP3    H253672   6.469   6.254   1.756  0.0176  0.3071  1.9544
10753TIP3   OH253673   5.001   5.558   0.994  0.5191  0.0301 -0.6529
10753TIP3    H153674   5.055   5.500   0.940  1.0606 -0.3236  0.2400
10753TIP3    H253675   5.053   5.638   1.003  1.7041 -0.9067  1.5661
10754TIP3   OH253676   4.432   6.400   3.090 -0.1472 -0.6382  0.5149
10754TIP3    H153677   4.461   6.489   3.066 -2.2244 -0.5959 -2.3467
10754TIP3    H253678   4.480   6.343   3.030 -0.5238 -1.2526  0.7971
10755TIP3   OH253679   6.119   1.738  16.895 -0.4059 -0.2556 -0.2981
10755TIP3    H153680   6.054   1.802  16.866  0.4849  0.5754 -0.4965
10755TIP3    H253681   6.170   1.784  16.961  0.6232 -0.5659 -0.8652
10756TIP3   OH253682   2.843   3.369  16.195 -0.2271  0.3430  0.3749
10756TIP3    H153683   2.753   3.340  16.207 -0.5818  1.7441  1.4030
10756TIP3    H253684   2.838   3.465  16.199  1.3992  0.4294  1.2892
10757TIP3   OH253685   5.438   6.686   4.005 -0.0947  0.3049 -0.0373
10757TIP3    H153686   5.350   6.681   4.042  0.0914 -0.0566  0.3642
10757TIP3    H253687   5.483   6.751   4.058  0.2455 -0.3893  0.5363
10758TIP3   OH253688   4.935   5.447  11.439 -0.2688 -0.0301 -0.1944
10758TIP3    H153689   4.907   5.360  11.468 -0.0703  0.5857  2.0197
10758TIP3    H253690   4.855   5.491  11.413 -0.6596 -0.1234  0.8366
10759TIP3   OH253691   0.099   2.413   4.602 -0.2417 -0.7986 -0.4935
10759TIP3    H153692   0.072   2.505   4.608  1.6413  0.1523 -3.8966
10759TIP3    H253693   0.194   2.416   4.614 -0.3264 -2.6269  1.1059
10760TIP3   OH253694   3.954   0.050   0.517 -0.4780  0.1994  0.0425
10760TIP3    H153695   3.951   0.105   0.595 -0.7333 -0.1816  0.3062
10760TIP3    H253696   3.950  -0.040   0.551  2.5253 -0.1054 -0.2151
10761TIP3   OH253697   3.922   1.874  11.607  0.0123 -0.2414 -0.3281
10761TIP3    H153698   3.872   1.827  11.673  0.5533  0.5152  0.6653
10761TIP3    H253699   4.013   1.869  11.638  0.2252  0.4428 -0.8123
10762TIP3   OH253700   3.430   2.083   5.702  0.4224  0.5336 -0.1431
10762TIP3    H153701   3.421   2.178   5.695  2.0307  0.8815  1.6210
10762TIP3    H253702   3.498   2.061   5.639  1.8457  0.9728  1.1688
10763TIP3   OH253703   3.098   3.661  13.549 -1.2082  0.1712  0.7250
10763TIP3    H153704   3.032   3.693  13.611 -0.2059 -0.0371  1.9310
10763TIP3    H253705   3.143   3.739  13.519 -0.3069  0.1276  1.8921
10764TIP3   OH253706   2.077   3.436   5.051  0.2418  0.2309  0.6522
10764TIP3    H153707   2.129   3.514   5.034  0.8537 -0.5980 -1.8169
10764TIP3    H253708   2.141   3.365   5.059 -0.3404 -0.1879  1.9455
10765TIP3   OH253709   6.703   5.532   4.075  0.2863  0.2591 -0.3305
10765TIP3    H153710   6.795   5.560   4.075  0.2082  0.5480  0.4393
10765TIP3    H253711   6.671   5.556   4.162 -0.3834 -0.2915 -0.4156
10766TIP3   OH253712   4.777   1.706   3.488  0.1876  0.4962 -0.2138
10766TIP3    H153713   4.727   1.654   3.425  1.2918 -2.4693  1.1504
10766TIP3    H253714   4.761   1.797   3.463 -4.2232 -0.2924 -1.0525
10767TIP3   OH253715   1.768   3.870   3.774  0.4651  0.1748 -0.4144
10767TIP3    H153716   1.859   3.892   3.757  0.8793 -0.2668  1.0722
10767TIP3    H253717   1.731   3.949   3.813  0.1929  0.3662 -1.0493
10768TIP3   OH253718   5.625   5.099   0.277  0.0279 -0.0039 -0.6854
10768TIP3    H153719   5.639   5.042   0.353 -0.4952 -1.1491 -1.4172
10768TIP3    H253720   5.705   5.152   0.271  0.3763 -0.4038  0.2188
10769TIP3   OH253721   1.734   3.485   2.198  0.8139  0.2425  0.6736
10769TIP3    H153722   1.777   3.402   2.219  1.4401 -0.3002 -2.2792
10769TIP3    H253723   1.800   3.534   2.149 -0.6539  1.0629 -0.5475
10770TIP3   OH253724   6.711   3.542  17.123  0.2178 -0.5245  1.2150
10770TIP3    H153725   6.786   3.483  17.128 -0.3146 -1.0894  3.2451
10770TIP3    H253726   6.641   3.497  17.170 -1.6777 -0.3393 -1.2670
10771TIP3   OH253727   4.010   6.174  13.674 -0.5487  0.5139 -0.7238
10771TIP3    H153728   3.926   6.145  13.638 -0.2973  0.2107 -1.0789
10771TIP3    H253729   4.032   6.109  13.740 -0.1092  0.0131 -1.3414
10772TIP3   OH253730   6.092   1.433  15.531 -0.3199 -0.4185 -0.3784
10772TIP3    H153731   6.048   1.510  15.495 -1.0522 -1.5304 -1.9779
10772TIP3    H253732   6.101   1.452  15.624 -1.9512  0.9151 -0.4467
10773TIP3   OH253733   5.785   1.320   5.644 -0.1642  0.4438  0.3336
10773TIP3    H153734   5.830   1.260   5.702 -0.4213  0.9894  1.1236
10773TIP3    H253735   5.698   1.282   5.633  0.3106 -0.3590 -0.8023
10774TIP3   OH253736   1.875   2.907   2.081  0.4881 -0.2067  0.2069
10774TIP3    H153737   1.919   2.917   1.996  1.8727 -0.1430  0.9006
10774TIP3    H253738   1.814   2.836   2.068  2.7578 -2.2358 -0.1021
10775TIP3   OH253739   5.837   4.723   5.520 -0.1762 -0.2187  0.0311
10775TIP3    H153740   5.918   4.699   5.476 -1.7008 -1.9327 -2.0634
10775TIP3    H253741   5.781   4.758   5.450 -2.1181 -1.4884  0.8531
10776TIP3   OH253742   4.761   5.974   3.889  0.0853  0.2824 -0.4885
10776TIP3    H153743   4.838   5.968   3.832  1.6913 -0.6237  1.6324
10776TIP3    H253744   4.752   6.068   3.905  0.8449  0.3996 -0.6757
10777TIP3   OH253745   4.749   4.305  13.981  0.3264 -0.1935 -0.1032
10777TIP3    H153746   4.837   4.341  13.983  0.4839 -0.5979  1.4940
10777TIP3    H253747   4.721   4.304  14.073 -1.7005  0.7757 -0.6275
10778TIP3   OH253748   6.308   6.122  14.400  0.2657 -0.9086 -0.5235
10778TIP3    H153749   6.243   6.111  14.331  0.6620 -0.9417 -0.8985
10778TIP3    H253750   6.381   6.066  14.374  0.9624  0.0701 -0.7587
10779TIP3   OH253751   1.721   0.925   3.925 -0.2684  0.1077 -0.6224
10779TIP3    H153752   1.715   0.830   3.916  0.7903 -0.0538  0.1704
10779TIP3    H253753   1.753   0.939   4.014  0.4482  1.1663 -1.0227
10780TIP3   OH253754   0.057   2.280   4.359  0.0850 -0.6466 -0.7358
10780TIP3    H153755   0.052   2.346   4.428  0.4464 -1.0370 -0.3296
10780TIP3    H253756  -0.025   2.291   4.310  0.6158  0.8143 -1.3530
10781TIP3   OH253757   0.985   2.255   1.500 -0.0117  0.0389 -0.3749
10781TIP3    H153758   1.046   2.303   1.444 -0.9284  1.4732 -0.1938
10781TIP3    H253759   0.898   2.275   1.464 -0.6284  0.9854  1.4932
10782TIP3   OH253760   5.396   3.111   2.182  0.0317 -0.2216 -0.4896
10782TIP3    H153761   5.441   3.185   2.221 -1.2952  0.5888 -0.4414
10782TIP3    H253762   5.436   3.034   2.222  1.2776  0.4653 -0.3815
10783TIP3   OH253763   1.443   4.085  13.386 -0.1521  0.2051  0.1461
10783TIP3    H153764   1.350   4.072  13.363  0.4570 -1.4938 -1.6786
10783TIP3    H253765   1.471   3.999  13.418  0.8293  0.6822  0.5790
10784TIP3   OH253766   2.501   0.615  11.699  0.0427  0.0079  0.6156
10784TIP3    H153767   2.430   0.572  11.745 -1.0578 -1.0215 -1.8393
10784TIP3    H253768   2.578   0.599  11.753 -0.6035 -3.7110  0.6871
10785TIP3   OH253769   1.566   3.074  11.408  0.1650 -0.4148  0.2896
10785TIP3    H153770   1.609   3.005  11.459  2.0536 -0.0790 -0.7487
10785TIP3    H253771   1.602   3.155  11.442 -1.4557  0.0582  0.9666
10786TIP3   OH253772   4.742   2.984   0.412 -0.7035 -0.4474 -0.3756
10786TIP3    H153773   4.780   3.008   0.327 -3.0460  0.5702 -1.2346
10786TIP3    H253774   4.815   2.949   0.462  1.1001  0.4419 -2.2326
10787TIP3   OH253775   2.040   0.051   3.855  0.1640 -0.1381 -0.3707
10787TIP3    H153776   2.001  -0.026   3.898  2.5374 -2.0371 -1.4278
10787TIP3    H253777   2.049   0.115   3.925  0.1564 -1.6361  1.0544
10788TIP3   OH253778   3.051   6.265  13.172 -0.3793  0.1618  0.2663
10788TIP3    H153779   3.135   6.243  13.133 -0.3400 -0.6790  0.8119
10788TIP3    H253780   3.039   6.201  13.241 -1.9080 -0.3413 -0.4155
10789TIP3   OH253781   5.634   5.888   2.358 -0.3006  0.5184 -0.0095
10789TIP3    H153782   5.694   5.924   2.293 -0.8885 -0.6397 -1.2440
10789TIP3    H253783   5.558   5.946   2.356  0.3018  1.3639  0.7789
10790TIP3   OH253784   3.495   4.669   2.193 -0.3128 -0.1300  0.4262
10790TIP3    H153785   3.426   4.718   2.238  2.1292  2.7272  1.4394
10790TIP3    H253786   3.553   4.639   2.264  0.1335 -1.4144 -0.4484
10791TIP3   OH253787   4.792   0.249  17.173  0.6208 -0.0288 -0.6022
10791TIP3    H153788   4.702   0.223  17.154  1.0624 -0.1086 -2.8503
10791TIP3    H253789   4.797   0.250  17.269 -1.6879 -0.2375 -0.4232
10792TIP3   OH253790   6.591   4.004  12.610 -0.3528 -0.2833 -0.2620
10792TIP3    H153791   6.580   4.088  12.655 -0.3782 -0.7156  0.5743
10792TIP3    H253792   6.553   4.018  12.523 -0.0694  0.6564 -0.2496
10793TIP3   OH253793   1.157   5.580   5.694  0.0362  0.4073 -0.4690
10793TIP3    H153794   1.235   5.622   5.731 -0.2620  1.1248 -0.6484
10793TIP3    H253795   1.192   5.524   5.624  0.3905  0.7202 -0.5450
10794TIP3   OH253796   2.011   1.232  13.716 -0.1870 -0.2394  0.0514
10794TIP3    H153797   1.994   1.192  13.631  0.5286  1.4762 -0.9447
10794TIP3    H253798   1.986   1.165  13.779  1.5220 -2.5120 -1.5135
10795TIP3   OH253799   2.220   3.827   1.865  0.5443  0.7953  0.3148
10795TIP3    H153800   2.188   3.813   1.776 -1.3807 -1.3151  1.2235
10795TIP3    H253801   2.299   3.772   1.871 -0.9205 -1.3937  0.6595
10796TIP3   OH253802   1.634   3.555  13.493 -0.2599 -0.0005 -0.4663
10796TIP3    H153803   1.724   3.587  13.488 -0.2715  0.2489  0.6195
10796TIP3    H253804   1.640   3.473  13.540 -0.6679  0.3442  0.2052
10797TIP3   OH253805   1.981   0.479   5.236 -0.6049  0.0214  0.1892
10797TIP3    H153806   2.004   0.563   5.198  1.2099  0.5190  2.2129
10797TIP3    H253807   1.888   0.486   5.255 -0.6825  1.1943 -0.5261
10798TIP3   OH253808   3.224   0.353   1.415 -0.0036  0.1152  0.1882
10798TIP3    H153809   3.161   0.311   1.474  0.8562  0.6908  1.5650
10798TIP3    H253810   3.249   0.433   1.461  2.2066 -0.3982 -0.0181
10799TIP3   OH253811   0.565   6.394  13.981 -0.1889  0.4300 -0.2668
10799TIP3    H153812   0.610   6.334  14.040 -0.0275  0.6329 -0.1827
10799TIP3    H253813   0.553   6.343  13.901 -0.9442 -0.0506  0.1355
10800TIP3   OH253814   3.981   3.100  15.951 -0.2131  0.3038 -0.8352
10800TIP3    H153815   4.041   3.028  15.967  0.9896  1.4080 -0.1950
10800TIP3    H253816   3.895   3.058  15.943  0.3970 -1.1500 -0.1298
10801TIP3   OH253817   0.431   1.098   2.915  0.0928 -0.3172  0.3068
10801TIP3    H153818   0.348   1.051   2.925 -0.9902  0.9480 -1.9157
10801TIP3    H253819   0.492   1.032   2.884 -0.2946 -1.1053  1.1900
10802TIP3   OH253820   5.855   0.808  10.911 -0.2896 -0.2961 -0.0548
10802TIP3    H153821   5.781   0.756  10.942  0.0637 -1.6642 -1.4294
10802TIP3    H253822   5.898   0.754  10.845  1.5429  0.7545  0.1936
10803TIP3   OH253823   3.899   2.401  14.217  0.4914 -0.3557 -0.3460
10803TIP3    H153824   3.902   2.394  14.122 -0.2227  2.1457 -0.6270
10803TIP3    H253825   3.806   2.405  14.238  0.6555  1.5947  0.1708
10804TIP3   OH253826   6.412   1.022  16.712  0.4856  0.4229  0.3907
10804TIP3    H153827   6.408   1.082  16.786  0.9030 -0.1899  0.9105
10804TIP3    H253828   6.500   1.033  16.677  0.4223  0.4118  0.2269
10805TIP3   OH253829   2.377   4.548  10.837  0.4656 -0.1128 -0.2469
10805TIP3    H153830   2.369   4.454  10.855  0.1952 -0.1497 -0.5457
10805TIP3    H253831   2.452   4.554  10.777  1.8910  0.0923  1.4770
10806TIP3   OH253832   3.474   0.016   6.192  0.5301 -0.6081  0.2161
10806TIP3    H153833   3.476   0.066   6.111  1.2605  1.3261  1.3521
10806TIP3    H253834   3.418  -0.059   6.173 -3.9639  2.5033 -0.6183
10807TIP3   OH253835   4.521   3.126   3.407  0.0270  0.0705  0.5546
10807TIP3    H153836   4.459   3.070   3.455 -0.3095 -0.6227 -0.6186
10807TIP3    H253837   4.511   3.213   3.446  0.0036 -0.5156  1.9190
10808TIP3   OH253838   6.028   6.557  14.833 -0.4046  0.1194  0.2241
10808TIP3    H153839   5.952   6.612  14.814 -0.1198  0.0293 -1.3671
10808TIP3    H253840   6.102   6.618  14.830 -0.0270 -0.3312 -2.0513
10809TIP3   OH253841   3.002   0.859  11.423  0.2224 -0.0754  0.6062
10809TIP3    H153842   3.087   0.822  11.400 -0.0429 -0.7075  0.6356
10809TIP3    H253843   2.941   0.785  11.421 -0.5501  0.5516 -0.4818
10810TIP3   OH253844   3.059   3.690   1.811  0.4364 -0.2316  0.1988
10810TIP3    H153845   3.002   3.692   1.888  1.3244  0.1125  0.8589
10810TIP3    H253846   3.071   3.782   1.787  0.6271 -0.3087 -0.0038
10811TIP3   OH253847   4.547   2.603   3.981 -0.2299 -0.7365  0.2882
10811TIP3    H153848   4.458   2.578   4.007 -0.2494  0.0205  0.9989
10811TIP3    H253849   4.582   2.650   4.057  1.0136 -1.5669  0.2734
10812TIP3   OH253850   0.327   6.359  14.456 -0.2744 -0.4257  0.2605
10812TIP3    H153851   0.346   6.419  14.384 -0.4728  0.4420  0.9136
10812TIP3    H253852   0.335   6.413  14.535 -1.3223 -1.0294  0.8075
10813TIP3   OH253853   4.082   2.681  12.890 -0.0345  0.1734 -0.6377
10813TIP3    H153854   4.006   2.729  12.923  0.2872  1.3540 -1.5065
10813TIP3    H253855   4.081   2.698  12.795 -0.8468 -2.9391 -1.3008
10814TIP3   OH253856   1.458   5.193  16.115 -0.6313  0.8798  0.3693
10814TIP3    H153857   1.430   5.146  16.036 -0.0879  2.0402 -0.5376
10814TIP3    H253858   1.486   5.123  16.175 -2.1704 -0.0888  0.0090
10815TIP3   OH253859   6.330   0.036  16.369  0.2890  0.3395 -0.4723
10815TIP3    H153860   6.305   0.071  16.283 -0.2509  1.3841  0.0981
10815TIP3    H253861   6.256  -0.018  16.396  0.5407 -0.1479 -0.7362
10816TIP3   OH253862   0.218   4.114  12.119  0.4747 -0.4382  0.8156
10816TIP3    H153863   0.242   4.150  12.205 -1.9523  2.3983  0.4548
10816TIP3    H253864   0.278   4.156  12.058 -0.2071  0.4515  0.7495
10817TIP3   OH253865   1.483   1.346   5.815  0.1789  0.1061 -0.3786
10817TIP3    H153866   1.517   1.423   5.769  0.4900  0.4542  0.4084
10817TIP3    H253867   1.471   1.377   5.906 -1.1080 -0.3427 -0.3805
10818TIP3   OH253868   1.480   4.903  16.841 -0.8420 -0.0128 -0.4604
10818TIP3    H153869   1.404   4.898  16.782 -0.9983  0.4812 -0.3046
10818TIP3    H253870   1.468   4.985  16.889 -0.5080 -0.2165 -0.0226
10819TIP3   OH253871   0.493   2.543  13.932 -0.1216 -0.4203 -0.3960
10819TIP3    H153872   0.563   2.554  13.995 -0.3208  1.1370 -0.4077
10819TIP3    H253873   0.508   2.456  13.894  0.0245 -1.3694  1.7261
10820TIP3   OH253874   5.425   5.790   6.743 -0.3792  0.2085 -0.3915
10820TIP3    H153875   5.440   5.870   6.692 -0.2416 -0.2069 -1.0241
10820TIP3    H253876   5.364   5.816   6.812  1.4427  1.4098  0.8445
10821TIP3   OH253877   0.448   4.392   0.295 -0.1181 -0.2861  0.6035
10821TIP3    H153878   0.496   4.313   0.270  1.4612  0.9186 -0.3392
10821TIP3    H253879   0.356   4.367   0.287  0.2911 -1.2920 -2.4145
10822TIP3   OH253880   6.284   6.210  16.456 -0.6752  0.4023  0.4283
10822TIP3    H153881   6.261   6.126  16.416  0.1520 -0.7853  2.2893
10822TIP3    H253882   6.371   6.229  16.421  0.1088 -0.7018  1.6739
10823TIP3   OH253883   4.638   5.524   4.202  0.2965 -0.5289 -0.4972
10823TIP3    H153884   4.699   5.598   4.199  1.6004 -1.5984 -1.8218
10823TIP3    H253885   4.551   5.564   4.203  0.9778  1.0250 -0.7876
10824TIP3   OH253886   2.664   3.980   5.108  0.2645  0.1650  0.2833
10824TIP3    H153887   2.685   3.930   5.187  0.4936 -0.2745 -0.0483
10824TIP3    H253888   2.598   4.043   5.136 -0.0094 -0.3061  0.7227
10825TIP3   OH253889   3.628   6.628  15.806  0.4734  0.1865 -0.0019
10825TIP3    H153890   3.662   6.540  15.822  0.1590  0.3425  1.7943
10825TIP3    H253891   3.677   6.660  15.731  1.7049 -0.9450  0.2860
10826TIP3   OH253892   5.681   1.049  13.537  0.4120  0.0925  0.3200
10826TIP3    H153893   5.691   0.974  13.596  4.0792  0.4180  0.3325
10826TIP3    H253894   5.642   1.012  13.458  0.0750 -1.3597  1.1292
10827TIP3   OH253895   6.569   0.086   2.581  0.4870 -0.5689 -0.4866
10827TIP3    H153896   6.578   0.181   2.574 -0.5050 -0.5692 -2.5899
10827TIP3    H253897   6.631   0.051   2.518 -0.0831 -1.2519 -0.6921
10828TIP3   OH253898   3.024   1.014   1.663 -0.1637 -0.0861 -0.7490
10828TIP3    H153899   3.102   1.000   1.610  0.9221  2.4103  0.0215
10828TIP3    H253900   2.975   0.932   1.657  3.2747 -2.4239  0.0783
10829TIP3   OH253901   4.787   1.254   6.906 -0.1241 -0.6300 -0.0610
10829TIP3    H153902   4.711   1.250   6.847 -0.4373  0.1638  0.2864
10829TIP3    H253903   4.782   1.340   6.947  0.1683 -1.1163  1.0340
10830TIP3   OH253904   5.906   4.558  15.550  0.3859  0.0917 -0.3997
10830TIP3    H153905   5.865   4.620  15.490  0.1131 -0.1684 -0.4866
10830TIP3    H253906   5.835   4.526  15.605 -0.1149 -2.3216 -2.2394
10831TIP3   OH253907   4.594   6.184   2.203 -0.2535 -0.4895  0.0902
10831TIP3    H153908   4.632   6.166   2.117  0.1578 -0.7062  0.3151
10831TIP3    H253909   4.527   6.251   2.186 -1.5869 -1.9460 -0.7091
10832TIP3   OH253910   2.781   5.161   3.340  0.0538 -0.0791 -0.2743
10832TIP3    H153911   2.792   5.078   3.294 -0.1964 -0.3919  0.2182
10832TIP3    H253912   2.700   5.198   3.304 -0.4868 -0.6277  0.3660
10833TIP3   OH253913   5.871   0.994  16.056 -0.1693 -0.3683  0.0423
10833TIP3    H153914   5.802   0.930  16.040  0.8326 -1.1562 -1.2971
10833TIP3    H253915   5.950   0.955  16.018  0.3838  1.8900 -1.2842
10834TIP3   OH253916   2.212   3.891  10.955  0.2425 -0.0553  0.0522
10834TIP3    H153917   2.219   3.808  11.002 -1.5323 -0.4875 -0.3846
10834TIP3    H253918   2.122   3.920  10.971  0.8201  1.8045  0.1945
10835TIP3   OH253919   5.183   6.509  13.810 -0.2033  0.3707  0.3258
10835TIP3    H153920   5.131   6.454  13.869  1.5134 -0.1550  1.4384
10835TIP3    H253921   5.188   6.593  13.854 -0.9875  0.7669 -0.3136
10836TIP3   OH253922   1.655   2.226   1.994 -0.3380 -0.0356  0.0766
10836TIP3    H153923   1.648   2.205   1.901 -0.9444 -0.5120  0.2236
10836TIP3    H253924   1.680   2.143   2.035  1.3980  0.5019  0.1783
10837TIP3   OH253925   0.181   0.242   3.078  0.0072 -0.1313 -0.1727
10837TIP3    H153926   0.105   0.224   3.023  0.6873 -1.8796 -0.6112
10837TIP3    H253927   0.180   0.172   3.144 -0.3519  1.4757  1.6060
10838TIP3   OH253928   1.869   4.746  12.659  0.1517  0.2207 -0.9235
10838TIP3    H153929   1.846   4.734  12.751 -0.0244  1.1194 -0.8462
10838TIP3    H253930   1.825   4.673  12.614  1.6798 -1.2862 -0.1023
10839TIP3   OH253931   1.066   3.285   4.773 -1.2284 -0.5510 -0.7275
10839TIP3    H153932   1.075   3.191   4.758  0.0936 -0.4325 -0.7781
10839TIP3    H253933   1.105   3.325   4.696  0.7473  0.0324  0.4911
10840TIP3   OH253934   3.301   1.336   0.151  0.3815  0.4447 -0.3537
10840TIP3    H153935   3.366   1.402   0.173  0.8302 -0.0498 -0.1572
10840TIP3    H253936   3.323   1.311   0.061  0.6753  0.0432 -0.1740
10841TIP3   OH253937   5.447   0.579  14.902 -0.1931  0.4192  0.1748
10841TIP3    H153938   5.426   0.660  14.855 -0.6808 -0.9560 -2.1171
10841TIP3    H253939   5.526   0.601  14.951 -0.8281  2.5403  0.3602
10842TIP3   OH253940   6.023   6.216  13.655 -0.7266 -0.7740  0.8551
10842TIP3    H153941   5.969   6.252  13.725  1.5598  0.0214  2.3151
10842TIP3    H253942   6.110   6.207  13.693  1.1727  1.5495 -2.3574
10843TIP3   OH253943   1.302   0.975   0.568 -0.0761  0.4742  0.1603
10843TIP3    H153944   1.278   0.895   0.615 -1.3319  0.6456 -0.1282
10843TIP3    H253945   1.327   1.037   0.636 -1.4357  0.5760  0.6005
10844TIP3   OH253946   1.423   4.808  11.476 -0.6373  0.1324  0.3838
10844TIP3    H153947   1.370   4.729  11.468 -0.0713 -0.2626  0.5091
10844TIP3    H253948   1.360   4.876  11.499 -0.9566 -0.5256  1.5383
10845TIP3   OH253949   4.550   6.646   5.753 -0.4827 -0.6569  0.2262
10845TIP3    H153950   4.501   6.716   5.709  0.7686 -0.5695 -1.1219
10845TIP3    H253951   4.631   6.638   5.702  0.6515 -1.1860  2.0353
10846TIP3   OH253952   0.152   1.000  16.473 -0.0708 -0.4106 -0.0183
10846TIP3    H153953   0.219   0.935  16.494  2.1279  1.3494 -1.2603
10846TIP3    H253954   0.150   1.004  16.378 -1.0223  0.5253  0.0139
10847TIP3   OH253955   5.710   2.492  15.840  0.0309 -0.1985 -0.3216
10847TIP3    H153956   5.688   2.504  15.747  2.7568  2.3797 -0.7969
10847TIP3    H253957   5.785   2.433  15.839 -0.4116 -0.7808  0.3407
10848TIP3   OH253958   3.708   5.305   0.905 -0.2826  0.3803  0.2663
10848TIP3    H153959   3.708   5.396   0.935  0.2588  0.3106  0.5036
10848TIP3    H253960   3.620   5.291   0.871 -0.4980  0.8722  0.5940
10849TIP3   OH253961   3.093   0.409   1.186 -0.3772  0.0601 -0.6138
10849TIP3    H153962   3.128   0.412   1.275 -2.2857 -0.0561  0.2113
10849TIP3    H253963   3.160   0.449   1.132  0.6038  0.6630  0.9683
10850TIP3   OH253964   3.696   2.796  13.265 -0.2811 -0.0729  0.3676
10850TIP3    H153965   3.645   2.783  13.186  0.5137  0.7906 -0.3063
10850TIP3    H253966   3.743   2.878  13.251  0.7695 -0.4919  1.2443
10851TIP3   OH253967   0.149   0.617  11.381 -0.4184 -1.4395 -0.0656
10851TIP3    H153968   0.090   0.576  11.445 -1.3500 -1.7800 -1.0998
10851TIP3    H253969   0.091   0.671  11.328  0.3915 -0.9245 -0.4288
10852TIP3   OH253970   1.255   0.801   5.564  0.0289  0.1796 -0.1332
10852TIP3    H153971   1.295   0.801   5.477  0.0312  0.8305 -0.1370
10852TIP3    H253972   1.194   0.876   5.562 -2.5716 -1.8026 -0.7463
10853TIP3   OH253973   1.236   4.339  15.360 -0.4876  0.0630 -0.0387
10853TIP3    H153974   1.175   4.410  15.339 -1.1831 -0.3889  0.3942
10853TIP3    H253975   1.309   4.351  15.300  0.0023  1.8970  0.8575
10854TIP3   OH253976   2.145   6.434   3.593  0.0045  0.2202  0.1242
10854TIP3    H153977   2.185   6.520   3.596 -0.5655  0.4627  1.7101
10854TIP3    H253978   2.128   6.412   3.684 -2.3804 -0.3659 -0.3712
10855TIP3   OH253979   4.913   6.695   1.139  0.0298 -0.5999 -1.1015
10855TIP3    H153980   5.007   6.712   1.139  0.3593 -1.9085  1.8418
10855TIP3    H253981   4.873   6.776   1.172  0.3139 -0.7024 -0.5017
10856TIP3   OH253982   4.312   0.867  14.547  0.2976  0.2828  0.1056
10856TIP3    H153983   4.396   0.904  14.518  1.5507 -1.3778  1.4134
10856TIP3    H253984   4.336   0.803  14.614 -1.9664 -0.9411 -0.1685
10857TIP3   OH253985   5.312   0.553  12.451  0.0991 -0.0264  0.3466
10857TIP3    H153986   5.281   0.630  12.403  0.1294  0.0419  0.4371
10857TIP3    H253987   5.376   0.587  12.513 -0.8315  0.0548  1.2831
10858TIP3   OH253988   2.181   2.298  11.884 -0.3603  0.2470  0.1769
10858TIP3    H153989   2.189   2.392  11.868  1.1509 -0.0106 -0.8266
10858TIP3    H253990   2.101   2.272  11.838  0.3357  0.7095 -1.3620
10859TIP3   OH253991   0.557   3.368   0.861  0.1053 -0.5734  0.0720
10859TIP3    H153992   0.621   3.325   0.804  1.4947  1.1268  0.2768
10859TIP3    H253993   0.523   3.440   0.808 -1.2684 -1.1279  0.1661
10860TIP3   OH253994   2.758   0.235  15.256  0.2526  0.0913 -0.0547
10860TIP3    H153995   2.744   0.141  15.253  0.6968  0.0533 -1.4592
10860TIP3    H253996   2.670   0.271  15.273 -0.6635 -0.4331 -3.0614
10861TIP3   OH253997   2.702   6.134   3.983 -0.2767 -0.1981  0.3296
10861TIP3    H153998   2.616   6.114   3.948  0.2098 -0.1379 -0.9673
10861TIP3    H253999   2.738   6.198   3.922  2.4796 -3.5190 -1.9372
10862TIP3   OH254000   0.310   0.731  13.308 -0.0725 -0.7102  0.7432
10862TIP3    H154001   0.373   0.758  13.374  1.4996 -0.9367 -0.6112
10862TIP3    H254002   0.261   0.660  13.349  0.3828 -0.3749  1.9068
10863TIP3   OH254003   6.272   1.987  15.872 -0.2308  0.8812 -0.5629
10863TIP3    H154004   6.307   1.906  15.910  0.7921  1.5916  0.0272
10863TIP3    H254005   6.179   1.984  15.894 -0.2345 -0.1832 -0.6357
10864TIP3   OH254006   0.809   3.223  16.936 -0.1572 -0.4467  0.1084
10864TIP3    H154007   0.823   3.229  16.842  0.6532 -1.1633  0.1786
10864TIP3    H254008   0.806   3.314  16.965 -0.2346 -0.2242 -0.5778
10865TIP3   OH254009   5.036   1.213   3.819  0.4195 -0.7348  0.6213
10865TIP3    H154010   5.083   1.289   3.785 -2.3558  0.0372 -1.8587
10865TIP3    H254011   4.973   1.249   3.881 -1.0954 -0.9025 -0.7675
10866TIP3   OH254012   4.633   0.592   2.183  0.1307  0.1629 -0.0414
10866TIP3    H154013   4.553   0.619   2.229  0.5079  1.8185 -0.3000
10866TIP3    H254014   4.614   0.607   2.090  1.1762  1.8791 -0.0163
10867TIP3   OH254015   0.823   4.800   5.677 -0.3709 -0.4900 -0.4997
10867TIP3    H154016   0.856   4.716   5.644 -1.5039 -0.6155 -1.3978
10867TIP3    H254017   0.766   4.832   5.607  1.2148  1.8041 -0.8389
10868TIP3   OH254018   1.905   1.359   1.523  0.2213 -0.1602  0.0986
10868TIP3    H154019   1.969   1.393   1.461  0.4880 -1.3142 -0.3004
10868TIP3    H254020   1.934   1.269   1.540 -0.8879 -0.4722  0.4641
10869TIP3   OH254021   5.031   4.620   0.176 -0.1228  0.8337 -0.3823
10869TIP3    H154022   4.981   4.700   0.156 -0.3863  0.3879 -1.5545
10869TIP3    H254023   4.965   4.559   0.210 -0.0588  0.8424 -0.2407
10870TIP3   OH254024   3.415   4.962  17.156 -0.2645  0.3970 -0.4505
10870TIP3    H154025   3.403   4.983  17.249  0.2547 -0.4473 -0.1870
10870TIP3    H254026   3.465   5.036  17.122  3.0029 -1.0170  0.8395
10871TIP3   OH254027   5.621   6.575  11.346  0.2978 -0.0667 -0.1441
10871TIP3    H154028   5.531   6.578  11.313  1.1167  0.5090 -2.5235
10871TIP3    H254029   5.675   6.572  11.268  2.4202  0.9768  1.1889
10872TIP3   OH254030   1.253   1.208  11.924 -0.2176 -0.3120  0.0275
10872TIP3    H154031   1.239   1.142  11.856  1.4314  0.0102 -0.7013
10872TIP3    H254032   1.249   1.291  11.876  2.2557 -0.1294 -0.0055
10873TIP3   OH254033   2.808   3.189  15.787 -0.0361  0.0609 -0.1635
10873TIP3    H154034   2.781   3.098  15.776  1.4390 -0.6114  1.2015
10873TIP3    H254035   2.790   3.231  15.703 -1.7661 -1.2075 -0.4604
10874TIP3   OH254036   3.738   0.300  15.909  0.8588 -0.1719 -0.0136
10874TIP3    H154037   3.822   0.257  15.900  0.8390 -0.1443 -0.3330
10874TIP3    H254038   3.676   0.243  15.863  1.0805  0.9524 -1.7740
10875TIP3   OH254039   1.826   1.478   5.662  0.4163  0.5758  0.0045
10875TIP3    H154040   1.739   1.512   5.639 -0.4445 -0.6205  1.3294
10875TIP3    H254041   1.809   1.392   5.700  2.3541 -0.5011 -1.3718
10876TIP3   OH254042   4.091   0.690  12.898  0.3711 -0.3350 -0.0466
10876TIP3    H154043   4.089   0.736  12.814 -2.3232 -0.0776  0.0827
10876TIP3    H254044   4.162   0.626  12.888  2.0294  1.5847 -1.4070
10877TIP3   OH254045   4.263   4.140  15.218 -0.3600 -0.3559  0.7711
10877TIP3    H154046   4.296   4.157  15.306  3.1975  3.0012 -0.9146
10877TIP3    H254047   4.211   4.217  15.197 -0.9148 -0.9839 -0.2082
10878TIP3   OH254048   5.777   6.706   0.272 -0.0644 -0.2300 -0.0980
10878TIP3    H154049   5.693   6.671   0.301 -0.9176  1.4644 -0.3852
10878TIP3    H254050   5.802   6.768   0.340 -0.1948  0.9337 -1.0602
10879TIP3   OH254051   2.028   4.886   1.454  0.0082  0.2872 -0.0777
10879TIP3    H154052   1.939   4.917   1.438  0.2071  1.8122  1.5239
10879TIP3    H254053   2.024   4.792   1.437 -2.5092 -0.1312  2.2541
10880TIP3   OH254054   0.903   0.777   4.779 -0.4542  0.0672  0.3871
10880TIP3    H154055   0.836   0.725   4.735  1.1496 -0.6867 -1.2969
10880TIP3    H254056   0.966   0.713   4.812 -0.0581  0.7943  1.0937
10881TIP3   OH254057   1.286   3.838  15.021  0.2413 -0.5517  0.3453
10881TIP3    H154058   1.215   3.881  15.068  1.5832 -0.2751  2.1999
10881TIP3    H254059   1.269   3.858  14.929 -1.2002  0.8237  0.8705
10882TIP3   OH254060   4.062   3.356   1.052  0.0203  0.5937 -0.0564
10882TIP3    H154061   4.031   3.446   1.041 -0.6643  0.5234  1.1341
10882TIP3    H254062   3.997   3.315   1.109  1.0181 -0.2712  0.4959
10883TIP3   OH254063   3.851   4.063  12.026 -0.0281  0.0860 -0.0072
10883TIP3    H154064   3.881   4.118  11.953  0.9970  0.9253  1.0096
10883TIP3    H254065   3.875   3.974  12.001 -2.0951 -0.0461 -1.8850
10884TIP3   OH254066   1.723   5.605  13.863  0.1081  0.3241 -0.5560
10884TIP3    H154067   1.806   5.557  13.865 -0.1270 -0.1813 -1.8229
10884TIP3    H254068   1.732   5.665  13.789 -0.0643  1.4153  0.2815
10885TIP3   OH254069   6.723   1.038  11.966  0.0471  0.4091  0.0817
10885TIP3    H154070   6.667   0.962  11.951  0.4493  0.2667 -0.7105
10885TIP3    H254071   6.812   1.004  11.964  0.1833  0.2347  3.5107
10886TIP3   OH254072   1.187   6.018   1.057  0.2066 -0.4626  0.4204
10886TIP3    H154073   1.185   6.003   1.151 -0.5266  0.7570  0.6307
10886TIP3    H254074   1.240   6.097   1.046 -1.2898  0.5352  0.0235
10887TIP3   OH254075   5.237   5.298  13.404 -0.1684  0.4406 -0.4787
10887TIP3    H154076   5.209   5.271  13.316  1.1126  0.3551 -0.8824
10887TIP3    H254077   5.155   5.322  13.448 -1.0340 -1.0798 -1.1392
10888TIP3   OH254078   1.750   2.701   0.513 -0.2555 -0.1637  0.4347
10888TIP3    H154079   1.762   2.606   0.512  0.5163 -0.1000  1.4813
10888TIP3    H254080   1.686   2.716   0.583 -0.2247  0.1019  0.4052
10889TIP3   OH254081   1.273   0.502  15.967  0.1703 -0.4131 -0.1032
10889TIP3    H154082   1.243   0.423  16.012  0.3205  0.2752  1.2558
10889TIP3    H254083   1.253   0.574  16.028 -1.9413  0.8949 -2.1828
10890TIP3   OH254084   6.206   2.879   5.338 -0.1212  0.3150 -0.0402
10890TIP3    H154085   6.205   2.816   5.410 -2.0005  0.2481 -0.0712
10890TIP3    H254086   6.252   2.834   5.267 -1.7160 -1.2358 -0.1756
10891TIP3   OH254087   0.658   3.339   3.961  0.2691  0.2833  0.1545
10891TIP3    H154088   0.687   3.250   3.941 -1.3613 -0.4691  0.9851
10891TIP3    H254089   0.618   3.333   4.048 -1.7371  1.3665 -0.6341
10892TIP3   OH254090   5.349   6.321  11.142 -0.2267 -0.2615 -0.2057
10892TIP3    H154091   5.444   6.334  11.136 -0.3993  1.5320  0.4696
10892TIP3    H254092   5.315   6.403  11.178 -1.8992 -1.3625  0.8722
10893TIP3   OH254093   5.568   4.491   3.541 -0.0745 -0.4197  0.3351
10893TIP3    H154094   5.496   4.449   3.493 -0.4903 -1.1121  1.5137
10893TIP3    H254095   5.525   4.539   3.611  0.4791  1.1987 -0.3935
10894TIP3   OH254096   5.402   3.275  15.890 -0.1915  0.1583  0.0899
10894TIP3    H154097   5.457   3.292  15.966 -0.9102 -0.8241  0.8635
10894TIP3    H254098   5.327   3.226  15.925 -0.7615  0.0845 -1.1761
10895TIP3   OH254099   1.675   3.704  16.531 -0.1619 -0.3828 -0.0888
10895TIP3    H154100   1.686   3.625  16.479 -0.6337  0.5716 -1.7084
10895TIP3    H254101   1.580   3.714  16.539 -0.2020  1.0309 -1.6132
10896TIP3   OH254102   2.416   3.692   3.929  0.4137  0.1090 -0.6099
10896TIP3    H154103   2.480   3.755   3.964 -0.0712  0.7972 -0.9254
10896TIP3    H254104   2.395   3.726   3.842  1.3496 -1.3889 -1.4549
10897TIP3   OH254105   2.203   1.294   3.244 -0.2352 -0.4186 -0.3062
10897TIP3    H154106   2.252   1.357   3.192 -0.5194 -1.1072 -1.4477
10897TIP3    H254107   2.271   1.239   3.285  0.0009  0.4266  0.4686
10898TIP3   OH254108   0.717   1.335  11.983  0.1322  0.7852 -0.0874
10898TIP3    H154109   0.782   1.278  12.025 -0.3170  0.3609  0.0357
10898TIP3    H254110   0.720   1.416  12.033  1.6660  1.3383 -1.0151
10899TIP3   OH254111   0.968   0.140   1.039  0.1397  0.0005 -0.0226
10899TIP3    H154112   0.892   0.197   1.036  0.4200  0.3590 -2.5281
10899TIP3    H254113   0.956   0.087   1.119 -1.9353  1.0618  0.4276
10900TIP3   OH254114   6.490   2.209   2.831 -0.2171  0.5141  0.0845
10900TIP3    H154115   6.571   2.216   2.882 -0.0200 -0.6353 -0.0518
10900TIP3    H254116   6.431   2.159   2.887 -1.1576  2.0645  0.5423
10901TIP3   OH254117   0.979   2.820   6.194 -0.3673 -0.1428  0.3293
10901TIP3    H154118   1.040   2.750   6.216  1.6858  1.2982 -0.3857
10901TIP3    H254119   0.953   2.857   6.279  1.0206  0.1794  0.6446
10902TIP3   OH254120   0.217   1.516   4.388 -0.1870  0.6269  0.2148
10902TIP3    H154121   0.307   1.503   4.358 -0.4286  1.5676 -0.9787
10902TIP3    H254122   0.167   1.447   4.344 -0.0825  0.1724  0.7926
10903TIP3   OH254123   1.926   4.348  15.528  0.1332  0.4258 -0.2274
10903TIP3    H154124   1.886   4.327  15.613  1.6819 -0.5239  0.3028
10903TIP3    H254125   1.962   4.265  15.498  0.2376  0.9127 -1.4985
10904TIP3   OH254126   3.562   4.056  12.010  0.4534 -0.6592  0.0564
10904TIP3    H154127   3.656   4.040  12.022  0.4943 -1.1962 -0.8943
10904TIP3    H254128   3.558   4.126  11.946  0.2044 -1.7993 -1.2079
10905TIP3   OH254129   2.472   5.746  14.071 -0.1975 -0.7525  0.1382
10905TIP3    H154130   2.526   5.824  14.083 -0.4463 -0.6381  0.5381
10905TIP3    H254131   2.494   5.714  13.984  2.1016 -1.9047  1.0393
10906TIP3   OH254132   2.661   0.711  14.562  0.4601 -0.2546 -0.1112
10906TIP3    H154133   2.689   0.687  14.474  1.4288  0.8928 -0.1305
10906TIP3    H254134   2.625   0.800  14.553  0.4719 -0.1636  0.6346
10907TIP3   OH254135   4.332   2.957  12.299  0.5017 -0.5680 -0.6465
10907TIP3    H154136   4.418   2.983  12.268  0.3622 -0.4695 -0.9571
10907TIP3    H254137   4.323   3.000  12.384  0.5284 -0.1021 -0.8755
10908TIP3   OH254138   0.594   3.583   1.337 -0.2530 -0.3252  0.2336
10908TIP3    H154139   0.614   3.505   1.285 -0.7685 -0.7430  0.6532
10908TIP3    H254140   0.578   3.652   1.272  0.9334 -0.3696 -0.1289
10909TIP3   OH254141   6.360   2.538   4.511 -0.2444  0.4426 -0.8607
10909TIP3    H154142   6.357   2.617   4.564  0.4952 -0.6032  0.8100
10909TIP3    H254143   6.405   2.565   4.430  1.0261  1.4779  0.1479
10910TIP3   OH254144   4.402   5.173  14.951  0.4201 -0.5740 -0.6171
10910TIP3    H154145   4.443   5.250  14.911 -0.0890  0.9292  1.6020
10910TIP3    H254146   4.449   5.160  15.033 -1.7350 -0.4764  0.6956
10911TIP3   OH254147   4.850   0.156  14.144 -0.2649 -0.6139  0.6190
10911TIP3    H154148   4.755   0.166  14.134 -0.2605 -0.4725  0.7181
10911TIP3    H254149   4.886   0.225  14.087 -0.2087 -1.2909 -0.1815
10912TIP3   OH254150   3.490   5.240  13.885 -0.4867  0.5097  0.6662
10912TIP3    H154151   3.540   5.165  13.851 -0.6460  1.0950 -0.9749
10912TIP3    H254152   3.507   5.240  13.979  1.7913  0.0710  0.3148
10913TIP3   OH254153   4.923   6.739  12.583 -0.0208  0.2539  0.2740
10913TIP3    H154154   4.830   6.743  12.560  0.5124  0.6275 -2.0779
10913TIP3    H254155   4.934   6.653  12.623 -1.2834 -0.0277  0.0652
10914TIP3   OH254156   3.264   5.585   1.095 -0.1863 -0.7198 -0.4874
10914TIP3    H154157   3.270   5.620   1.006 -1.7537 -0.0744 -0.3706
10914TIP3    H254158   3.250   5.491   1.083  1.3970 -0.9250 -0.8650
10915TIP3   OH254159   3.655   3.931  16.102  0.0497 -0.1075 -0.1148
10915TIP3    H154160   3.578   3.882  16.130 -0.7752  0.1561 -1.8381
10915TIP3    H254161   3.699   3.875  16.038  0.0202  0.6834 -0.8478
10916TIP3   OH254162   3.291   6.489   5.974  0.6482  0.1933 -0.1063
10916TIP3    H154163   3.303   6.395   5.955  1.4592  0.0242  1.1332
10916TIP3    H254164   3.274   6.492   6.068 -0.7951  1.1980 -0.3713
10917TIP3   OH254165   0.350   3.458   2.868  0.3836 -0.5373 -0.3178
10917TIP3    H154166   0.267   3.481   2.827  0.4615  0.5881  0.1046
10917TIP3    H254167   0.344   3.496   2.956  0.5306 -2.2085  0.4460
10918TIP3   OH254168   4.292   3.662  12.675 -0.1848 -0.2201  0.3266
10918TIP3    H154169   4.231   3.613  12.730 -0.4934 -0.3251 -0.1001
10918TIP3    H254170   4.373   3.664  12.725 -0.8405  0.8636  1.3799
10919TIP3   OH254171   4.678   2.254  16.285 -0.3992  0.0718  0.2245
10919TIP3    H154172   4.700   2.188  16.219  0.1445  1.5798 -1.1645
10919TIP3    H254173   4.760   2.271  16.330 -0.2062  0.7556 -0.3540
10920TIP3   OH254174   0.638   2.677  17.307 -0.5160 -0.6155  0.5057
10920TIP3    H154175   0.691   2.607  17.268  0.4242  0.4372 -0.1585
10920TIP3    H254176   0.683   2.757  17.283 -0.7470  0.1608  2.5183
10921TIP3   OH254177   4.971   0.295   5.715  0.1933  0.2435  0.2983
10921TIP3    H154178   4.949   0.384   5.687  0.4848  0.5463  1.0047
10921TIP3    H254179   4.963   0.242   5.635  2.0898  1.2795 -0.6634
10922TIP3   OH254180   4.702   3.598  14.726 -0.1987  0.0862 -0.3758
10922TIP3    H154181   4.691   3.685  14.690  0.5696  0.4313  0.1997
10922TIP3    H254182   4.670   3.604  14.816 -0.4781 -0.3152 -0.4453
10923TIP3   OH254183   0.711   1.553  12.982 -0.1080 -0.2438 -0.0589
10923TIP3    H154184   0.700   1.552  13.077 -2.4419  1.1020 -0.2305
10923TIP3    H254185   0.773   1.624  12.966 -1.6766  1.2966  0.3841
10924TIP3   OH254186   2.428   0.620  16.634 -0.6035  0.3726 -0.2286
10924TIP3    H154187   2.463   0.571  16.560 -1.5220 -0.0183 -0.4214
10924TIP3    H254188   2.395   0.701  16.595  0.5642  0.9830  0.0307
10925TIP3   OH254189   6.571   5.210   4.545 -0.2132 -0.0611  0.3884
10925TIP3    H154190   6.489   5.161   4.552  0.5999 -1.4323  0.9152
10925TIP3    H254191   6.560   5.266   4.469 -1.0294 -1.4546 -0.5724
10926TIP3   OH254192   1.779   4.334  12.726 -0.1298  0.4600 -0.4467
10926TIP3    H154193   1.842   4.282  12.677  0.5883  1.6909 -0.8897
10926TIP3    H254194   1.699   4.333  12.673  0.2577  0.7767 -1.0508
10927TIP3   OH254195   2.195   2.681  11.424  0.4266 -0.2620 -0.2158
10927TIP3    H154196   2.240   2.599  11.403 -0.9462 -1.1156  0.0841
10927TIP3    H254197   2.143   2.661  11.501 -2.0784  0.0535 -1.7256
10928TIP3   OH254198   2.472   3.172   0.491  0.1366  0.2902 -0.3921
10928TIP3    H154199   2.428   3.239   0.438 -0.9800 -0.4672 -0.4483
10928TIP3    H254200   2.414   3.097   0.488  2.0151 -1.2120 -1.5132
10929TIP3   OH254201   2.139   4.923   2.561 -0.0511 -0.2774  0.3566
10929TIP3    H154202   2.052   4.905   2.596 -1.2682  1.3280 -1.5920
10929TIP3    H254203   2.155   5.015   2.583  1.3391 -0.6364  0.9784
10930TIP3   OH254204   0.367   4.700  10.723  0.4194  0.8384 -0.5706
10930TIP3    H154205   0.443   4.756  10.733 -0.1529  1.4162  0.7581
10930TIP3    H254206   0.292   4.757  10.740 -0.3617  0.3794 -2.2157
10931TIP3   OH254207   4.026   4.164   0.084  0.0987  0.2172  0.0380
10931TIP3    H154208   4.091   4.211   0.033  1.2586 -1.8135 -0.4375
10931TIP3    H254209   4.076   4.100   0.134 -1.5056 -1.5531 -0.5022
10932TIP3   OH254210   1.540   4.770  14.666 -0.0631  0.2622 -0.1508
10932TIP3    H154211   1.481   4.729  14.603  2.1946 -0.8736 -1.6554
10932TIP3    H254212   1.570   4.698  14.722  0.1450  0.7510  0.3796
10933TIP3   OH254213   0.869   5.660   3.344 -0.1341 -0.2135 -0.9186
10933TIP3    H154214   0.950   5.710   3.354 -0.3441  0.1319 -0.8990
10933TIP3    H254215   0.890   5.590   3.282  0.0529  0.1635 -1.2881
10934TIP3   OH254216   5.416   1.045   0.738 -0.2554  0.3595  0.9969
10934TIP3    H154217   5.372   0.989   0.802  2.3190 -0.9577  1.7665
10934TIP3    H254218   5.399   1.002   0.653  0.7533 -1.0428  1.4568
10935TIP3   OH254219   3.763   3.319   6.333 -0.0363 -0.2439  0.0461
10935TIP3    H154220   3.814   3.245   6.301 -0.0309  0.8080 -2.6447
10935TIP3    H254221   3.674   3.302   6.303 -0.1541  0.5552 -0.0883
10936TIP3   OH254222   4.768   1.367  11.525  0.1758 -0.2971 -0.4628
10936TIP3    H154223   4.739   1.456  11.503  4.1994  1.0144 -1.2824
10936TIP3    H254224   4.725   1.311  11.461 -2.2783  1.0241 -0.0738
10937TIP3   OH254225   4.055   4.161   2.504  0.2417 -0.2976  0.2282
10937TIP3    H154226   4.042   4.183   2.596 -1.2205  0.5952 -0.1545
10937TIP3    H254227   4.019   4.236   2.456  2.5013  0.0527 -1.0799
10938TIP3   OH254228   6.545   4.556  14.622 -0.5848  0.1409  0.3428
10938TIP3    H154229   6.587   4.538  14.707  0.2713 -1.0057 -0.2980
10938TIP3    H254230   6.452   4.543  14.638 -0.6333  1.6801  1.5350
10939TIP3   OH254231   2.883   2.395   3.651  0.2407 -0.3163  0.3178
10939TIP3    H154232   2.823   2.369   3.581 -0.4788 -0.4739  0.9811
10939TIP3    H254233   2.865   2.488   3.665  0.7457 -0.1591 -0.0489
10940TIP3   OH254234   1.425   1.257  12.164 -0.4758  0.4005  0.1849
10940TIP3    H154235   1.494   1.321  12.147 -0.7525  0.8796  0.8478
10940TIP3    H254236   1.363   1.269  12.091  0.0768  0.0394 -0.3538
10941TIP3   OH254237   4.820   6.462  13.323  0.3887 -0.0037 -0.4085
10941TIP3    H154238   4.904   6.418  13.326  0.6772  0.6130  1.0040
10941TIP3    H254239   4.836   6.542  13.272  1.7216  2.1638  3.0964
10942TIP3   OH254240   2.761   3.656   5.907 -0.3705 -0.0258  0.2815
10942TIP3    H154241   2.679   3.641   5.860  1.5067  0.2063 -3.3910
10942TIP3    H254242   2.772   3.751   5.904  1.6046 -0.2321 -2.4793
10943TIP3   OH254243   1.576   3.125   0.616 -0.1394 -0.0211 -0.1941
10943TIP3    H154244   1.547   3.089   0.533  1.3654 -0.5415 -0.5354
10943TIP3    H254245   1.504   3.180   0.646 -1.1146 -0.6488 -1.3264
10944TIP3   OH254246   5.825   6.661  12.827  0.6337  0.3065 -0.2896
10944TIP3    H154247   5.854   6.695  12.741  1.1264  0.9793  0.1258
10944TIP3    H254248   5.731   6.678  12.829  0.6739  0.5821 -0.5727
10945TIP3   OH254249   3.758   6.423   5.066  0.2993 -0.0159  0.0277
10945TIP3    H154250   3.691   6.364   5.102 -1.4447  0.1507 -2.6033
10945TIP3    H254251   3.720   6.511   5.076  0.9005  0.2512  0.0111
10946TIP3   OH254252   4.705   0.110   0.078 -0.3556 -0.1487  0.1465
10946TIP3    H154253   4.653   0.041   0.039 -0.2436 -0.1499 -0.0024
10946TIP3    H254254   4.649   0.147   0.147 -0.1905 -0.7879  0.6353
10947TIP3   OH254255   3.755   1.865  14.927 -0.2718  0.8351  0.3399
10947TIP3    H154256   3.770   1.776  14.960 -0.1097  0.2515 -1.2343
10947TIP3    H254257   3.790   1.922  14.996  1.5088 -0.3470  0.4945
10948TIP3   OH254258   4.562   6.382  11.525  0.6497  0.3122 -0.2688
10948TIP3    H154259   4.615   6.459  11.506 -0.1982  0.6145 -1.5762
10948TIP3    H254260   4.519   6.361  11.442 -1.5986  0.3588  0.8071
10949TIP3   OH254261   5.516   5.952   6.556  0.8628  0.1479  0.8991
10949TIP3    H154262   5.504   6.034   6.603 -3.2499 -0.1845  0.7409
10949TIP3    H254263   5.450   5.954   6.487  2.4189 -2.2007 -0.8111
10950TIP3   OH254264   2.447   6.746   0.122  0.3849  0.0773  0.1552
10950TIP3    H154265   2.504   6.815   0.158  0.7893  1.1468 -2.3595
10950TIP3    H254266   2.506   6.685   0.080 -0.0959 -1.0673  1.0699
10951TIP3   OH254267   0.701   4.869  11.598  0.0278  0.1696 -0.2114
10951TIP3    H154268   0.760   4.941  11.576 -1.2139  1.4225  0.4295
10951TIP3    H254269   0.627   4.881  11.539 -0.9867  0.4781  1.1028
10952TIP3   OH254270   3.186   2.303  11.488 -0.7942 -0.1013 -0.4841
10952TIP3    H154271   3.220   2.386  11.522  0.7881 -0.2594 -1.6056
10952TIP3    H254272   3.234   2.236  11.536 -2.1086 -0.4088  0.4561
10953TIP3   OH254273   0.269   1.122   1.660  0.6662  0.4402  0.5650
10953TIP3    H154274   0.361   1.138   1.638  0.5295  0.9692  0.3554
10953TIP3    H254275   0.261   1.027   1.665  1.0819  0.3658 -0.0586
10954TIP3   OH254276   2.408   4.875  15.235 -0.6892 -0.1156  0.1506
10954TIP3    H154277   2.459   4.895  15.313 -0.5718 -0.3040  0.1238
10954TIP3    H254278   2.345   4.809  15.264 -1.1777  0.4043  0.2774
10955TIP3   OH254279   3.781   6.625  13.458 -0.4111 -0.3789 -0.1665
10955TIP3    H154280   3.831   6.616  13.377  1.0548 -0.6403  0.7275
10955TIP3    H254281   3.818   6.558  13.516  0.0474  1.1949  1.4292
10956TIP3   OH254282   4.412   6.628   6.009  0.1251 -0.0997  0.4508
10956TIP3    H154283   4.481   6.587   6.061 -0.3530 -1.4200  0.1053
10956TIP3    H254284   4.452   6.639   5.922  0.6360  1.2928  0.8401
10957TIP3   OH254285   6.610   6.356   3.311  0.0147 -0.8219  0.2137
10957TIP3    H154286   6.568   6.428   3.264  1.4387 -0.8467 -1.1762
10957TIP3    H254287   6.542   6.322   3.369 -1.1667  0.5868 -0.2839
10958TIP3   OH254288   0.533   1.320   0.673  0.1549  0.3872 -0.0701
10958TIP3    H154289   0.470   1.266   0.625 -1.5571  1.4337  0.9057
10958TIP3    H254290   0.538   1.279   0.760 -0.2453  1.0789  0.2906
10959TIP3   OH254291   6.761   2.114   4.602  0.0193  0.1552  0.2694
10959TIP3    H154292   6.787   2.166   4.526  0.4556  1.3611  1.2218
10959TIP3    H254293   6.811   2.033   4.594  0.4700  0.4952 -0.4371
10960TIP3   OH254294   5.968   3.052  14.042 -0.0179 -0.1154 -0.1782
10960TIP3    H154295   6.007   3.136  14.022 -0.5877  0.4943  1.1441
10960TIP3    H254296   5.874   3.065  14.032 -0.1721 -0.3451  0.8195
10961TIP3   OH254297   2.353   2.727   3.371 -0.9314  0.3227 -0.4070
10961TIP3    H154298   2.388   2.743   3.283 -1.1341  3.2117 -0.0560
10961TIP3    H254299   2.284   2.792   3.382  0.4794  1.5161  2.6239
10962TIP3   OH254300   0.378   5.839  10.813  0.3548 -0.0350  0.2429
10962TIP3    H154301   0.332   5.759  10.838 -0.3761  0.4991  0.6689
10962TIP3    H254302   0.466   5.810  10.788 -0.2757 -1.1212 -0.8269
10963TIP3   OH254303   6.617   5.557   4.364  0.5545  0.4817 -0.4328
10963TIP3    H154304   6.607   5.612   4.442 -0.2395 -1.5208  0.9578
10963TIP3    H254305   6.708   5.528   4.366  0.3349 -0.1952  0.2257
10964TIP3   OH254306   5.101   5.171   0.714  0.0371 -0.1212 -0.2517
10964TIP3    H154307   5.051   5.171   0.795  1.4699  0.4980  0.6715
10964TIP3    H254308   5.192   5.160   0.742  0.6755  1.1483 -1.6983
10965TIP3   OH254309   3.734   1.148  14.991 -0.1410  0.1766  0.4646
10965TIP3    H154310   3.825   1.148  14.964  0.0983  2.7979  1.0264
10965TIP3    H254311   3.697   1.228  14.954 -1.3026  0.9160  2.9803
10966TIP3   OH254312   2.406   4.032   3.552 -0.4267  0.2905  0.0679
10966TIP3    H154313   2.492   4.046   3.512 -0.9813  1.1249 -0.9034
10966TIP3    H254314   2.345   4.038   3.479 -1.3740  0.5005  0.8570
10967TIP3   OH254315   2.488   3.332   4.184 -0.5462  0.5880 -1.0960
10967TIP3    H154316   2.456   3.257   4.134 -1.4071  0.4972 -0.4266
10967TIP3    H254317   2.584   3.323   4.181 -0.6059 -1.8346  0.8586
10968TIP3   OH254318   1.795   0.978  17.357  0.2277  0.1436  0.2714
10968TIP3    H154319   1.843   1.047  17.312 -1.1191  0.0567 -1.3830
10968TIP3    H254320   1.725   0.954  17.297 -1.2934 -0.4278  2.1688
10969TIP3   OH254321   4.679   3.242  14.068  0.0226 -0.0065 -0.3507
10969TIP3    H154322   4.724   3.234  14.152 -1.3968  0.6400  0.5104
10969TIP3    H254323   4.596   3.286  14.089  0.6654  2.4170 -2.4433
10970TIP3   OH254324   5.200   2.379   1.460  0.0513 -0.0821 -0.0683
10970TIP3    H154325   5.114   2.386   1.418 -0.0524  0.2160  0.1895
10970TIP3    H254326   5.256   2.438   1.409 -0.5493  1.8839  1.4048
10971TIP3   OH254327   0.947   1.667  12.701  0.0846  0.0048 -0.1677
10971TIP3    H154328   1.024   1.610  12.700 -0.5843 -0.9429  0.5716
10971TIP3    H254329   0.966   1.730  12.771 -0.4219 -1.1493  1.0569
10972TIP3   OH254330   6.656   0.686   1.525 -0.3317  0.2361  0.1590
10972TIP3    H154331   6.560   0.679   1.525 -0.3442  0.3419  0.7921
10972TIP3    H254332   6.686   0.597   1.510 -0.5282 -0.1170  1.6712
10973TIP3   OH254333   1.181   3.042  13.645 -0.1398  0.0337  0.2421
10973TIP3    H154334   1.128   3.053  13.724 -0.0980  2.2088  0.0250
10973TIP3    H254335   1.127   3.078  13.575  0.9787  0.8665 -0.2265
10974TIP3   OH254336   3.814   5.142   5.149  0.3284 -0.3056 -0.0506
10974TIP3    H154337   3.879   5.073   5.153 -0.2979 -0.9646 -0.8689
10974TIP3    H254338   3.751   5.113   5.083 -0.7721  0.3275  0.6676
10975TIP3   OH254339   2.341   4.455   0.430 -0.0422  0.4656  0.1498
10975TIP3    H154340   2.324   4.499   0.513  0.1187  0.4185  0.2089
10975TIP3    H254341   2.376   4.524   0.373  0.4981  0.3528  0.3376
10976TIP3   OH254342   4.166   3.350  15.984  0.2682  0.5530 -0.0618
10976TIP3    H154343   4.214   3.304  15.915  0.1069 -0.6483  0.6028
10976TIP3    H254344   4.147   3.283  16.049 -2.3754  0.9799 -0.3138
10977TIP3   OH254345   2.599   3.693   3.465  0.0680 -0.4136 -0.0218
10977TIP3    H154346   2.519   3.657   3.504 -0.7823 -0.2695 -1.5224
10977TIP3    H254347   2.655   3.715   3.539 -1.3262 -0.4441  1.0782
10978TIP3   OH254348   6.355   6.051  17.065 -0.2976 -0.0617 -0.3694
10978TIP3    H154349   6.428   6.030  17.123  1.0210  1.1690 -1.5241
10978TIP3    H254350   6.342   6.145  17.074 -2.1826 -0.3317  0.2603
10979TIP3   OH254351   0.253   1.013   5.480 -0.2585  0.5146  0.3769
10979TIP3    H154352   0.199   1.091   5.492  0.0794  0.9871 -1.0770
10979TIP3    H254353   0.307   1.009   5.559 -1.9786  0.3580  1.6046
10980TIP3   OH254354   4.767   4.365  11.390 -0.7028 -0.4426 -0.3580
10980TIP3    H154355   4.839   4.322  11.344 -0.2766  1.1627 -1.2292
10980TIP3    H254356   4.711   4.400  11.320 -0.6101  1.1114  0.3098
10981TIP3   OH254357   4.780   0.024   3.000 -0.0206 -0.1579 -0.4607
10981TIP3    H154358   4.826   0.060   2.924  0.9226  1.5466  0.8422
10981TIP3    H254359   4.850   0.002   3.062 -0.8496  0.3460  0.6914
10982TIP3   OH254360   5.565   4.506   0.059  0.4316 -0.3945 -0.1098
10982TIP3    H154361   5.525   4.569   0.119  0.8225 -2.7408  2.9083
10982TIP3    H254362   5.493   4.474   0.006 -0.3761  0.3228  0.5280
10983TIP3   OH254363   5.367   2.098   4.632  0.0399 -0.0386  0.6251
10983TIP3    H154364   5.383   2.191   4.619 -1.9159  0.2921  0.3218
10983TIP3    H254365   5.298   2.077   4.570 -0.3753 -1.4340  1.5238
10984TIP3   OH254366   6.411   0.236   2.884 -0.1695 -0.2558 -0.3647
10984TIP3    H154367   6.476   0.273   2.825 -0.7415  1.7314  0.1643
10984TIP3    H254368   6.448   0.152   2.911  0.5470 -0.7800 -2.7351
10985TIP3   OH254369   2.621   3.108  13.415 -0.0095 -0.3367  0.0231
10985TIP3    H154370   2.563   3.033  13.403  0.4548 -0.9065  1.1242
10985TIP3    H254371   2.566   3.184  13.399 -1.9524 -0.6905  3.8483
10986TIP3   OH254372   0.285   0.331  11.650  0.5531 -0.3751 -1.1265
10986TIP3    H154373   0.355   0.390  11.680 -0.1742  0.2897 -0.6921
10986TIP3    H254374   0.225   0.388  11.602 -2.0839  0.1029  2.3258
10987TIP3   OH254375   3.476   0.297  11.847  0.1360 -0.2147  0.3559
10987TIP3    H154376   3.530   0.228  11.887  1.5829  0.3628 -0.5499
10987TIP3    H254377   3.529   0.376  11.854 -0.9063  0.5306  0.0711
10988TIP3   OH254378   5.869   3.222   4.950 -0.2719 -0.0571  0.4719
10988TIP3    H154379   5.821   3.304   4.946 -1.7414 -0.9275 -1.3246
10988TIP3    H254380   5.812   3.163   4.998  0.4890 -0.2258  1.1891
10989TIP3   OH254381   3.278   2.879  12.950 -0.2686 -0.2177 -0.2562
10989TIP3    H154382   3.269   2.973  12.934 -0.0306 -0.4876 -2.2789
10989TIP3    H254383   3.217   2.838  12.888 -0.0026 -1.4138  0.2376
10990TIP3   OH254384   1.129   3.852  12.957 -0.2421  0.7215 -0.1822
10990TIP3    H154385   1.091   3.768  12.982 -3.1489  1.4449 -1.7143
10990TIP3    H254386   1.133   3.902  13.038  0.2469 -0.3958  0.5113
10991TIP3   OH254387   3.056   1.362   6.446 -0.4311  0.3089  0.0620
10991TIP3    H154388   3.083   1.288   6.500 -2.7753 -0.0994  0.8040
10991TIP3    H254389   3.032   1.430   6.509  0.4558  1.2505 -0.5875
10992TIP3   OH254390   6.102   3.511   6.084  0.2654 -0.0265 -0.9134
10992TIP3    H154391   6.109   3.477   6.173  0.7768  2.2210 -0.0284
10992TIP3    H254392   6.142   3.443   6.029  0.9066 -0.9994  0.6831
10993TIP3   OH254393   3.123   3.770   3.633 -0.0718  0.4640 -0.3809
10993TIP3    H154394   3.074   3.781   3.715 -0.1789 -0.7340 -0.2629
10993TIP3    H254395   3.149   3.678   3.633  1.5657  0.9027 -0.8060
10994TIP3   OH254396   0.797   1.862  14.361 -0.2875 -0.3996  0.0893
10994TIP3    H154397   0.832   1.833  14.277 -1.0255  0.5349 -0.5655
10994TIP3    H254398   0.843   1.944  14.380  1.4017 -1.6232  1.6639
10995TIP3   OH254399   1.757   5.664  12.086 -0.6317 -0.3071 -0.0008
10995TIP3    H154400   1.821   5.597  12.062 -0.6184  0.0459 -1.0183
10995TIP3    H254401   1.775   5.736  12.026 -1.1164  0.3245  0.5984
10996TIP3   OH254402   1.249   4.419  12.556 -0.0636 -0.1439 -0.1931
10996TIP3    H154403   1.222   4.485  12.492  1.8429 -1.5541 -2.5994
10996TIP3    H254404   1.193   4.344  12.540  1.4068 -1.0450 -1.3212
10997TIP3   OH254405   3.427   4.163  12.213 -0.0833 -0.1559 -0.1951
10997TIP3    H154406   3.476   4.196  12.138  0.7569  0.3144  0.5405
10997TIP3    H254407   3.458   4.074  12.225  0.1712 -0.0560 -0.0948
10998TIP3   OH254408   1.020   0.676  10.601 -0.0762  0.6787 -0.4071
10998TIP3    H154409   0.978   0.718  10.526 -2.5424 -0.3797  0.2922
10998TIP3    H254410   1.030   0.747  10.666  2.2159  1.6345 -1.6668
10999TIP3   OH254411   2.767   5.730  14.327 -0.4136 -0.1377  0.1783
10999TIP3    H154412   2.725   5.705  14.245  0.6150  0.0560 -0.4277
10999TIP3    H254413   2.834   5.794  14.301  1.4677 -1.7320  0.8355
11000TIP3   OH254414   2.788   4.491  12.883  0.3612 -0.3889  0.0507
11000TIP3    H154415   2.740   4.518  12.961  1.2134 -0.1978  0.5133
11000TIP3    H254416   2.879   4.514  12.900  0.4563  0.4089 -1.3297
11001TIP3   OH254417   3.072   1.793  16.025 -0.6712 -0.3850 -0.7844
11001TIP3    H154418   3.153   1.824  15.984  0.0737 -0.9780  0.1805
11001TIP3    H254419   3.009   1.864  16.012  0.6766  1.1082  0.4409
11002TIP3   OH254420   4.320   3.611  14.258  0.8099 -0.5871 -0.8490
11002TIP3    H154421   4.326   3.578  14.168  1.8455 -1.5042 -0.4675
11002TIP3    H254422   4.241   3.665  14.259  1.4390  0.4757 -2.6397
11003TIP3   OH254423   6.256   5.164  15.129 -0.5047 -0.5394  0.0721
11003TIP3    H154424   6.310   5.155  15.050 -0.7465 -2.6112  0.0713
11003TIP3    H254425   6.279   5.250  15.165  0.1255  0.1449 -1.8598
11004TIP3   OH254426   6.733   4.291  15.956  0.4815  0.3559 -0.2271
11004TIP3    H154427   6.747   4.287  16.051 -1.3677  0.7023  0.0921
11004TIP3    H254428   6.739   4.384  15.935 -0.4473  0.4346 -0.1966
11005TIP3   OH254429   4.140   6.448  15.818  0.8188  0.7543 -0.8488
11005TIP3    H154430   4.080   6.471  15.746  1.8881  1.1617 -1.6274
11005TIP3    H254431   4.088   6.462  15.897 -0.8313 -0.9171 -1.5249
11006TIP3   OH254432   3.945   6.075   4.119  0.7015  0.0034 -0.0157
11006TIP3    H154433   3.936   5.989   4.160  0.5898 -0.4455 -0.9664
11006TIP3    H254434   3.904   6.136   4.182 -2.3257 -1.0310 -0.8137
11007TIP3   OH254435   3.941   1.512  16.938 -0.5382  0.0147  0.0474
11007TIP3    H154436   4.013   1.552  16.988 -1.1444  0.3134  0.6984
11007TIP3    H254437   3.894   1.587  16.900 -0.6419 -0.1700 -0.1955
11008TIP3   OH254438   4.297   1.590   2.411 -0.2449 -0.0111  0.0788
11008TIP3    H154439   4.288   1.686   2.417  0.4008  0.0930 -0.5521
11008TIP3    H254440   4.365   1.576   2.345 -0.8152 -0.9270 -0.3317
11009TIP3   OH254441   2.462   5.347   0.921  1.1025  0.4001  0.3525
11009TIP3    H154442   2.545   5.330   0.965  0.3026  1.5678  2.4586
11009TIP3    H254443   2.409   5.391   0.986 -1.2386 -0.3889 -0.8934
11010TIP3   OH254444   1.334   6.601  14.170  0.0751 -0.0110  0.0179
11010TIP3    H154445   1.374   6.516  14.187  2.3270  1.1570  0.8720
11010TIP3    H254446   1.384   6.637  14.096 -0.2948  0.9372  0.2140
11011TIP3   OH254447   5.819   6.137   1.055  0.1287  0.3251 -0.4369
11011TIP3    H154448   5.896   6.088   1.086  1.1579  1.6878 -0.7157
11011TIP3    H254449   5.807   6.205   1.121 -1.4301 -0.4174  0.0766
11012TIP3   OH254450   0.613   5.053   5.571 -0.3384 -0.3422  0.5842
11012TIP3    H154451   0.567   4.975   5.540 -0.2945 -0.7700  1.5362
11012TIP3    H254452   0.699   5.048   5.530 -0.1166 -1.1407  1.1188
11013TIP3   OH254453   4.711   3.594   5.925  0.1168 -0.0787 -0.2583
11013TIP3    H154454   4.731   3.501   5.936  1.2739  0.0649 -0.9121
11013TIP3    H254455   4.791   3.631   5.886 -0.2482  1.2250  0.1662
11014TIP3   OH254456   5.612   2.243   3.915  0.4438  0.0926 -0.4030
11014TIP3    H154457   5.600   2.183   3.841 -2.1791 -0.4722  0.3711
11014TIP3    H254458   5.523   2.263   3.945  1.3475  1.9484  1.3248
11015TIP3   OH254459   1.917   0.425  15.876 -0.5067 -0.1054  0.3445
11015TIP3    H154460   1.964   0.348  15.908  1.4837  0.6994 -0.4608
11015TIP3    H254461   1.885   0.469  15.955  3.1808  1.1538  1.3524
11016TIP3   OH254462   1.463   1.369  13.443  0.0071 -0.1328  0.1856
11016TIP3    H154463   1.429   1.352  13.355 -1.2891  0.6132  0.5163
11016TIP3    H254464   1.499   1.458  13.437 -0.1224 -0.0643  0.4141
11017TIP3   OH254465   5.005   1.709   3.289 -0.0156  0.6036 -0.0381
11017TIP3    H154466   5.094   1.734   3.316  1.5480 -1.8565 -2.4219
11017TIP3    H254467   4.965   1.676   3.370  0.7839  2.6864  1.3108
11018TIP3   OH254468   4.335   2.641  15.643 -0.3233  0.3836 -0.4378
11018TIP3    H154469   4.310   2.649  15.551 -0.3455  0.0923 -0.4568
11018TIP3    H254470   4.412   2.585  15.643  0.1073  0.9646 -0.3411
11019TIP3   OH254471   5.975   2.318   1.688 -0.4941 -0.3345 -0.6778
11019TIP3    H154472   5.987   2.225   1.707  2.5167 -0.3700 -2.1844
11019TIP3    H254473   5.912   2.348   1.754 -0.9305 -3.2248  0.3680
11020TIP3   OH254474   1.714   4.948   5.970 -0.2221 -0.0672  0.5158
11020TIP3    H154475   1.683   5.036   5.951 -0.2166 -0.2240 -0.2636
11020TIP3    H254476   1.652   4.914   6.035 -1.3169 -0.1468 -0.5396
11021TIP3   OH254477   1.963   4.384  13.774  0.2486 -0.0455 -0.0984
11021TIP3    H154478   2.024   4.418  13.839 -0.3904  0.0259  0.4803
11021TIP3    H254479   1.980   4.436  13.696 -0.2755  1.2002  0.5820
11022TIP3   OH254480   1.996   2.500   5.551  0.0603 -0.0288  0.3476
11022TIP3    H154481   1.976   2.511   5.644 -0.9635  0.2661  0.1155
11022TIP3    H254482   2.055   2.573   5.530 -0.4254  0.4419  0.5777
11023TIP3   OH254483   0.370   3.882  17.085 -0.3828 -0.3960  0.1737
11023TIP3    H154484   0.390   3.909  17.175 -0.2141  0.2434 -0.0526
11023TIP3    H254485   0.281   3.848  17.090  0.3020 -2.2286  0.9663
11024TIP3   OH254486   6.055   3.675   4.699 -0.1247  0.1793  0.1154
11024TIP3    H154487   6.088   3.643   4.615 -1.6027  0.0644 -0.4538
11024TIP3    H254488   6.058   3.771   4.690 -3.7350  0.3125 -1.6446
11025TIP3   OH254489   3.705   3.454  15.451  0.5300 -0.1532 -0.0795
11025TIP3    H154490   3.744   3.540  15.434 -0.3549  0.1799 -0.4913
11025TIP3    H254491   3.647   3.439  15.376  0.5508 -1.0378  0.0747
11026TIP3   OH254492   1.604   0.520  17.341 -0.4639  0.5539  0.0544
11026TIP3    H154493   1.589   0.539  17.249 -0.6304 -0.4411 -0.1419
11026TIP3    H254494   1.535   0.457  17.364 -0.0858  0.3650  0.7080
11027TIP3   OH254495   2.516   3.528  14.161  0.1613 -0.1151  0.3928
11027TIP3    H154496   2.522   3.503  14.069 -1.2813  0.4328  0.1200
11027TIP3    H254497   2.450   3.597  14.163  0.5860  0.2972  1.7696
11028TIP3   OH254498   5.602   0.527   5.081  0.2811 -0.3915  0.5510
11028TIP3    H154499   5.647   0.443   5.086  0.5006 -0.3034  0.0484
11028TIP3    H254500   5.536   0.522   5.151 -1.2252 -1.8911 -0.8976
11029TIP3   OH254501   2.398   5.138  11.750 -0.4632 -0.2492  0.4934
11029TIP3    H154502   2.384   5.048  11.780 -1.9589 -0.2985 -0.2645
11029TIP3    H254503   2.407   5.189  11.831  2.9986 -1.3586  0.9826
11030TIP3   OH254504   1.078   2.105  16.353 -0.1792 -0.5456 -0.0965
11030TIP3    H154505   1.006   2.163  16.326 -0.6774 -1.2793 -0.3762
11030TIP3    H254506   1.050   2.069  16.437  0.8518  0.8277  0.8982
11031TIP3   OH254507   6.031   4.619   2.790  0.3210 -0.0775 -0.3643
11031TIP3    H154508   5.981   4.616   2.708 -1.3038  0.6644  0.5599
11031TIP3    H254509   6.030   4.529   2.822  0.2365 -0.2129 -0.7436
11032TIP3   OH254510   1.651   5.215   1.240 -0.3965  0.2560  0.0385
11032TIP3    H154511   1.581   5.255   1.291 -1.3249  0.5879 -1.4434
11032TIP3    H254512   1.681   5.285   1.181 -0.2736 -0.4918 -0.8066
11033TIP3   OH254513   4.643   4.060  17.042 -0.0177 -0.0567  0.2615
11033TIP3    H154514   4.725   4.074  16.995 -0.4356  0.5456 -0.3084
11033TIP3    H254515   4.645   3.968  17.067  0.9348  0.0108  0.4552
11034TIP3   OH254516   3.054   2.938  16.730 -0.6667 -0.3674 -0.2648
11034TIP3    H154517   3.102   2.962  16.809  0.2859 -0.9709 -0.6408
11034TIP3    H254518   2.995   3.012  16.714  0.8622  0.8887 -0.3478
11035TIP3   OH254519   2.134   3.504   1.060  0.6996  0.2680 -0.6983
11035TIP3    H154520   2.131   3.409   1.050  1.4889  0.3285 -1.6404
11035TIP3    H254521   2.219   3.529   1.025  0.5919  1.2991 -0.2405
11036TIP3   OH254522   4.774   2.227   6.460  0.2487  0.4929  0.2407
11036TIP3    H154523   4.731   2.302   6.417 -0.9993  0.3453  1.1899
11036TIP3    H254524   4.703   2.181   6.505  0.6899 -2.1690 -1.5377
11037TIP3   OH254525   0.329   3.543  15.602 -0.0503  0.5553 -0.3811
11037TIP3    H154526   0.274   3.487  15.547  1.2161 -0.0589 -1.0562
11037TIP3    H254527   0.267   3.601  15.646 -1.2915 -0.4785 -0.6868
11038TIP3   OH254528   5.747   4.750  16.141  1.1437  0.1845 -0.0319
11038TIP3    H154529   5.752   4.817  16.209 -0.4935 -0.1426  0.4337
11038TIP3    H254530   5.758   4.798  16.059  1.1271  0.8530  0.3498
11039TIP3   OH254531   4.719   5.103  16.747  0.1350  0.0332 -0.6577
11039TIP3    H154532   4.717   5.012  16.777 -1.2507  0.7914  1.8239
11039TIP3    H254533   4.662   5.105  16.670  1.7048 -1.5013 -1.9413
11040TIP3   OH254534   1.750   1.174  11.436 -0.3144 -0.2108  0.3560
11040TIP3    H154535   1.685   1.114  11.473 -0.0698 -1.2875 -0.8893
11040TIP3    H254536   1.739   1.165  11.341 -2.1747  3.7499 -0.0499
11041TIP3   OH254537   6.700   3.372   4.221 -0.2612 -0.2333  0.2932
11041TIP3    H154538   6.645   3.296   4.241 -0.6940 -0.5035 -1.6978
11041TIP3    H254539   6.638   3.441   4.198  0.1481 -0.4254 -1.5940
11042TIP3   OH254540   3.180   4.693  17.191  0.2769  0.6758 -0.5246
11042TIP3    H154541   3.104   4.652  17.150  1.2237 -0.2788 -1.3892
11042TIP3    H254542   3.198   4.770  17.136  0.8132  0.0739 -1.2092
11043TIP3   OH254543   4.790   5.962  14.069  0.0631  0.0549 -0.0444
11043TIP3    H154544   4.722   6.008  14.020  0.6195  1.0030  0.0393
11043TIP3    H254545   4.806   5.882  14.018  0.6466  1.0192 -1.4515
11044TIP3   OH254546   1.645   4.265   0.902  0.2008  0.1126 -0.4458
11044TIP3    H154547   1.692   4.347   0.891 -0.3410  0.4028 -0.6651
11044TIP3    H254548   1.570   4.287   0.957  1.0386 -0.6279  1.0562
11045TIP3   OH254549   4.193   5.681  15.545  0.2457  0.0186 -0.1554
11045TIP3    H154550   4.233   5.756  15.501  0.3315 -0.4502 -0.8844
11045TIP3    H254551   4.236   5.678  15.630  0.8343  0.3016 -0.4391
11046TIP3   OH254552   4.157   0.767   6.468 -0.3872  0.6021 -0.0770
11046TIP3    H154553   4.185   0.858   6.474  0.5102  0.2813  1.0046
11046TIP3    H254554   4.232   0.722   6.430  0.5766 -0.2302  2.5911
11047TIP3   OH254555   1.221   3.538  15.069  0.3149 -0.3219 -0.2334
11047TIP3    H154556   1.276   3.613  15.093 -0.1468  0.3268 -1.1165
11047TIP3    H254557   1.139   3.578  15.037 -0.6885 -1.2484  1.0612
11048TIP3   OH254558   1.569   4.449  10.513  0.0427  0.4080  0.2823
11048TIP3    H154559   1.477   4.474  10.503 -0.3523 -0.9114  0.5159
11048TIP3    H254560   1.616   4.532  10.511 -1.1411  1.0978  0.0625
11049TIP3   OH254561   1.087   5.193  14.780 -0.2704 -0.1953  0.3510
11049TIP3    H154562   1.182   5.199  14.772  0.0133 -3.6768 -0.3781
11049TIP3    H254563   1.054   5.231  14.699  0.6793 -1.0487 -0.4669
11050TIP3   OH254564   5.923   4.563  13.766 -0.1382 -0.3150 -0.5917
11050TIP3    H154565   5.984   4.630  13.797 -0.4227  0.6076 -1.9259
11050TIP3    H254566   5.881   4.602  13.689 -0.7875 -1.7805 -1.0308
11051TIP3   OH254567   4.028   2.493  13.188  0.5376 -0.7581 -0.6642
11051TIP3    H154568   4.051   2.530  13.103 -1.6224  0.1848 -0.9130
11051TIP3    H254569   3.963   2.555  13.224 -0.4388 -2.4048  0.5466
11052TIP3   OH254570   4.117   3.863  16.741 -0.2552 -0.0653 -0.0463
11052TIP3    H154571   4.082   3.774  16.732  1.5712 -1.0800  1.8260
11052TIP3    H254572   4.072   3.914  16.674 -3.9549 -1.5790  1.0115
11053TIP3   OH254573   6.466   3.396   1.444 -0.2036  0.1991 -0.5727
11053TIP3    H154574   6.489   3.338   1.371  4.7361 -0.2111  0.9184
11053TIP3    H254575   6.447   3.337   1.516  2.6421  0.2769  0.3570
11054TIP3   OH254576   5.848   5.743   4.246  0.3303  0.2413  0.4597
11054TIP3    H154577   5.781   5.757   4.313 -0.2992 -1.1815  0.1569
11054TIP3    H254578   5.870   5.831   4.215 -1.6411  0.7200  0.3329
11055TIP3   OH254579   4.789   4.832   3.661 -0.0354  0.2718 -0.0348
11055TIP3    H154580   4.732   4.906   3.682  0.2037  0.1559  1.0796
11055TIP3    H254581   4.873   4.853   3.702 -0.1113 -0.8464  0.7414
11056TIP3   OH254582   4.397   3.967  10.793 -0.3925  0.0374 -0.5351
11056TIP3    H154583   4.399   3.872  10.801  0.2846 -0.0450 -1.5175
11056TIP3    H254584   4.317   3.985  10.745 -0.1969 -0.0845 -0.9074
11057TIP3   OH254585   5.003   3.620  15.690 -0.1386 -0.0919 -0.5930
11057TIP3    H154586   5.028   3.617  15.782  0.5117 -0.0375 -0.7629
11057TIP3    H254587   5.079   3.658  15.646 -0.0548 -1.0197 -1.2759
11058TIP3   OH254588   0.570   6.475   0.208  0.3493 -0.2341  0.2182
11058TIP3    H154589   0.581   6.447   0.117  0.9175 -1.1349  0.5430
11058TIP3    H254590   0.658   6.467   0.246  0.5025  1.8075  0.4133
11059TIP3   OH254591   5.228   2.651  11.613 -0.2317  0.7680  0.1612
11059TIP3    H154592   5.259   2.697  11.535  1.6262 -1.2399 -0.3900
11059TIP3    H254593   5.157   2.595  11.581  0.1368  0.3808  0.0080
11060TIP3   OH254594   1.320   3.648   4.622 -0.1392  0.3469  0.0489
11060TIP3    H154595   1.247   3.586   4.624  1.1679 -1.2338  0.4952
11060TIP3    H254596   1.354   3.643   4.533 -0.2874  0.7725 -0.0377
11061TIP3   OH254597   3.492   3.691   2.881  0.0750 -0.1544  0.4047
11061TIP3    H154598   3.582   3.670   2.857  0.4742 -0.0752  1.7619
11061TIP3    H254599   3.460   3.747   2.810  1.3505  0.4786  0.3138
11062TIP3   OH254600   2.628   1.595  12.578  0.2436  0.4167 -0.3372
11062TIP3    H154601   2.620   1.602  12.482 -1.7242 -0.2200 -0.2491
11062TIP3    H254602   2.542   1.618  12.611  0.5688 -0.5205  1.2303
11063TIP3   OH254603   3.519   6.123   2.458  0.7118 -0.3658 -0.2092
11063TIP3    H154604   3.608   6.097   2.435  1.2809  0.7236  0.6711
11063TIP3    H254605   3.518   6.123   2.554  0.1535  0.9008 -0.1998
11064TIP3   OH254606   6.394   6.548  16.188  0.2235  0.2143 -0.4354
11064TIP3    H154607   6.410   6.612  16.119  1.0667  0.9682  0.4108
11064TIP3    H254608   6.480   6.509  16.204 -0.1196 -0.5155 -0.3560
11065TIP3   OH254609   5.458   5.561   2.168 -0.1290  0.1502  0.0164
11065TIP3    H154610   5.430   5.576   2.259  0.1057  2.0284 -0.1847
11065TIP3    H254611   5.549   5.591   2.166 -0.7417  2.1319 -1.2798
11066TIP3   OH254612   6.551   1.449   2.335 -0.4478  0.2071  0.6316
11066TIP3    H154613   6.475   1.490   2.376 -0.2570  1.7081 -0.4524
11066TIP3    H254614   6.541   1.466   2.241  1.8708  1.5904  0.5583
11067TIP3   OH254615   3.221   4.683  14.195 -0.3535  0.2872 -0.0263
11067TIP3    H154616   3.145   4.625  14.195 -0.2332  0.1206 -1.2824
11067TIP3    H254617   3.186   4.770  14.178 -0.1220 -0.0229 -2.3147
11068TIP3   OH254618   5.646   2.622   4.608  0.0095  0.0807  0.0962
11068TIP3    H154619   5.731   2.580   4.592  0.4872  1.3027 -0.7377
11068TIP3    H254620   5.669   2.709   4.640 -0.9490 -0.4976  2.6531
11069TIP3   OH254621   0.157   4.102  15.249 -0.2454  0.3526  0.3750
11069TIP3    H154622   0.084   4.164  15.252 -0.9908 -0.5173  0.7082
11069TIP3    H254623   0.125   4.025  15.294  0.6111 -0.3471 -0.1719
11070TIP3   OH254624   3.940   2.584  14.560 -0.3573  0.2429  0.3878
11070TIP3    H154625   3.936   2.628  14.645 -0.9095  0.8249  0.0615
11070TIP3    H254626   4.034   2.569  14.546 -0.2076  0.7530  0.7840
11071TIP3   OH254627   5.529   3.103  16.504  0.3810 -0.2407 -0.3639
11071TIP3    H154628   5.591   3.080  16.435 -0.1823 -0.2241 -0.8815
11071TIP3    H254629   5.532   3.029  16.565 -0.5775 -1.1935 -1.4289
11072TIP3   OH254630   0.618   2.581   5.080  0.1856  0.1625 -0.0298
11072TIP3    H154631   0.669   2.661   5.084  0.7987 -0.2509  0.6691
11072TIP3    H254632   0.672   2.515   5.124  0.0248 -0.8235 -1.2361
11073TIP3   OH254633   2.265   1.825   5.583  0.2791 -0.5317  0.0020
11073TIP3    H154634   2.219   1.881   5.520 -0.1046  0.9508  1.5348
11073TIP3    H254635   2.198   1.764   5.614  0.2698 -0.7422 -0.4255
11074TIP3   OH254636   1.870   0.244   3.282  0.5035 -0.1215  0.3794
11074TIP3    H154637   1.862   0.297   3.202  0.1953  1.8226  1.6230
11074TIP3    H254638   1.964   0.230   3.292  0.5441 -0.4122 -0.3344
11075TIP3   OH254639   1.168   4.432  17.101  0.2922  0.2031  0.1447
11075TIP3    H154640   1.139   4.420  17.011  0.7512 -1.0931  0.1522
11075TIP3    H254641   1.088   4.425  17.154  0.2487 -0.7296 -0.0340
11076TIP3   OH254642   5.349   3.458  11.629 -0.5474  0.5984 -0.4346
11076TIP3    H154643   5.273   3.425  11.676 -1.4200  1.2081 -1.3923
11076TIP3    H254644   5.314   3.521  11.566  0.4881 -0.8779 -2.5851
11077TIP3   OH254645   3.826   4.907  11.044 -0.3101 -0.9478 -0.1520
11077TIP3    H154646   3.736   4.930  11.022 -0.4696  0.1713  1.4418
11077TIP3    H254647   3.820   4.819  11.081 -0.9109 -0.5356  0.7741
11078TIP3   OH254648   1.431   0.440  10.863  0.2707 -0.3756  0.4726
11078TIP3    H154649   1.462   0.496  10.792 -0.0374 -0.8037 -0.0089
11078TIP3    H254650   1.356   0.393  10.825 -0.8911  0.5254  1.5419
11079TIP3   OH254651   4.777   3.968  12.368 -0.4280 -0.0296  0.3509
11079TIP3    H154652   4.769   4.035  12.299 -0.3028  0.1431  0.5039
11079TIP3    H254653   4.696   3.978  12.419 -0.1841  0.3454  0.6746
11080TIP3   OH254654   4.102   4.956  12.254 -0.3136  0.0165  0.0946
11080TIP3    H154655   4.187   4.934  12.290 -0.6677 -2.0343 -0.1803
11080TIP3    H254656   4.120   5.022  12.187  0.8594  0.6037  0.9573
11081TIP3   OH254657   0.524   3.824  12.767  0.0444 -0.0564  0.5679
11081TIP3    H154658   0.499   3.757  12.831  0.1383  0.2285  0.9073
11081TIP3    H254659   0.616   3.807  12.750 -0.0594 -0.3264  0.2707
11082TIP3   OH254660   6.459   0.711  14.258 -0.2939 -0.2124 -0.6786
11082TIP3    H154661   6.437   0.667  14.175  0.7875 -0.3836 -0.8831
11082TIP3    H254662   6.547   0.680  14.279 -1.3963 -2.0138  1.7603
11083TIP3   OH254663   4.190   0.730   2.789  0.1375  0.8965 -0.2587
11083TIP3    H154664   4.143   0.647   2.788 -1.2865  1.5630  2.2712
11083TIP3    H254665   4.247   0.725   2.866  1.8791  1.3742 -1.4495
11084TIP3   OH254666   1.015   1.647   0.456  0.3059  0.3539  0.8205
11084TIP3    H154667   0.925   1.650   0.422  0.6037  0.4815  0.0181
11084TIP3    H254668   1.051   1.566   0.421  0.1939 -0.1947  1.9645
11085TIP3   OH254669   1.434   6.663  12.051  0.0584  0.1671  0.3985
11085TIP3    H154670   1.476   6.583  12.018 -1.7481  0.2148 -2.3304
11085TIP3    H254671   1.361   6.632  12.105  2.0614  0.0925  3.2758
11086TIP3   OH254672   1.184   6.453   1.272 -0.4669 -0.0015 -0.0164
11086TIP3    H154673   1.207   6.545   1.264 -0.6482  0.0665  0.2377
11086TIP3    H254674   1.144   6.445   1.358  1.0905 -0.6525  0.6820
11087TIP3   OH254675   4.385   4.438  16.978 -0.5044  0.2450  0.4151
11087TIP3    H154676   4.418   4.359  16.935  1.8595  0.6494  1.3357
11087TIP3    H254677   4.292   4.440  16.956 -0.2322 -1.7271 -1.2474
11088TIP3   OH254678   0.808   2.479  13.824 -0.3627  0.1428  0.0173
11088TIP3    H154679   0.814   2.478  13.920 -0.8143 -0.7889  0.0471
11088TIP3    H254680   0.875   2.417  13.795 -0.8384 -0.2654 -0.2248
11089TIP3   OH254681   0.363   4.870   2.162 -0.3771  0.5337  0.0837
11089TIP3    H154682   0.429   4.917   2.213 -1.0745  0.0049  1.5139
11089TIP3    H254683   0.359   4.918   2.079  1.6010  0.7375  0.0491
11090TIP3   OH254684   5.277   2.793  16.655 -0.2487  0.2564  0.9821
11090TIP3    H154685   5.218   2.865  16.675  0.0652  0.2704  1.9141
11090TIP3    H254686   5.219   2.722  16.628 -0.9009 -0.2976  3.5165
11091TIP3   OH254687   0.240   0.501   2.752  0.1259 -0.3434 -0.1960
11091TIP3    H154688   0.184   0.543   2.817  1.8969 -1.2727  2.0757
11091TIP3    H254689   0.179   0.461   2.690 -1.6719 -0.1004  1.3329
11092TIP3   OH254690   1.386   4.506  13.666 -0.3394 -0.2555  0.5583
11092TIP3    H154691   1.387   4.427  13.720  0.4803 -1.4731 -1.1277
11092TIP3    H254692   1.348   4.477  13.583  0.6047  0.9483 -0.3243
11093TIP3   OH254693   0.655   3.221   3.495  0.6300  0.3048  0.0362
11093TIP3    H154694   0.727   3.169   3.459  0.1787  0.0092 -0.4564
11093TIP3    H254695   0.637   3.183   3.580  2.2057  1.4748  0.9465
11094TIP3   OH254696   1.523   0.505  15.078  0.1112 -0.7096 -0.1472
11094TIP3    H154697   1.465   0.579  15.060  0.3956 -0.5567 -0.4478
11094TIP3    H254698   1.606   0.546  15.104 -0.1043 -0.9215  0.9366
11095TIP3   OH254699   0.158   3.906   2.332  0.2626 -0.4642  0.1345
11095TIP3    H154700   0.242   3.917   2.375  1.7314  1.3277 -2.8355
11095TIP3    H254701   0.139   3.993   2.296 -2.3697 -1.0885 -0.1674
11096TIP3   OH254702   4.088   4.451  17.134 -0.3419 -0.4234 -0.0458
11096TIP3    H154703   4.022   4.382  17.130  0.6045 -1.3651  0.2044
11096TIP3    H254704   4.149   4.423  17.202  0.6818  0.0997 -0.7177
11097TIP3   OH254705   6.771   2.460   2.775 -0.3483 -0.5657  0.9584
11097TIP3    H154706   6.754   2.432   2.685  1.2336 -0.4191  0.5797
11097TIP3    H254707   6.867   2.468   2.780 -0.3935 -0.6516  2.6792
11098TIP3   OH254708   0.885   2.880  13.652  0.0237 -0.2358 -0.3449
11098TIP3    H154709   0.825   2.927  13.710  1.0054 -0.0017  0.5226
11098TIP3    H254710   0.892   2.935  13.574 -1.0936 -0.4110 -0.5885
11099TIP3   OH254711   6.178   2.700  11.513  0.2338  0.0210 -0.5158
11099TIP3    H154712   6.176   2.748  11.430  0.4510 -1.7310 -1.5843
11099TIP3    H254713   6.117   2.628  11.499  0.6877 -0.6051  0.6608
11100TIP3   OH254714   6.688   6.775  14.195 -0.1952 -0.0943  0.1069
11100TIP3    H154715   6.738   6.851  14.164 -0.7123 -0.6868 -2.3971
11100TIP3    H254716   6.755   6.714  14.226  0.5696 -0.2029 -1.6535
11101TIP3   OH254717   2.833   3.860  11.666 -0.3893 -0.1475  0.0416
11101TIP3    H154718   2.747   3.851  11.624 -0.4383 -0.7502  0.2462
11101TIP3    H254719   2.814   3.850  11.759  0.1035 -2.1652 -0.0110
11102TIP3   OH254720   3.900   5.429  12.444 -0.1438 -0.2122 -0.4280
11102TIP3    H154721   3.885   5.391  12.358  0.3929 -0.4267 -0.4294
11102TIP3    H254722   3.989   5.403  12.467  1.3439  3.2165 -1.5966
11103TIP3   OH254723   0.611   5.219  12.919  0.1170 -0.5933 -0.3925
11103TIP3    H154724   0.561   5.245  12.997 -1.1494 -1.0395 -1.0381
11103TIP3    H254725   0.677   5.289  12.909 -0.4840  0.1067  0.3698
11104TIP3   OH254726   6.082   4.806   6.348  0.7891 -0.4789 -0.0819
11104TIP3    H154727   6.062   4.840   6.435  0.5039 -0.5345 -0.1258
11104TIP3    H254728   6.169   4.841   6.328  0.2528  0.7280 -0.3845
11105TIP3   OH254729   4.171   4.995   4.976 -0.2817 -0.0325  0.2310
11105TIP3    H154730   4.086   4.988   5.019  0.0500  1.6799  1.2580
11105TIP3    H254731   4.153   5.040   4.894 -0.6883 -1.9270 -0.7766
11106TIP3   OH254732   1.553   5.625   4.132 -0.3045 -0.4570 -0.4845
11106TIP3    H154733   1.614   5.699   4.133 -1.2405  0.3707 -1.5941
11106TIP3    H254734   1.493   5.642   4.205 -0.6047 -0.0146 -0.8230
11107TIP3   OH254735   3.793   1.856   0.266  0.0873 -0.1324 -0.2771
11107TIP3    H154736   3.722   1.884   0.324  0.2806  2.0466 -0.9931
11107TIP3    H254737   3.872   1.897   0.303  1.0805 -2.6870  0.6219
11108TIP3   OH254738   0.270   4.473  17.103 -0.1282 -0.0597 -0.0444
11108TIP3    H154739   0.360   4.502  17.117  0.1077 -1.1285  0.8210
11108TIP3    H254740   0.250   4.498  17.013  0.0888  2.5918  0.5864
11109TIP3   OH254741   1.868   1.835   2.626 -0.2977 -0.0728 -0.4041
11109TIP3    H154742   1.959   1.805   2.636  0.7036  2.4480 -1.0987
11109TIP3    H254743   1.836   1.786   2.550  0.0496 -1.8198  0.5143
11110TIP3   OH254744   2.531   4.137  14.142 -0.2893 -0.1197 -0.3137
11110TIP3    H154745   2.622   4.139  14.111  0.0857 -1.1628  0.6430
11110TIP3    H254746   2.519   4.219  14.188  0.5028 -0.4033  0.4143
11111TIP3   OH254747   6.089   6.640   4.700 -0.1623 -0.6515  0.0981
11111TIP3    H154748   6.003   6.639   4.658  0.6634  0.2049 -1.7172
11111TIP3    H254749   6.137   6.710   4.656  0.6768  0.5655  2.7754
11112TIP3   OH254750   1.531   2.892   6.640  0.6275  0.2594  0.1330
11112TIP3    H154751   1.452   2.944   6.623  0.8122  0.6568  0.4651
11112TIP3    H254752   1.519   2.812   6.588  0.1861  0.4868 -0.1212
11113TIP3   OH254753   0.305   4.432  15.942  0.0899  0.0914 -0.0013
11113TIP3    H154754   0.249   4.432  15.864  0.7219  0.8486 -0.4742
11113TIP3    H254755   0.345   4.519  15.943  0.4192 -0.0592  0.9385
11114TIP3   OH254756   0.666   3.109   0.352 -0.0605 -0.8360  0.3699
11114TIP3    H154757   0.698   3.020   0.338 -1.0615 -0.7986 -2.9566
11114TIP3    H254758   0.735   3.165   0.319 -0.5068 -0.4942 -0.0016
11115TIP3   OH254759   3.195   6.162  12.822  0.0844 -0.0952 -0.1961
11115TIP3    H154760   3.236   6.130  12.902 -1.6605 -1.3451  0.2796
11115TIP3    H254761   3.188   6.256  12.835 -0.0485 -0.2573  1.0969
11116TIP3   OH254762   1.950   1.166  11.639  0.7100 -0.2417 -0.2713
11116TIP3    H154763   1.867   1.191  11.600  1.1460 -0.2100 -1.2057
11116TIP3    H254764   1.992   1.109  11.575  1.2095 -0.6429  0.3888
11117TIP3   OH254765   3.300   0.836  12.714 -0.2820 -0.1376 -0.2686
11117TIP3    H154766   3.241   0.789  12.772  1.3480 -1.2159  0.6038
11117TIP3    H254767   3.333   0.909  12.767  0.5769 -0.6421 -0.0832
11118TIP3   OH254768   6.431   0.657  15.329 -0.0923 -0.3225 -0.4444
11118TIP3    H154769   6.388   0.582  15.288 -0.2306 -1.2542  1.3195
11118TIP3    H254770   6.517   0.661  15.287  0.5274 -2.4561  0.4889
11119TIP3   OH254771   2.884   6.084   5.215  0.0261  0.3143  0.0233
11119TIP3    H154772   2.891   6.063   5.122  0.4326  0.7443 -0.0451
11119TIP3    H254773   2.942   6.021   5.258  0.8853  0.9725 -0.1411
11120TIP3   OH254774   1.071   6.286  16.409  0.2698 -0.0643  0.9321
11120TIP3    H154775   1.018   6.237  16.472 -0.4293  0.3382  0.6714
11120TIP3    H254776   1.147   6.314  16.459 -0.3982  0.4644  1.6759
11121TIP3   OH254777   3.562   3.376   3.602  0.0046 -0.3724 -0.3415
11121TIP3    H154778   3.606   3.296   3.574  0.6846 -0.3032  0.4773
11121TIP3    H254779   3.618   3.447   3.571 -1.3594 -0.1129 -2.3907
11122TIP3   OH254780   3.540   3.154   4.018  0.0113 -0.2215 -0.3863
11122TIP3    H154781   3.457   3.110   4.002  0.3936 -0.6851 -1.1516
11122TIP3    H254782   3.586   3.149   3.935  0.1057  1.5737 -0.4634
11123TIP3   OH254783   4.454   3.099  15.955 -0.4503  0.2976  0.0397
11123TIP3    H154784   4.492   3.022  15.912  1.7794  1.7643 -0.8094
11123TIP3    H254785   4.475   3.172  15.897 -0.0527  1.9421  2.1244
11124TIP3   OH254786   4.208   4.516  13.506  0.1270  0.0836 -0.1088
11124TIP3    H154787   4.133   4.563  13.470  0.3878 -0.2284 -1.0893
11124TIP3    H254788   4.169   4.451  13.565 -0.2959  0.7553  0.3651
11125TIP3   OH254789   3.144   1.393  14.023  0.2055 -0.5744  0.4587
11125TIP3    H154790   3.210   1.443  14.070 -0.2654  1.4558 -0.8897
11125TIP3    H254791   3.194   1.340  13.961  0.6418  0.3711 -0.0239
11126TIP3   OH254792   2.634   5.915  12.882  0.4428 -0.1793  0.2753
11126TIP3    H154793   2.726   5.923  12.905  0.3614  0.2504  0.4599
11126TIP3    H254794   2.632   5.921  12.787  0.4218  1.9326  0.3506
11127TIP3   OH254795   5.875   4.516   3.553 -0.1666 -0.1004 -0.4956
11127TIP3    H154796   5.845   4.605   3.570  0.9913  0.4357 -1.0713
11127TIP3    H254797   5.796   4.465   3.541 -0.8484  0.8986 -0.3376
11128TIP3   OH254798   2.403   1.380  16.766 -0.5091  0.0108 -0.1622
11128TIP3    H154799   2.426   1.291  16.742  0.2885  0.1455  0.0672
11128TIP3    H254800   2.398   1.428  16.683 -0.3986 -0.1246 -0.2463
11129TIP3   OH254801   2.675   0.654   2.010  0.0597  0.0093  0.2173
11129TIP3    H154802   2.760   0.698   2.007 -0.2451  0.8392  2.0530
11129TIP3    H254803   2.683   0.594   2.085 -0.6806 -0.5617 -0.1482
11130TIP3   OH254804   4.569   0.684  17.306  0.6316  0.3031 -0.7045
11130TIP3    H154805   4.590   0.658  17.216  0.1383 -2.7891 -0.0430
11130TIP3    H254806   4.493   0.742  17.298  0.8475  0.3948 -2.2857
11131TIP3   OH254807   4.631   4.101   1.692  0.1319  0.0664  0.6035
11131TIP3    H154808   4.651   4.148   1.773  0.3488 -1.4908  1.4799
11131TIP3    H254809   4.544   4.064   1.707  0.4557 -0.7925  0.3929
11132TIP3   OH254810   1.298   4.217   5.585 -0.0822  0.2202 -0.2277
11132TIP3    H154811   1.205   4.212   5.606  0.0541 -1.0677  0.1493
11132TIP3    H254812   1.306   4.296   5.532 -1.7129 -0.6053 -1.8355
11133TIP3   OH254813   1.342   3.686  15.701 -0.1412 -0.1234 -0.2395
11133TIP3    H154814   1.383   3.763  15.662 -0.1855 -0.5645 -1.1894
11133TIP3    H254815   1.287   3.721  15.771 -2.0665  0.9698 -2.1791
11134TIP3   OH254816   4.878   6.145  16.818  0.0213 -0.3092 -0.1051
11134TIP3    H154817   4.784   6.148  16.802 -0.0305 -1.0675  0.0060
11134TIP3    H254818   4.889   6.176  16.908 -0.1478 -0.4707 -0.0303
11135TIP3   OH254819   5.777   6.346   1.246 -0.1708 -0.2540  0.8230
11135TIP3    H154820   5.803   6.437   1.259  0.2945 -0.2307 -0.1604
11135TIP3    H254821   5.845   6.295   1.291 -0.2814 -0.1170  1.1421
11136TIP3   OH254822   4.372   2.652  14.975  0.3494 -0.1093 -0.1655
11136TIP3    H154823   4.413   2.700  14.904 -0.3075  0.8753  0.0965
11136TIP3    H254824   4.359   2.563  14.940  0.5996  0.1926 -1.0404
11137TIP3   OH254825   0.294   2.066  15.976  0.0949  0.5065  0.1701
11137TIP3    H154826   0.355   2.136  15.952 -1.9201  1.8316 -1.4694
11137TIP3    H254827   0.224   2.071  15.911 -0.5905 -2.5210  0.5035
11138TIP3   OH254828   3.370   2.062  12.559  0.2626 -0.4904 -0.4582
11138TIP3    H154829   3.319   2.142  12.547 -1.9004 -1.7728 -0.5173
11138TIP3    H254830   3.421   2.054  12.478 -1.3136 -0.3674 -1.5126
11139TIP3   OH254831   1.293   1.453  11.778  0.2510 -0.9859 -0.5195
11139TIP3    H154832   1.347   1.421  11.706  3.3342 -0.5428  1.4248
11139TIP3    H254833   1.318   1.545  11.788 -1.4367 -0.5504  0.0140
11140TIP3   OH254834   2.956   5.820  12.090  0.5420 -0.0522 -0.2691
11140TIP3    H154835   2.913   5.825  12.175  2.4606  2.4773  0.6854
11140TIP3    H254836   2.993   5.732  12.087 -2.0388 -1.2462  0.1109
11141TIP3   OH254837   6.234   4.794  13.591 -0.0151  0.0735  0.4011
11141TIP3    H154838   6.224   4.758  13.678 -1.0063 -0.6390  0.0094
11141TIP3    H254839   6.234   4.889  13.604  1.8008 -0.0212  1.3500
11142TIP3   OH254840   2.031   3.831  17.119  0.4975  0.1986 -0.1373
11142TIP3    H154841   2.077   3.877  17.049 -0.0048  0.5715 -0.2331
11142TIP3    H254842   2.100   3.800  17.177  0.9334 -0.3277 -0.9182
11143TIP3   OH254843   3.161   2.794   4.055 -0.2683  0.1468  0.3456
11143TIP3    H154844   3.095   2.857   4.083  0.3130  0.6575  0.5870
11143TIP3    H254845   3.114   2.711   4.049 -0.2658 -0.2080  3.6863
11144TIP3   OH254846   2.265   2.698   0.434  0.3695  0.1470  0.3126
11144TIP3    H154847   2.323   2.687   0.509 -0.4150 -0.6207  0.8390
11144TIP3    H254848   2.182   2.660   0.463  0.4220 -1.4289 -1.4061
11145TIP3   OH254849   3.556   3.149   4.747  0.1133  0.0218 -0.2745
11145TIP3    H154850   3.554   3.151   4.652  1.3696 -0.3264 -0.3246
11145TIP3    H254851   3.638   3.104   4.769  0.1383  0.6191  0.9701
11146TIP3   OH254852   3.363   0.709   4.760 -0.7463  0.5740 -0.1079
11146TIP3    H154853   3.269   0.707   4.776 -0.4988 -0.6727  1.4412
11146TIP3    H254854   3.402   0.731   4.844  0.3757  0.3125 -0.5383
11147TIP3   OH254855   2.238   3.661  11.092  0.3788 -0.1605  0.2979
11147TIP3    H154856   2.250   3.603  11.017 -0.8277  0.2507 -0.2220
11147TIP3    H254857   2.156   3.632  11.131 -0.1325  1.0720  0.1541
11148TIP3   OH254858   0.812   0.148  13.503  0.4145  0.6408 -0.0715
11148TIP3    H154859   0.906   0.134  13.510  0.4037  0.9868  0.9129
11148TIP3    H254860   0.773   0.072  13.545  0.2888  1.2192  0.8880
11149TIP3   OH254861   3.148   0.072   1.665  0.8892 -0.2858 -0.0117
11149TIP3    H154862   3.085   0.131   1.623  0.4702 -1.5660 -1.2721
11149TIP3    H254863   3.203   0.129   1.718  1.4121  1.4596 -2.2665
11150TIP3   OH254864   6.242   5.814  13.653 -0.6718 -0.2063 -0.1864
11150TIP3    H154865   6.160   5.806  13.702 -1.7607  0.8285 -1.7222
11150TIP3    H254866   6.231   5.893  13.600  0.8078 -0.7366 -1.3727
11151TIP3   OH254867   5.367   0.844   1.196 -0.0387 -0.2672 -0.3307
11151TIP3    H154868   5.413   0.834   1.113  0.4257 -1.4936  0.0590
11151TIP3    H254869   5.430   0.885   1.254 -0.4858  0.9374 -0.6713
11152TIP3   OH254870   5.296   3.079   4.838 -0.6076 -0.6959  0.2863
11152TIP3    H154871   5.387   3.063   4.813 -0.1835  1.3346  0.3337
11152TIP3    H254872   5.249   3.082   4.755  0.0764  1.9338 -0.0968
11153TIP3   OH254873   1.151   3.774   4.297 -0.2615  0.0755 -0.2733
11153TIP3    H154874   1.056   3.783   4.301 -0.2475  0.0342  0.2517
11153TIP3    H254875   1.178   3.833   4.226 -0.6746  0.1008 -0.4115
11154TIP3   OH254876   1.592   5.238   1.766  0.4147 -0.5751  0.5847
11154TIP3    H154877   1.619   5.318   1.719 -0.1311 -1.0782 -0.6455
11154TIP3    H254878   1.621   5.252   1.856 -0.1501  1.2589  0.5350
11155TIP3   OH254879   4.760   0.218   0.949 -0.7072 -0.2235  0.3802
11155TIP3    H154880   4.844   0.189   0.914  0.9100  4.4448 -0.2054
11155TIP3    H254881   4.710   0.245   0.871 -0.2494  2.7055  1.0183
11156TIP3   OH254882   4.924   2.010  12.732  0.0930 -0.3630 -0.5157
11156TIP3    H154883   5.008   1.968  12.752  1.3942  0.3401 -3.8715
11156TIP3    H254884   4.864   1.938  12.715  0.2231 -0.8561  0.9448
11157TIP3   OH254885   1.171   2.794  14.246 -0.1498 -0.2467 -0.3557
11157TIP3    H154886   1.171   2.832  14.159 -1.1309 -0.7609 -0.5852
11157TIP3    H254887   1.257   2.817  14.282  0.9066 -1.3559 -2.0362
11158TIP3   OH254888   3.017   6.554  13.687 -0.2472 -0.2307  0.0473
11158TIP3    H154889   3.113   6.551  13.682 -0.1316 -0.0872  1.6856
11158TIP3    H254890   2.992   6.465  13.712 -0.4219  0.0481  0.9107
11159TIP3   OH254891   1.148   4.495  15.056 -0.0456 -0.0618 -0.1120
11159TIP3    H154892   1.060   4.502  15.018 -1.4741 -1.3373  2.7068
11159TIP3    H254893   1.188   4.422  15.010 -0.0360  1.1040 -2.0766
11160TIP3   OH254894   3.048   4.311  16.033  0.6437 -0.1891  0.5483
11160TIP3    H154895   3.015   4.293  16.121  0.9238 -0.1632  0.6584
11160TIP3    H254896   3.053   4.406  16.027  1.3800 -0.2031  0.7904
11161TIP3   OH254897   2.283   2.933   5.645 -0.3367  0.1930  0.2193
11161TIP3    H154898   2.300   3.022   5.614 -0.1678  0.2889  0.5791
11161TIP3    H254899   2.370   2.898   5.665 -0.4017 -0.0612  0.0572
11162TIP3   OH254900   3.493   4.495  13.562  0.2443  0.2514  0.4077
11162TIP3    H154901   3.403   4.463  13.562  0.8574 -1.6172  0.5038
11162TIP3    H254902   3.521   4.488  13.471  0.5697 -0.0553  0.5296
11163TIP3   OH254903   0.912   4.960  11.963  0.0223 -0.7301 -0.3058
11163TIP3    H154904   0.817   4.949  11.965 -0.3303  1.6496  1.0017
11163TIP3    H254905   0.939   4.947  12.054  0.5162  1.2377 -0.1320
11164TIP3   OH254906   5.658   0.419   6.335 -0.3017  0.8043  0.1661
11164TIP3    H154907   5.572   0.385   6.310 -0.1823 -0.5138  1.4113
11164TIP3    H254908   5.720   0.364   6.287 -0.1262 -0.1185  1.4054
11165TIP3   OH254909   0.407   4.962  13.931 -0.2115  0.2023 -0.0146
11165TIP3    H154910   0.420   4.913  14.013 -1.8685 -0.1536  0.0745
11165TIP3    H254911   0.478   4.933  13.874  1.2740  0.8335  1.4520
11166TIP3   OH254912   4.043   2.156   4.234  0.0981 -0.7741 -0.1285
11166TIP3    H154913   4.061   2.067   4.265 -0.1968 -1.6142 -2.2215
11166TIP3    H254914   4.007   2.201   4.311  1.4885 -2.0360  1.3364
11167TIP3   OH254915   3.551   1.843  12.953 -0.5442  0.2339 -0.7273
11167TIP3    H154916   3.597   1.780  12.897 -1.3173 -0.8423 -0.1976
11167TIP3    H254917   3.485   1.882  12.897 -0.8521 -0.3188 -0.7556
11168TIP3   OH254918   6.545   0.450  11.674  0.0020 -0.1868  0.2060
11168TIP3    H154919   6.459   0.446  11.631  0.6408 -0.8412 -1.0880
11168TIP3    H254920   6.552   0.541  11.704 -1.0707 -0.0776  0.1930
11169TIP3   OH254921   0.839   1.170  15.170  0.1863  0.3999 -0.0114
11169TIP3    H154922   0.791   1.184  15.088 -0.4918 -2.0271 -0.1286
11169TIP3    H254923   0.833   1.254  15.216 -2.9265  0.7131 -0.7084
11170TIP3   OH254924   4.467   1.577  14.129 -0.2066  0.5612 -0.4669
11170TIP3    H154925   4.537   1.625  14.084  0.4535  0.5656  0.5350
11170TIP3    H254926   4.388   1.627  14.110  0.7178  3.4281  2.3095
11171TIP3   OH254927   4.918   5.157   0.895 -1.0519 -0.5255 -0.5063
11171TIP3    H154928   4.857   5.231   0.902 -0.6234 -0.2117  0.0086
11171TIP3    H254929   4.866   5.081   0.920 -0.7224 -0.0061  2.0433
11172TIP3   OH254930   0.764   0.543  13.224  0.6105 -0.5610  0.4042
11172TIP3    H154931   0.714   0.624  13.213  1.3676  0.0704  1.4355
11172TIP3    H254932   0.846   0.570  13.265 -0.1089 -2.0820  3.1711
11173TIP3   OH254933   0.604   1.157   3.778  0.3828 -0.4528  0.3360
11173TIP3    H154934   0.578   1.112   3.858  1.1563  0.0484  0.8882
11173TIP3    H254935   0.533   1.140   3.716 -0.1237 -1.0239  1.0589
11174TIP3   OH254936   6.724   5.895  11.620 -0.1914  0.0022  0.2922
11174TIP3    H154937   6.727   5.848  11.536  1.5312 -0.1082  0.3786
11174TIP3    H254938   6.645   5.948  11.614 -2.0682 -2.6055  0.0465
11175TIP3   OH254939   0.412   4.564  11.548 -0.3201  0.0574  0.2825
11175TIP3    H154940   0.359   4.636  11.513  1.2331  1.0973 -0.0677
11175TIP3    H254941   0.476   4.607  11.605 -1.3520 -1.3925  2.6923
11176TIP3   OH254942   5.332   5.117   0.940 -0.1242 -0.3028 -0.2328
11176TIP3    H154943   5.269   5.165   0.993 -0.2418 -0.4790 -0.2154
11176TIP3    H254944   5.379   5.186   0.891 -1.3111 -0.2455 -1.3543
11177TIP3   OH254945   1.958   1.228   3.156  0.1741 -0.3517  0.1757
11177TIP3    H154946   1.942   1.156   3.095 -2.4179 -0.8443  1.2977
11177TIP3    H254947   2.049   1.217   3.183 -0.6354 -4.6262  1.9574
11178TIP3   OH254948   0.349   4.828  15.006  0.3520  0.9167  0.1112
11178TIP3    H154949   0.367   4.767  15.077  0.9474  0.1196 -0.7132
11178TIP3    H254950   0.281   4.886  15.041  0.9592  0.8350  1.4885
11179TIP3   OH254951   3.675   2.073  11.899  0.2309 -0.2257 -0.3754
11179TIP3    H154952   3.745   2.117  11.948  1.3382  0.2769 -2.3098
11179TIP3    H254953   3.665   1.989  11.943  2.2691 -0.4371 -0.1972
11180TIP3   OH254954   2.798   2.598  14.443  0.0396 -0.0867 -0.4355
11180TIP3    H154955   2.740   2.539  14.492  1.3942 -1.7012 -0.6868
11180TIP3    H254956   2.806   2.675  14.498 -1.2353 -0.3975  0.2332
11181TIP3   OH254957   0.387   0.596  17.115 -0.0921 -0.3845 -0.0387
11181TIP3    H154958   0.465   0.633  17.157  0.5781 -0.8734 -0.8330
11181TIP3    H254959   0.421   0.528  17.057 -0.9434  0.6407 -1.8021
11182TIP3   OH254960   1.948   4.724  13.951 -0.2098 -0.4283 -0.8951
11182TIP3    H154961   2.030   4.704  13.907  0.9695  0.6820  0.6853
11182TIP3    H254962   1.973   4.744  14.041 -2.0090  1.4960 -0.7454
11183TIP3   OH254963   3.197   3.385   3.363  0.1033 -0.0107  0.1194
11183TIP3    H154964   3.147   3.440   3.302 -0.4687 -1.6166 -0.9556
11183TIP3    H254965   3.217   3.442   3.436  0.3446  1.8634 -1.3318
11184TIP3   OH254966   5.321   1.200  16.547 -0.2147  0.3776 -0.3076
11184TIP3    H154967   5.339   1.204  16.641 -2.3866 -0.5393  0.2031
11184TIP3    H254968   5.243   1.254  16.535 -1.8452 -1.9795 -0.9916
11185TIP3   OH254969   3.331   5.923   0.352 -0.0855  0.2237 -0.0611
11185TIP3    H154970   3.290   5.837   0.358 -1.0152  0.6834  0.4470
11185TIP3    H254971   3.404   5.911   0.291 -0.0818 -0.9590  0.1534
11186TIP3   OH254972   0.640   4.560  12.426  0.7017  0.0555  0.3487
11186TIP3    H154973   0.555   4.562  12.383  0.5081  0.5245  0.7392
11186TIP3    H254974   0.693   4.623  12.378  0.6705  0.1329  0.4144
11187TIP3   OH254975   5.469   1.156   1.961  0.0948  0.0820 -0.0393
11187TIP3    H154976   5.402   1.193   2.018 -0.0198  2.1027 -1.3944
11187TIP3    H254977   5.471   1.214   1.885  1.4252 -1.5446 -1.3280
11188TIP3   OH254978   2.350   0.004   2.022  0.4837  0.1647 -0.2724
11188TIP3    H154979   2.304   0.039   2.099  1.7648 -0.3424  0.7689
11188TIP3    H254980   2.298  -0.073   1.997 -1.0698  1.4521 -1.1911
11189TIP3   OH254981   6.658   3.202  16.221  0.6111  0.1243  0.3518
11189TIP3    H154982   6.584   3.248  16.259 -0.1994 -0.3210 -0.6147
11189TIP3    H254983   6.653   3.223  16.127  0.9226 -0.9636  0.0792
11190TIP3   OH254984   0.815   0.710  14.103  0.0121  0.2099 -0.2169
11190TIP3    H154985   0.820   0.673  14.015 -0.3747  0.5940 -0.4019
11190TIP3    H254986   0.765   0.791  14.093  2.4864  1.8720 -0.1905
11191TIP3   OH254987   5.123   5.429   0.050 -0.0980 -0.4191 -0.3350
11191TIP3    H154988   5.072   5.454  -0.027  0.7862  0.2432 -0.7237
11191TIP3    H254989   5.115   5.334   0.055  1.5419 -0.7282 -2.4906
11192TIP3   OH254990   5.626   4.358  12.323 -0.2298 -0.0519  0.4750
11192TIP3    H154991   5.643   4.452  12.315 -3.3708  0.6638  0.6696
11192TIP3    H254992   5.666   4.333  12.406  1.1896  0.9495  0.1258
11193TIP3   OH254993   3.666   0.772   2.110 -0.0248  0.6302 -0.3779
11193TIP3    H154994   3.722   0.821   2.170  0.1483 -1.4691  1.2607
11193TIP3    H254995   3.597   0.735   2.165 -1.1856  0.4939 -1.8496
11194TIP3   OH254996   5.827   5.257  15.385  0.0732  0.1048  0.1482
11194TIP3    H154997   5.823   5.308  15.304  0.0832 -0.2613 -0.0818
11194TIP3    H254998   5.741   5.271  15.426  0.6299  1.5936  0.8742
11195TIP3   OH254999   3.629   2.215  12.745 -0.3153 -0.0054  0.0257
11195TIP3    H155000   3.628   2.160  12.823 -1.8092 -0.2872 -0.1608
11195TIP3    H255001   3.608   2.303  12.776 -2.0171 -0.3130 -0.1527
11196TIP3   OH255002   1.735   4.112   5.041 -0.0496  0.4468  0.0556
11196TIP3    H155003   1.650   4.067   5.036  0.5714 -0.7026 -0.4988
11196TIP3    H255004   1.777   4.075   5.119 -0.3328  1.5434  0.7481
11197TIP3   OH255005   2.945   0.413  16.745  0.2243  0.1431  0.4169
11197TIP3    H155006   2.969   0.486  16.801 -1.5343 -0.9566  2.7998
11197TIP3    H255007   2.913   0.454  16.664 -0.6026  2.0365  1.6306
11198TIP3   OH255008   1.562   5.565   2.220 -0.1936  0.1764  0.2377
11198TIP3    H155009   1.566   5.479   2.177 -3.3595  0.0988 -0.1157
11198TIP3    H255010   1.610   5.623   2.162 -0.6194 -0.7815 -1.1133
11199TIP3   OH255011   5.540   4.554  14.857  0.9093  0.0192  0.3104
11199TIP3    H155012   5.529   4.485  14.792  2.1295 -0.5157  0.6464
11199TIP3    H255013   5.561   4.632  14.805  0.6964 -0.1233  0.0041
11200TIP3   OH255014   2.476   4.241  14.993 -1.0781  0.5865  0.4814
11200TIP3    H155015   2.432   4.283  14.918 -0.2567 -1.3948 -1.2045
11200TIP3    H255016   2.569   4.251  14.974 -0.8598  0.1762  1.3188
11201TIP3   OH255017   1.381   2.240  16.032  0.2730 -0.4945  0.3377
11201TIP3    H155018   1.322   2.286  15.973  0.7290 -0.6064 -0.2240
11201TIP3    H255019   1.394   2.155  15.990  0.2507 -0.7452  0.8344
11202TIP3   OH255020   0.764   0.954   1.054 -0.0541 -0.0946 -0.1793
11202TIP3    H155021   0.690   1.009   1.079  2.7262  3.6630  0.5482
11202TIP3    H255022   0.791   0.987   0.969  0.1964 -2.1600 -0.9550
11203TIP3   OH255023   6.053   3.001   1.287 -0.3434  0.4708 -0.4263
11203TIP3    H155024   6.126   3.009   1.226 -0.1079  0.9564 -0.0861
11203TIP3    H255025   6.020   2.912   1.274  0.9521 -0.1060  0.1347
11204TIP3   OH255026   1.640   0.735  16.839 -0.3990  0.4614 -0.0672
11204TIP3    H155027   1.577   0.716  16.769  1.4883  0.6240 -1.9101
11204TIP3    H255028   1.592   0.792  16.899 -2.2816 -0.1402 -0.9119
11205TIP3   OH255029   4.457   6.448   4.716  0.7203 -0.4859 -0.1903
11205TIP3    H155030   4.383   6.507   4.701  1.8917  0.8584 -0.7804
11205TIP3    H255031   4.488   6.425   4.628  0.8276 -1.3019  0.0483
11206TIP3   OH255032   0.466   4.261   1.911  0.0705 -1.2002  0.3197
11206TIP3    H155033   0.377   4.236   1.933 -0.6621  0.8895 -0.0014
11206TIP3    H255034   0.515   4.248   1.992 -0.8699 -0.9361  0.9478
11207TIP3   OH255035   6.282   3.209  12.191  0.8136  0.2011  0.3361
11207TIP3    H155036   6.374   3.236  12.194  0.5573  0.9512  1.9939
11207TIP3    H255037   6.250   3.244  12.108  2.0869 -0.3641 -0.4373
11208TIP3   OH255038   1.886   0.776   3.582 -0.1645 -0.7621 -0.2554
11208TIP3    H155039   1.791   0.764   3.582 -0.1187 -1.2286  0.7831
11208TIP3    H255040   1.919   0.712   3.646  0.8931 -0.9072 -0.9099
11209TIP3   OH255041   3.248   4.597  12.777 -0.3305  0.5559  0.5092
11209TIP3    H155042   3.284   4.523  12.728  1.6168  0.5310  1.8817
11209TIP3    H255043   3.227   4.662  12.710  0.0780 -0.3456 -0.5299
11210TIP3   OH255044   6.067   5.154   2.848 -0.1064  0.3800  0.1217
11210TIP3    H155045   6.153   5.170   2.810  0.4300 -0.4071  0.9496
11210TIP3    H255046   6.014   5.124   2.775  0.7430 -0.5480 -0.1366
11211TIP3   OH255047   6.541   1.961  14.050  0.1848  0.4331  0.4546
11211TIP3    H155048   6.592   1.885  14.022 -2.6599 -1.3363 -0.3311
11211TIP3    H255049   6.592   2.036  14.020  2.8184 -1.0915  0.7084
11212TIP3   OH255050   6.125   2.828  13.558 -0.5079  0.3529  0.5489
11212TIP3    H155051   6.152   2.830  13.650 -0.2127 -1.9024  0.5749
11212TIP3    H255052   6.049   2.769  13.557  0.9224 -1.5728 -0.9338
11213TIP3   OH255053   2.492   0.001  15.522 -0.5670 -0.2268  0.1469
11213TIP3    H155054   2.416  -0.037  15.476  0.1258  0.8623 -2.0149
11213TIP3    H255055   2.562   0.001  15.457  1.7235 -2.1678  2.3691
11214TIP3   OH255056   4.863   3.211   6.661 -0.2645  0.5496  0.4073
11214TIP3    H155057   4.775   3.179   6.641 -0.4196  0.2742  1.5068
11214TIP3    H255058   4.857   3.306   6.648 -0.4236  0.4162 -0.5752
11215TIP3   OH255059   0.925   2.644  13.019  0.2310 -0.3873  0.2143
11215TIP3    H155060   0.911   2.658  13.112 -1.9102 -0.9438  0.0194
11215TIP3    H255061   0.994   2.578  13.014  0.3953 -0.3161  1.3907
11216TIP3   OH255062   5.274   2.486  12.467 -0.0384 -0.1314 -0.1098
11216TIP3    H155063   5.351   2.444  12.507  0.2438  0.4508 -0.0385
11216TIP3    H255064   5.308   2.529  12.389 -0.5120 -0.8868 -0.7455
11217TIP3   OH255065   3.422   3.771   4.198 -0.0028 -0.5318 -0.3222
11217TIP3    H155066   3.509   3.803   4.221  0.9044 -0.8694 -2.9946
11217TIP3    H255067   3.362   3.832   4.243  1.6267  1.6634 -0.9467
11218TIP3   OH255068   6.366   2.774  14.826  0.2648 -0.7294 -0.5454
11218TIP3    H155069   6.343   2.786  14.734 -2.7550 -1.0634  0.0682
11218TIP3    H255070   6.366   2.862  14.863 -2.3802 -0.7988 -0.1551
11219TIP3   OH255071   3.304   5.185   1.276  0.4808 -0.1920 -0.1095
11219TIP3    H155072   3.336   5.099   1.249 -0.4517 -0.0673 -1.7476
11219TIP3    H255073   3.331   5.244   1.206  0.7226  0.7859  0.7788
11220TIP3   OH255074   6.757   6.612  16.791 -0.3899 -0.2135  0.0284
11220TIP3    H155075   6.814   6.610  16.867  0.0607  1.3409 -0.2390
11220TIP3    H255076   6.783   6.536  16.739  0.5571 -0.2418  0.5312
11221TIP3   OH255077   4.317   1.874  14.907 -0.4920 -0.5596  0.3428
11221TIP3    H155078   4.235   1.922  14.900 -0.2895 -0.1162  0.9365
11221TIP3    H255079   4.318   1.816  14.831 -0.6695  0.4853 -0.4653
11222TIP3   OH255080   0.178   6.128  10.448  0.3424  0.2356 -0.8853
11222TIP3    H155081   0.136   6.213  10.434  0.3852  0.8009  1.7574
11222TIP3    H255082   0.272   6.148  10.444  0.3695  0.5838  0.7255
11223TIP3   OH255083   5.766   2.630   0.360  0.5875  0.1457  0.1739
11223TIP3    H155084   5.855   2.657   0.337  0.6590 -0.5059 -0.3506
11223TIP3    H255085   5.722   2.711   0.383  1.1876  0.5319 -0.0120
11224TIP3   OH255086   5.104   2.214   6.069 -0.4359 -0.1402  0.0050
11224TIP3    H155087   5.057   2.278   6.015 -0.7130  1.7296  2.3215
11224TIP3    H255088   5.044   2.193   6.140  0.8244 -0.5877  0.9845
11225TIP3   OH255089   4.562   6.498   3.678  0.2348 -0.5720 -0.2710
11225TIP3    H155090   4.507   6.551   3.619  0.6477 -1.2106 -1.2567
11225TIP3    H255091   4.519   6.506   3.763  0.1900  1.2043 -0.4131
11226TIP3   OH255092   3.888   0.556  14.144 -0.1167  0.1429  0.1032
11226TIP3    H155093   3.936   0.511  14.074  0.0178  0.1334  0.2005
11226TIP3    H255094   3.941   0.634  14.163 -1.4881  1.6055 -1.6454
11227TIP3   OH255095   5.109   6.553   4.407  0.9135  0.0967  0.3950
11227TIP3    H155096   5.068   6.629   4.448  2.0909  1.8241 -1.4945
11227TIP3    H255097   5.192   6.543   4.454 -0.6238 -2.2891  2.9821
11228TIP3   OH255098   5.430   0.919  13.641 -0.2243  0.2669 -0.1350
11228TIP3    H155099   5.390   0.968  13.569 -0.9121 -1.2974 -0.8630
11228TIP3    H255100   5.448   0.985  13.708 -1.6363  1.4149 -0.8422
11229TIP3   OH255101   2.364   6.368   0.753  0.1031 -0.5403 -0.6272
11229TIP3    H155102   2.399   6.383   0.841  2.3430  0.3081 -1.5877
11229TIP3    H255103   2.291   6.307   0.766  0.3671 -0.4388  1.7935
11230TIP3   OH255104   3.951   5.475   5.294  0.0657  0.0887 -0.2993
11230TIP3    H155105   3.989   5.480   5.382 -0.1980  0.3144 -0.2009
11230TIP3    H255106   3.946   5.565   5.264 -0.2811  0.0496 -0.3620
11231TIP3   OH255107   0.094   2.785   3.062  0.0066 -0.5794 -0.2610
11231TIP3    H155108   0.120   2.854   3.123  1.1506  0.7844 -2.2198
11231TIP3    H255109   0.111   2.704   3.110 -0.1787  0.4377  1.6235
11232TIP3   OH255110   1.854   0.324  15.614 -0.2941  0.2133  0.3032
11232TIP3    H155111   1.878   0.364  15.697 -2.7607  0.9978  0.7391
11232TIP3    H255112   1.816   0.240  15.638 -1.5771  0.7022  0.0717
11233TIP3   OH255113   4.026   5.269   0.241 -0.1555  0.0351  0.5892
11233TIP3    H155114   3.949   5.242   0.192  1.3548 -0.9544 -1.3963
11233TIP3    H255115   4.027   5.364   0.235 -1.2065  0.0661  0.6814
11234TIP3   OH255116   1.023   1.515   4.316  0.5999 -0.5607  0.1084
11234TIP3    H155117   0.993   1.425   4.329 -1.0240  0.0912  1.1818
11234TIP3    H255118   1.057   1.541   4.402  3.0438 -0.7849 -0.7010
11235TIP3   OH255119   0.602   5.348   5.702 -0.0563 -0.4939  0.4894
11235TIP3    H155120   0.644   5.413   5.646 -1.8743  0.3302 -0.0172
11235TIP3    H255121   0.584   5.274   5.643  0.1111 -0.5738  0.5404
11236TIP3   OH255122   1.065   2.147   4.976 -0.2026  0.4722 -0.0984
11236TIP3    H155123   0.979   2.110   4.955 -0.6131  0.8318  0.8987
11236TIP3    H255124   1.055   2.241   4.961 -0.9479  0.9643  2.8924
11237TIP3   OH255125   3.344   5.951  14.014 -0.1665  0.3737 -0.0455
11237TIP3    H155126   3.406   5.878  14.008  1.1226  1.5143 -1.3743
11237TIP3    H255127   3.303   5.955  13.928  0.0065  1.3983 -0.0921
11238TIP3   OH255128   1.978   2.556  10.629 -0.2773  0.3941  0.5469
11238TIP3    H155129   1.984   2.477  10.682  0.9271  0.6086  0.7570
11238TIP3    H255130   1.903   2.603  10.664  0.8103  0.8025  2.4791
11239TIP3   OH255131   2.153   2.347  16.948  0.0187 -0.7209  0.3626
11239TIP3    H155132   2.135   2.384  17.035 -0.4553 -0.4869  0.1658
11239TIP3    H255133   2.148   2.253  16.960  1.8294 -0.7709  1.0118
11240TIP3   OH255134   5.862   3.401  15.666 -0.1789  0.1674  0.1846
11240TIP3    H155135   5.843   3.494  15.650 -0.8348 -0.0908 -0.5764
11240TIP3    H255136   5.820   3.383  15.750 -2.9772 -0.2416 -1.1650
11241TIP3   OH255137   3.727   3.916  15.024 -0.0508  0.6077  0.3016
11241TIP3    H155138   3.679   3.956  15.096 -0.1066 -0.3535  0.8263
11241TIP3    H255139   3.813   3.958  15.027  0.6426 -0.7674  2.2378
11242TIP3   OH255140   4.550   6.571  15.815 -0.6176 -0.2891 -0.2318
11242TIP3    H155141   4.518   6.661  15.808  0.9456  0.3616  0.5052
11242TIP3    H255142   4.541   6.550  15.908  2.4534  0.5195  0.3586
11243TIP3   OH255143   3.701   5.712  11.911  0.0488  0.6901  0.0982
11243TIP3    H155144   3.723   5.723  12.004  1.0682  1.7208 -0.2501
11243TIP3    H255145   3.616   5.755  11.901  0.5252  1.6992  0.3043
11244TIP3   OH255146   1.046   1.815   5.168 -0.2912 -0.2631 -0.0127
11244TIP3    H155147   1.139   1.816   5.190  0.0246  0.2873 -1.2911
11244TIP3    H255148   1.001   1.802   5.252  0.9534 -1.2672  0.5325
11245TIP3   OH255149   4.796   4.769  13.640  0.3180 -0.1995 -0.3590
11245TIP3    H155150   4.847   4.712  13.699  0.9883  1.0222  0.2731
11245TIP3    H255151   4.857   4.790  13.569  0.0749 -0.2450 -0.5821
11246TIP3   OH255152   6.624   5.742   1.559 -0.3455 -0.8188 -0.2275
11246TIP3    H155153   6.714   5.711   1.549  0.5256  0.7005  2.2278
11246TIP3    H255154   6.594   5.702   1.641 -0.2443  2.1864  1.3952
11247TIP3   OH255155   5.634   1.112   2.709 -0.1448  0.0778 -0.1054
11247TIP3    H155156   5.670   1.063   2.635  1.5165 -0.1821  0.8283
11247TIP3    H255157   5.595   1.045   2.765  1.5977 -0.1694  0.8771
11248TIP3   OH255158   3.006   6.179  11.865 -0.6674  0.1708  0.0757
11248TIP3    H155159   3.027   6.219  11.781 -1.6473  0.6804  0.0629
11248TIP3    H255160   2.965   6.095  11.842 -0.7156  0.2008  0.0532
11249TIP3   OH255161   3.254   3.020  12.452  0.1760 -0.0511 -0.0396
11249TIP3    H155162   3.235   3.076  12.377 -1.5584  1.3549  1.3505
11249TIP3    H255163   3.187   3.043  12.517  1.6445 -1.1180  1.9885
11250TIP3   OH255164   0.415   0.465   0.370  0.0865  0.4470  0.0066
11250TIP3    H155165   0.393   0.376   0.399  1.3099 -0.8088 -2.5892
11250TIP3    H255166   0.489   0.490   0.426 -1.6900  0.8678  2.3268
11251TIP3   OH255167   4.397   5.328   3.897  0.7348  0.0541  0.2533
11251TIP3    H155168   4.426   5.243   3.864  0.3495  0.2563 -0.6552
11251TIP3    H255169   4.443   5.392   3.842  0.6317  0.4211  0.5893
11252TIP3   OH255170   4.015   2.507   4.745  0.1631  0.2622 -0.7362
11252TIP3    H155171   3.924   2.534   4.734 -0.4031 -1.2860 -0.1401
11252TIP3    H255172   4.027   2.502   4.840  1.3117  1.7473 -0.7533
11253TIP3   OH255173   2.314   5.678  13.186  0.0905 -0.3958 -0.0446
11253TIP3    H155174   2.220   5.665  13.180  0.2128 -1.6874  0.5760
11253TIP3    H255175   2.335   5.738  13.115 -1.0385 -0.9764 -0.8894
11254TIP3   OH255176   6.044   4.177  14.746 -0.5936  0.5357 -0.9668
11254TIP3    H155177   5.999   4.110  14.797 -0.3992  0.7349 -0.5341
11254TIP3    H255178   5.978   4.244  14.729 -0.5375  0.6894 -0.5810
11255TIP3   OH255179   3.527   4.904   0.590 -0.2908  0.2748  0.1305
11255TIP3    H155180   3.568   4.831   0.545  0.6088  1.4745 -1.0700
11255TIP3    H255181   3.600   4.963   0.612 -1.1989  2.0149 -1.2321
11256TIP3   OH255182   1.680   4.094  14.721 -0.3959  0.6383 -0.0959
11256TIP3    H155183   1.752   4.069  14.664 -0.7128 -0.4371 -0.0378
11256TIP3    H255184   1.617   4.136  14.662  0.3464  1.7780 -0.1124
11257TIP3   OH255185   3.264   5.599   0.829  0.1937 -0.0667 -0.5081
11257TIP3    H155186   3.264   5.684   0.786 -0.0139  0.3132  0.2307
11257TIP3    H255187   3.337   5.552   0.789 -1.4893 -0.6907 -3.1322
11258TIP3   OH255188   3.197   2.645  16.703  0.5807  0.0496 -0.6153
11258TIP3    H155189   3.198   2.607  16.616 -0.3593  2.0370 -1.5525
11258TIP3    H255190   3.267   2.709  16.703 -0.3113  1.0575 -0.4174
11259TIP3   OH255191   4.331   3.060  17.377 -0.5872  0.7039 -0.0857
11259TIP3    H155192   4.242   3.090  17.395 -0.8522 -0.7271  1.1819
11259TIP3    H255193   4.387   3.118  17.428 -1.0735 -0.6349  2.1089
11260TIP3   OH255194   3.749   0.348  14.242  0.3159  0.1030  0.2600
11260TIP3    H155195   3.664   0.360  14.199  0.7244 -0.7604 -0.8131
11260TIP3    H255196   3.800   0.424  14.214  0.7672 -0.7274 -1.2998
11261TIP3   OH255197   2.524   3.403   0.636 -0.4106  0.5315  0.3981
11261TIP3    H155198   2.602   3.365   0.596  0.0952  0.0771  1.7614
11261TIP3    H255199   2.454   3.385   0.573  0.2700 -0.5378 -0.0901
11262TIP3   OH255200   6.366   5.702  15.072  0.5084  0.2845  0.3172
11262TIP3    H155201   6.315   5.730  14.996 -1.8292 -0.1125  1.6119
11262TIP3    H255202   6.370   5.607  15.064 -1.0266  0.0944  1.3583
11263TIP3   OH255203   4.471   0.271  12.292  0.2529  0.6551  0.0434
11263TIP3    H155204   4.545   0.215  12.318 -0.3575 -0.0410  0.3218
11263TIP3    H255205   4.432   0.299  12.375 -1.1927 -0.8894 -0.0552
11264TIP3   OH255206   4.171   1.699  14.130 -0.0443  0.4300 -0.3675
11264TIP3    H155207   4.122   1.670  14.207 -0.6448 -1.7644 -1.4883
11264TIP3    H255208   4.158   1.629  14.066  2.4363  1.0192 -1.6316
11265TIP3   OH255209   4.258   6.699   1.815  0.4878  0.1392 -0.0997
11265TIP3    H155210   4.330   6.672   1.758 -0.1556  0.6202 -1.1579
11265TIP3    H255211   4.184   6.714   1.756 -0.3715  0.0670  0.9221
11266TIP3   OH255212   6.227   5.583  16.572  0.1389  0.1567 -0.6675
11266TIP3    H155213   6.227   5.488  16.570  0.5616  0.1284  0.2616
11266TIP3    H255214   6.181   5.609  16.492 -1.6850 -0.8287  0.0133
11267TIP3   OH255215   3.512   4.425   4.805 -0.2962 -0.3318 -0.7708
11267TIP3    H155216   3.442   4.377   4.761  0.3860 -0.7987 -1.3756
11267TIP3    H255217   3.479   4.514   4.814 -0.9125 -0.5161 -1.1584
11268TIP3   OH255218   1.088   5.139   5.471  0.0850  0.2549 -0.2096
11268TIP3    H155219   1.137   5.096   5.540 -2.7330 -0.1395  1.7110
11268TIP3    H255220   1.049   5.216   5.513 -0.6484  0.7367 -1.6918
11269TIP3   OH255221   3.032   2.969  10.858 -0.2392 -0.2617  0.1545
11269TIP3    H155222   2.965   2.916  10.902  0.8513 -2.2613 -0.4570
11269TIP3    H255223   2.991   2.993  10.774  0.0694 -2.3204 -0.6545
11270TIP3   OH255224   5.653   1.370  11.858  0.7519  0.0612  0.5032
11270TIP3    H155225   5.691   1.284  11.876  2.4973  0.5329 -0.6350
11270TIP3    H255226   5.713   1.409  11.795 -0.8488  1.5096 -0.1905
11271TIP3   OH255227   2.326   1.101   1.535  0.1765  0.1323  0.3444
11271TIP3    H155228   2.317   1.114   1.440  1.4167  0.9707  0.3130
11271TIP3    H255229   2.280   1.020   1.553  0.5374 -0.4237 -1.1040
11272TIP3   OH255230   1.897   1.564  12.506  0.1049 -0.0935 -0.1346
11272TIP3    H155231   1.969   1.535  12.450  0.8566  0.2864  0.6185
11272TIP3    H255232   1.926   1.649  12.540 -1.0022  0.4043 -0.3673
11273TIP3   OH255233   3.139   4.152  15.541  0.1054 -0.6937  0.0375
11273TIP3    H155234   3.113   4.104  15.619 -1.8885 -0.8881 -0.6908
11273TIP3    H255235   3.161   4.085  15.476 -1.4877 -0.6634 -0.5863
11274TIP3   OH255236   5.090   2.643  11.107 -0.8015 -0.3159  0.4938
11274TIP3    H155237   5.170   2.662  11.057 -0.3508 -1.7736  0.6190
11274TIP3    H255238   5.025   2.622  11.040 -1.1959  1.1996  0.3749
11275TIP3   OH255239   6.463   1.832  14.535 -0.3482  0.6854  0.3260
11275TIP3    H155240   6.442   1.913  14.581  1.1679  0.9849  0.5690
11275TIP3    H255241   6.444   1.850  14.443  0.2059  1.4244  0.3441
11276TIP3   OH255242   5.155   2.491  15.292  0.0256  0.6821 -0.0074
11276TIP3    H155243   5.094   2.477  15.220 -0.8265  0.0445  0.8100
11276TIP3    H255244   5.139   2.582  15.319 -2.0341 -0.0258  1.4552
11277TIP3   OH255245   3.883   0.739   6.053 -0.2272 -0.1535  0.2205
11277TIP3    H155246   3.863   0.826   6.089  1.6566  0.2728  0.3807
11277TIP3    H255247   3.926   0.693   6.125 -0.1945 -0.8135 -0.2165
11278TIP3   OH255248   2.541   0.851  14.872  0.0775  0.1550 -0.5628
11278TIP3    H155249   2.558   0.854  14.778 -1.3328 -0.0012 -0.8473
11278TIP3    H255250   2.479   0.779  14.882  1.4149 -0.8862  0.7126
11279TIP3   OH255251   6.234   1.459   3.960 -0.3739  0.1722  0.3435
11279TIP3    H155252   6.148   1.446   4.000 -0.5484  1.1397  0.2948
11279TIP3    H255253   6.216   1.506   3.879  0.2430  0.7734  0.5516
11280TIP3   OH255254   5.680   5.276  14.831  0.2870  0.3954  0.4107
11280TIP3    H155255   5.769   5.305  14.814  0.6329  0.0012  1.4858
11280TIP3    H255256   5.626   5.327  14.771  1.3046  0.0687 -0.8175
11281TIP3   OH255257   5.123   3.236  14.964 -0.2282 -0.2751 -0.3671
11281TIP3    H155258   5.185   3.241  14.891 -1.9983  1.8137 -1.8858
11281TIP3    H255259   5.064   3.165  14.940 -1.2840  0.9109 -1.4912
11282TIP3   OH255260   3.588   0.192  15.190  0.1944 -0.2608 -0.0324
11282TIP3    H155261   3.563   0.251  15.119 -1.4529 -0.4209  0.3890
11282TIP3    H255262   3.683   0.201  15.196 -0.0571  3.3069  0.8410
11283TIP3   OH255263   4.109   5.522   1.551 -0.3519 -0.3454 -0.3360
11283TIP3    H155264   4.188   5.511   1.499 -0.0668 -0.7090  0.1627
11283TIP3    H255265   4.107   5.445   1.608  0.6267  1.1427  1.8653
11284TIP3   OH255266   1.189   5.580  17.000 -0.3015 -0.3089 -0.1604
11284TIP3    H155267   1.264   5.560  16.943 -1.4443  1.7020 -2.5766
11284TIP3    H255268   1.161   5.495  17.033 -0.0549 -1.7636 -3.3319
11285TIP3   OH255269   3.140   5.992  14.196  0.7104  0.1455  0.4401
11285TIP3    H155270   3.174   5.917  14.245  0.5124 -0.1529  0.1330
11285TIP3    H255271   3.206   6.008  14.128  1.0574  0.6553  0.8961
11286TIP3   OH255272   4.334   1.694   1.168 -0.0928 -0.0829 -0.6084
11286TIP3    H155273   4.396   1.630   1.202 -0.3837  0.3339  0.7463
11286TIP3    H255274   4.310   1.659   1.082 -0.4148 -1.9426  0.1774
11287TIP3   OH255275   5.882   0.972   0.385  0.0547 -0.4441  0.3916
11287TIP3    H155276   5.933   0.956   0.464  0.7078 -2.6350 -0.4133
11287TIP3    H255277   5.946   0.994   0.318 -0.4447  0.7891  0.2825
11288TIP3   OH255278   1.093   6.043   1.372 -0.2418  0.0404  0.3205
11288TIP3    H155279   1.087   6.131   1.408 -1.4645  0.3410 -0.5410
11288TIP3    H255280   1.023   5.995   1.417  0.6234 -0.5975  1.0207
11289TIP3   OH255281   1.785   4.279   1.743 -0.0137 -0.4379  0.4281
11289TIP3    H155282   1.813   4.220   1.673  1.8492 -0.0806  0.8196
11289TIP3    H255283   1.865   4.325   1.770 -0.8637  0.1620  2.1123
11290TIP3   OH255284   0.782   3.060  15.811  0.4682  0.3432 -0.1682
11290TIP3    H155285   0.832   3.132  15.847  0.1009  0.2506  0.5318
11290TIP3    H255286   0.828   2.981  15.840  0.4961  0.2773 -0.3852
11291TIP3   OH255287   6.385   5.435   5.203  0.7319 -1.3864 -0.2120
11291TIP3    H155288   6.337   5.484   5.270  0.3950  1.6147 -2.4120
11291TIP3    H255289   6.320   5.417   5.136  1.5996 -1.9274 -0.9313
11292TIP3   OH255290   0.041   5.837   1.856 -0.1375 -0.2727 -0.1495
11292TIP3    H155291   0.040   5.922   1.811 -1.9318 -0.2938 -0.2420
11292TIP3    H255292  -0.052   5.817   1.869  0.2733 -2.0930  0.1433
11293TIP3   OH255293   3.261   4.967  14.168  0.1792 -0.8707  0.1068
11293TIP3    H155294   3.355   4.969  14.150  0.2073  3.5819 -0.2911
11293TIP3    H255295   3.255   4.984  14.262 -0.3390 -3.2538  0.5839
11294TIP3   OH255296   3.921   4.571  16.132 -1.1881  0.7478  0.5999
11294TIP3    H155297   3.993   4.597  16.075 -1.6793 -1.4089 -1.1701
11294TIP3    H255298   3.853   4.637  16.117 -0.5876  1.2770  0.1776
11295TIP3   OH255299   6.040   2.191  16.217 -0.0298 -0.0647  0.1231
11295TIP3    H155300   6.037   2.231  16.303  0.6032 -1.3580  0.7752
11295TIP3    H255301   6.118   2.134  16.219 -1.9363 -2.9151  0.0394
11296TIP3   OH255302   0.920   1.781   4.765  0.5195  0.7210  0.4881
11296TIP3    H155303   0.965   1.737   4.837  1.0488  0.6254  0.1108
11296TIP3    H255304   0.828   1.782   4.790  0.4378 -0.9029  0.3569
11297TIP3   OH255305   5.334   1.679  11.128  0.0430  0.1196  0.1619
11297TIP3    H155306   5.414   1.692  11.179 -0.8066  0.4291  1.4685
11297TIP3    H255307   5.364   1.641  11.045  1.3342 -2.0367  1.5147
11298TIP3   OH255308   4.118   4.615  15.431  0.2891  0.3222 -0.2300
11298TIP3    H155309   4.201   4.576  15.460  0.9278  0.7931 -1.3913
11298TIP3    H255310   4.106   4.690  15.489  0.5606  0.1322  0.0827
11299TIP3   OH255311   6.100   4.573  14.823  0.1840 -0.3719 -0.0420
11299TIP3    H155312   6.093   4.652  14.878 -0.7733 -0.2488 -0.3108
11299TIP3    H255313   6.071   4.502  14.880  2.2322 -0.7556  0.6005
11300TIP3   OH255314   1.111   1.612   1.071  0.1534 -0.3994 -0.1876
11300TIP3    H155315   1.087   1.667   1.146  0.0823  0.7018 -0.9941
11300TIP3    H255316   1.135   1.674   1.002  1.1023 -1.4008 -0.7985
11301TIP3   OH255317   6.742   3.684  15.613  0.2982  0.5141 -0.4599
11301TIP3    H155318   6.680   3.632  15.664  0.5701  0.5227 -0.1130
11301TIP3    H255319   6.790   3.620  15.560  0.8598  0.3675  0.2119
11302TIP3   OH255320   4.073   2.002   3.048 -0.0259 -0.5987  0.2522
11302TIP3    H155321   4.075   1.940   3.121 -0.0673 -0.6502  0.2100
11302TIP3    H255322   4.043   2.084   3.086  1.4278 -0.2086  0.6061
11303TIP3   OH255323   5.761   5.734   3.976 -0.0395 -0.1616 -0.1823
11303TIP3    H155324   5.717   5.818   3.987 -0.6219 -0.3215 -1.1152
11303TIP3    H255325   5.805   5.718   4.060 -1.1099  0.3862  0.5042
11304TIP3   OH255326   0.052   3.611   0.531 -0.2681  0.0104  0.2039
11304TIP3    H155327  -0.019   3.547   0.520 -0.4491  0.2367  0.0505
11304TIP3    H255328   0.059   3.654   0.446  0.5436 -0.5042 -0.0041
11305TIP3   OH255329   5.445   4.704   0.244  0.2289 -0.1259 -0.2658
11305TIP3    H155330   5.383   4.769   0.277  1.3514  0.7091  0.2359
11305TIP3    H255331   5.412   4.620   0.277  0.0459  0.4374  1.0353
11306TIP3   OH255332   5.765   6.656   4.599  0.2582  0.4107  0.2264
11306TIP3    H155333   5.775   6.611   4.682  0.8549 -0.7116 -0.4198
11306TIP3    H255334   5.716   6.595   4.544 -2.1999  2.0769  0.4322
11307TIP3   OH255335   4.793   4.562   5.661  0.1265  0.2592  0.2714
11307TIP3    H155336   4.869   4.512   5.632  0.9689  1.3228  0.5859
11307TIP3    H255337   4.830   4.638   5.705 -1.1203  1.1077 -0.1014
11308TIP3   OH255338   2.557   1.678  15.203 -0.0932 -0.7474  1.1616
11308TIP3    H155339   2.549   1.761  15.155 -0.9202 -1.2123  0.4666
11308TIP3    H255340   2.470   1.664  15.241  0.5252 -0.4091  2.8117
11309TIP3   OH255341   4.630   1.581   3.302 -0.1430 -0.8144  0.1643
11309TIP3    H155342   4.563   1.512   3.296  2.0877 -3.1322  0.1653
11309TIP3    H255343   4.669   1.584   3.215  0.0522  0.1878  0.2777
11310TIP3   OH255344   4.007   2.852  11.118 -0.2317 -0.3134  0.0343
11310TIP3    H155345   4.070   2.848  11.046  0.1354 -1.4283  0.3975
11310TIP3    H255346   3.929   2.807  11.085  1.0682 -3.9162  1.3664
11311TIP3   OH255347   0.292   2.674  14.238  0.5846 -0.1895 -0.2738
11311TIP3    H155348   0.274   2.760  14.202 -1.0361  0.8047  2.5625
11311TIP3    H255349   0.211   2.625  14.223  1.0617 -0.8303 -0.7976
11312TIP3   OH255350   2.758   6.570  13.764  0.0376 -0.3790  0.3739
11312TIP3    H155351   2.775   6.590  13.856  0.7570 -0.0651  0.1776
11312TIP3    H255352   2.838   6.596  13.719 -0.4146 -0.2756 -0.3797
11313TIP3   OH255353   5.628   0.636  15.122 -0.7525 -0.0760 -0.7225
11313TIP3    H155354   5.653   0.707  15.063 -1.3245 -1.7121 -3.1039
11313TIP3    H255355   5.679   0.650  15.201 -0.7514  2.8631 -1.1507
11314TIP3   OH255356   4.427   2.577  17.266  0.1461 -0.0647  0.2746
11314TIP3    H155357   4.402   2.496  17.311  0.3714 -0.4340 -0.2466
11314TIP3    H255358   4.364   2.642  17.295 -1.3165 -0.9235 -0.8368
11315TIP3   OH255359   0.973   2.161  13.425  0.5182  0.8909  0.1425
11315TIP3    H155360   1.002   2.110  13.350  0.8921 -1.3024  1.6963
11315TIP3    H255361   1.025   2.241  13.421  3.9750 -1.1553  0.5648
11316TIP3   OH255362   3.366   4.368   2.427  0.3007  0.2450  0.0937
11316TIP3    H155363   3.309   4.430   2.382  0.6227  1.1556  0.9160
11316TIP3    H255364   3.316   4.341   2.504  0.8992  0.9178  0.7289
11317TIP3   OH255365   3.027   6.153  15.082 -0.4591 -0.2032  0.2356
11317TIP3    H155366   2.999   6.175  15.170  1.9862 -2.1416  1.6122
11317TIP3    H255367   3.040   6.238  15.039 -0.5929  0.8107  2.1213
11318TIP3   OH255368   5.093   4.397   3.912  0.0261  0.4112  0.3659
11318TIP3    H155369   5.041   4.380   3.834 -0.9114  0.5395  0.9492
11318TIP3    H255370   5.182   4.373   3.887 -0.4532 -0.6894 -0.3581
11319TIP3   OH255371   1.999   4.264  11.568 -0.8189 -0.7920  0.3269
11319TIP3    H155372   1.927   4.217  11.527 -1.3296  0.9501 -0.8711
11319TIP3    H255373   2.075   4.245  11.513 -1.0391 -0.1709 -0.1962
11320TIP3   OH255374   5.100   4.769  15.798 -0.0351  0.0915 -0.2396
11320TIP3    H155375   5.031   4.706  15.780 -1.2109  1.7050 -1.7048
11320TIP3    H255376   5.102   4.776  15.893 -2.8893  0.9913 -0.1594
11321TIP3   OH255377   1.609   1.869   6.761 -0.2235 -0.1620  0.2860
11321TIP3    H155378   1.687   1.885   6.708  0.5137 -1.6301  0.8631
11321TIP3    H255379   1.583   1.955   6.792  1.1483  0.3702  0.0397
11322TIP3   OH255380   5.381   4.134  17.232 -0.1664  0.2129 -0.0581
11322TIP3    H155381   5.418   4.184  17.305 -0.0048 -0.9877  0.7103
11322TIP3    H255382   5.456   4.117  17.174  0.1040 -0.4942  0.4862
11323TIP3   OH255383   4.953   6.567  16.905 -0.0431 -0.1174 -0.3983
11323TIP3    H155384   4.923   6.612  16.984 -0.0009  0.7864 -0.8776
11323TIP3    H255385   5.017   6.628  16.866  0.6331 -0.9597 -0.6429
11324TIP3   OH255386   5.524   3.863  17.289  0.3633 -0.2123  0.4294
11324TIP3    H155387   5.592   3.920  17.252 -0.0280 -0.2151 -0.2982
11324TIP3    H255388   5.442   3.909  17.272  0.1297 -0.5223  0.7231
11325TIP3   OH255389   5.543   4.227  13.512 -0.1251 -0.8018 -0.0949
11325TIP3    H155390   5.472   4.197  13.568 -0.9271  1.1089 -0.0192
11325TIP3    H255391   5.500   4.248  13.429 -0.2299  2.8026  0.7130
11326TIP3   OH255392   3.891   5.993   2.812 -0.0103  0.7590 -0.4336
11326TIP3    H155393   3.919   5.916   2.862  1.3261  0.1297 -2.0651
11326TIP3    H255394   3.891   6.064   2.876 -0.3594 -0.3975  0.9056
11327TIP3   OH255395   4.888   1.638   0.720 -0.1975  0.1830  0.3231
11327TIP3    H155396   4.971   1.664   0.759 -0.8828  0.7772  1.4283
11327TIP3    H255397   4.862   1.559   0.768 -0.8734  0.7122  0.8331
11328TIP3   OH255398   0.493   2.596   1.146  0.0117  0.5280 -0.1703
11328TIP3    H155399   0.466   2.534   1.213 -1.0268  0.5571 -0.5376
11328TIP3    H255400   0.417   2.602   1.088 -1.1320  4.3627  1.4398
11329TIP3   OH255401   0.121   6.201   4.572 -0.5491 -0.3952  0.1880
11329TIP3    H155402   0.204   6.184   4.528  0.1483 -2.8600  2.2979
11329TIP3    H255403   0.062   6.227   4.500  1.7869  0.8115 -1.4451
11330TIP3   OH255404   3.416   3.654  16.001  0.0265 -0.1631 -0.0867
11330TIP3    H155405   3.491   3.607  15.965  0.9453  0.8110  0.4923
11330TIP3    H255406   3.449   3.693  16.083 -0.9293  0.7687 -0.1220
11331TIP3   OH255407   5.187   0.657  16.983 -0.2197 -0.7006  0.3655
11331TIP3    H155408   5.256   0.719  16.962 -0.6138 -0.8822 -1.6722
11331TIP3    H255409   5.219   0.611  17.062  0.1470  1.8824  1.8212
11332TIP3   OH255410   3.135   4.531  14.535 -0.1761 -0.0789  1.2770
11332TIP3    H155411   3.209   4.474  14.514  1.4221  2.2795 -0.0687
11332TIP3    H255412   3.164   4.582  14.610  0.6213  2.3665 -0.5311
11333TIP3   OH255413   4.349   3.000   6.576 -0.1456  0.6398 -0.6819
11333TIP3    H155414   4.299   3.079   6.597 -0.3055  0.1350  0.9967
11333TIP3    H255415   4.399   3.024   6.498 -1.2429  1.9214 -1.0414
11334TIP3   OH255416   2.489   1.191  15.865  0.1297 -0.1874  0.1470
11334TIP3    H155417   2.419   1.217  15.805  2.2952 -0.1239 -2.5634
11334TIP3    H255418   2.497   1.097  15.854 -1.3311 -0.7079  2.6767
11335TIP3   OH255419   6.314   1.356  16.501  0.0121  0.1365 -0.7480
11335TIP3    H155420   6.347   1.393  16.583 -2.9908 -1.3252  1.3361
11335TIP3    H255421   6.242   1.414  16.477 -1.7597 -1.6014  0.0287
11336TIP3   OH255422   3.323   5.856  16.667  0.4389  0.0188  0.1252
11336TIP3    H155423   3.285   5.808  16.594  1.5439  0.9004 -1.0719
11336TIP3    H255424   3.418   5.856  16.650  0.5271  2.1398  0.3332
11337TIP3   OH255425   4.377   2.811   1.678 -0.2246 -0.3182 -0.4329
11337TIP3    H155426   4.384   2.737   1.618 -1.3414 -0.5513 -0.2873
11337TIP3    H255427   4.468   2.834   1.698  0.1401 -1.6463 -0.4708
11338TIP3   OH255428   2.505   0.714  13.275 -0.4169  0.9482  0.5094
11338TIP3    H155429   2.511   0.803  13.310 -1.1232  1.0084  0.4742
11338TIP3    H255430   2.430   0.716  13.216  0.1933  0.5960 -0.2937
11339TIP3   OH255431   6.450   1.133  11.534  0.2791 -0.2487  0.1023
11339TIP3    H155432   6.438   1.069  11.604 -0.6787 -0.6405 -0.4021
11339TIP3    H255433   6.383   1.111  11.469  0.2455  0.9611 -0.3055
11340TIP3   OH255434   1.769   5.368   2.274  0.6344  0.1179 -0.3676
11340TIP3    H155435   1.783   5.278   2.303 -0.4036 -0.5331 -1.7623
11340TIP3    H255436   1.709   5.405   2.339  2.5130  0.4639  1.2733
11341TIP3   OH255437   1.038   3.992  11.711  0.6852  0.3550 -0.5784
11341TIP3    H155438   0.972   4.051  11.675 -0.7325  0.1043  1.4473
11341TIP3    H255439   1.121   4.032  11.686 -0.2198  2.5639 -0.3427
11342TIP3   OH255440   1.210   2.783  13.563 -0.3012 -0.4215 -0.0537
11342TIP3    H155441   1.124   2.748  13.585 -0.1724 -1.0926 -0.5931
11342TIP3    H255442   1.224   2.854  13.626 -0.8714 -0.8709  0.5875
11343TIP3   OH255443   6.571   4.423   4.457  0.2326 -0.4062  0.5496
11343TIP3    H155444   6.617   4.506   4.464 -0.1159 -0.0717 -0.8609
11343TIP3    H255445   6.622   4.372   4.395  0.2874 -1.1514  1.1903
11344TIP3   OH255446   1.069   5.334   4.750 -0.4784 -0.3021 -0.0317
11344TIP3    H155447   1.071   5.240   4.768 -0.6821 -0.4876 -0.9531
11344TIP3    H255448   1.049   5.341   4.657 -0.2571  0.6548 -0.0199
11345TIP3   OH255449   4.378   0.217   3.356 -0.0431  0.2897 -0.1340
11345TIP3    H155450   4.419   0.298   3.324  2.4154 -0.3682  1.1099
11345TIP3    H255451   4.397   0.153   3.288  2.2019 -0.2947  0.9438
11346TIP3   OH255452   0.431   1.354   0.946 -0.2796  0.3849 -0.4385
11346TIP3    H155453   0.393   1.267   0.937 -0.4585  0.4590 -0.4161
11346TIP3    H255454   0.477   1.352   1.030  0.0621  0.1857 -0.6277
11347TIP3   OH255455   3.232   3.044  13.477  0.9537  0.7001 -0.6205
11347TIP3    H155456   3.192   3.093  13.549 -0.8767 -3.0384  1.1931
11347TIP3    H255457   3.168   3.052  13.405  0.1682  0.1944  0.0030
11348TIP3   OH255458   4.323   6.425  13.373  0.0495 -0.0297  0.0634
11348TIP3    H155459   4.353   6.416  13.464  1.0500 -1.7503 -0.3964
11348TIP3    H255460   4.399   6.459  13.326 -0.5198  1.0256 -0.1377
11349TIP3   OH255461   2.129   1.525   3.796 -0.3501  0.2856  0.2371
11349TIP3    H155462   2.051   1.549   3.746 -0.5108  0.8848  0.7666
11349TIP3    H255463   2.154   1.605   3.842  0.1065 -0.1168  0.7022
11350TIP3   OH255464   3.184   5.465  13.503  0.1971 -0.2835  0.3073
11350TIP3    H155465   3.275   5.492  13.488  0.0627  0.0569  0.0851
11350TIP3    H255466   3.132   5.536  13.466 -0.1618 -0.5603  0.2764
11351TIP3   OH255467   5.770   6.580  16.473  0.5440 -0.0313 -0.2057
11351TIP3    H155468   5.719   6.582  16.392 -0.9112 -1.6524  0.6025
11351TIP3    H255469   5.843   6.521  16.453 -0.7828 -1.8636  0.1352
11352TIP3   OH255470   5.878   5.349   2.478  0.5427 -0.2104  0.0372
11352TIP3    H155471   5.930   5.397   2.414 -0.7290  0.7363 -0.3313
11352TIP3    H255472   5.788   5.380   2.464 -0.2327 -2.1937  0.2651
11353TIP3   OH255473   0.257   4.314   5.871  0.0242  0.3871 -0.0835
11353TIP3    H155474   0.212   4.297   5.789  0.0396 -3.4753  0.5388
11353TIP3    H255475   0.197   4.369   5.921 -1.6090 -0.2296 -1.3138
11354TIP3   OH255476   1.381   3.335   3.598 -0.4509 -0.3555  0.2278
11354TIP3    H155477   1.435   3.268   3.638  0.6473 -0.2372 -0.9949
11354TIP3    H255478   1.303   3.289   3.567  0.4217 -1.1454 -0.8568
11355TIP3   OH255479   4.146   0.373  16.978  0.2065  0.3333 -0.3108
11355TIP3    H155480   4.232   0.400  17.011 -0.0058  0.1790  0.3729
11355TIP3    H255481   4.129   0.433  16.905 -0.6688  2.7564  1.7107
11356TIP3   OH255482   2.210   1.928  12.338 -0.1331  0.0483 -0.4366
11356TIP3    H155483   2.283   1.872  12.363 -1.3030 -1.1085  0.5057
11356TIP3    H255484   2.139   1.905  12.399 -1.3342  1.0357 -1.3965
11357TIP3   OH255485   4.815   3.776  13.501 -0.0011 -0.1503  0.6897
11357TIP3    H155486   4.732   3.745  13.463 -0.4955 -0.0847  1.6813
11357TIP3    H255487   4.882   3.722  13.460 -0.5620 -0.3694  0.0499
11358TIP3   OH255488   2.074   3.815   2.074  0.6454 -0.0558  0.0970
11358TIP3    H155489   2.129   3.845   2.002 -0.0186  2.0447  0.4120
11358TIP3    H255490   2.091   3.877   2.145 -1.2712 -0.0234  0.5766
11359TIP3   OH255491   0.610   3.203   6.360  0.1281 -0.1331 -0.5844
11359TIP3    H155492   0.629   3.116   6.396 -0.5458 -0.5021 -1.0859
11359TIP3    H255493   0.515   3.202   6.343  0.2276  0.4475 -1.2477
11360TIP3   OH255494   5.153   2.016  11.477 -0.3931 -0.4492  0.0215
11360TIP3    H155495   5.231   2.006  11.422 -0.9904 -1.3763 -0.6952
11360TIP3    H255496   5.180   1.986  11.564 -0.4247 -2.5489 -0.6480
11361TIP3   OH255497   2.194   6.738   2.948  0.1422  0.3881 -0.6853
11361TIP3    H155498   2.170   6.817   2.900 -0.5125  0.4743 -0.2349
11361TIP3    H255499   2.244   6.686   2.885  1.1482  1.4372 -0.7848
11362TIP3   OH255500   6.696   4.911   0.098  0.3494 -0.7922  0.0560
11362TIP3    H155501   6.607   4.877   0.110  0.3851 -0.4573  1.4344
11362TIP3    H255502   6.690   4.963   0.018 -0.9422 -0.0261  0.6085
11363TIP3   OH255503   5.156   4.371   4.355 -0.5599  0.4508  0.3969
11363TIP3    H155504   5.083   4.397   4.299 -0.9050  0.6125  0.9131
11363TIP3    H255505   5.137   4.280   4.379  0.0588  0.0700 -0.4758
11364TIP3   OH255506   1.641   4.353   3.418  0.2190 -0.2629  0.1256
11364TIP3    H155507   1.547   4.352   3.440  0.7287  0.0280  2.6360
11364TIP3    H255508   1.649   4.420   3.351 -1.3979 -0.4551 -0.3074
11365TIP3   OH255509   6.338   1.698   2.034 -0.1702  0.2077  0.1230
11365TIP3    H155510   6.413   1.674   1.978 -0.5358 -0.1003 -0.2402
11365TIP3    H255511   6.315   1.787   2.007 -0.0045  0.2606  0.1563
11366TIP3   OH255512   5.480   6.194  15.021 -0.5454  0.1166 -0.3772
11366TIP3    H155513   5.420   6.198  14.945 -0.3183 -0.3118 -0.5772
11366TIP3    H255514   5.565   6.218  14.985 -0.4278 -0.1330 -0.2632
11367TIP3   OH255515   5.664   0.877  11.677  0.4113 -0.4142  0.0449
11367TIP3    H155516   5.649   0.898  11.770 -0.5508  0.6191 -0.3177
11367TIP3    H255517   5.577   0.865  11.641  0.3642  3.2776 -1.5872
11368TIP3   OH255518   0.873   2.271   3.230  0.8736  0.3074 -0.9796
11368TIP3    H155519   0.846   2.261   3.321 -0.5402  2.0206 -1.1609
11368TIP3    H255520   0.904   2.184   3.204 -0.9114 -0.8145  0.4380
11369TIP3   OH255521   4.310   4.625   2.419 -0.4671 -0.0902 -0.4359
11369TIP3    H155522   4.227   4.647   2.461 -0.6002  1.5015 -1.4580
11369TIP3    H255523   4.377   4.659   2.478 -0.6441  1.7459 -1.2357
11370TIP3   OH255524   4.771   4.914   3.082  0.0599  0.1246 -0.5313
11370TIP3    H155525   4.777   5.010   3.087 -1.0158  0.1579  0.8146
11370TIP3    H255526   4.812   4.883   3.163  2.1229 -0.6926 -1.8179
11371TIP3   OH255527   0.706   0.924  12.223  0.4281  0.0577  0.0275
11371TIP3    H155528   0.710   0.830  12.210  0.2682 -0.0108  0.4563
11371TIP3    H255529   0.639   0.936  12.290  0.6586  0.4521  0.1939
11372TIP3   OH255530   4.374   2.888   4.605  0.2702 -0.4800  0.0166
11372TIP3    H155531   4.416   2.973   4.589  1.1970 -1.1263 -1.1932
11372TIP3    H255532   4.426   2.827   4.553  0.0185 -1.8979  1.3690
11373TIP3   OH255533   3.939   0.137  15.886 -0.1262 -0.4681 -0.1292
11373TIP3    H155534   3.889   0.071  15.933  0.2818  0.2044  1.2876
11373TIP3    H255535   3.974   0.091  15.809 -1.7559 -1.2873 -0.4209
11374TIP3   OH255536   1.512   6.714  14.779 -0.0356  0.0453 -0.6966
11374TIP3    H155537   1.439   6.663  14.745  0.0506 -1.5104  1.2570
11374TIP3    H255538   1.589   6.660  14.764  0.3401  0.4589 -0.3182
11375TIP3   OH255539   5.544   4.305   4.104 -0.1042 -0.0676  0.5907
11375TIP3    H155540   5.636   4.325   4.087 -0.1906  0.1618  0.3962
11375TIP3    H255541   5.508   4.385   4.142 -0.3331 -0.0133  0.2572
11376TIP3   OH255542   1.785   3.599  14.364  0.5393  0.5888 -0.0343
11376TIP3    H155543   1.879   3.613  14.367  0.4818  0.9644  0.0632
11376TIP3    H255544   1.765   3.584  14.272  0.9662 -1.4549  0.1667
11377TIP3   OH255545   4.471   5.448  14.993  0.2684 -0.5289 -0.1372
11377TIP3    H155546   4.561   5.460  15.025  0.9136 -1.6379 -1.4463
11377TIP3    H255547   4.425   5.410  15.068  0.9093 -0.0631  0.5170
11378TIP3   OH255548   6.017   3.001  11.595 -0.0223  0.8259 -0.1889
11378TIP3    H155549   5.966   2.920  11.592 -1.5918  1.7951 -1.3330
11378TIP3    H255550   6.078   2.988  11.668 -1.4521 -0.6644  0.8328
11379TIP3   OH255551   1.206   3.389  12.257 -0.0454 -0.4907  0.2393
11379TIP3    H155552   1.274   3.343  12.306 -0.2238 -0.7545  0.2384
11379TIP3    H255553   1.215   3.357  12.167  0.8850  0.6695 -0.1101
11380TIP3   OH255554   4.018   0.248   0.895  0.0383 -0.0187  0.1383
11380TIP3    H155555   4.094   0.192   0.877  1.6215  1.2886  2.2685
11380TIP3    H255556   3.991   0.225   0.983 -1.6804  0.0201 -0.3402
11381TIP3   OH255557   6.405   3.901   0.387  0.1957  0.1896 -0.6640
11381TIP3    H155558   6.404   3.992   0.417 -3.0325 -0.5563  1.9673
11381TIP3    H255559   6.494   3.871   0.406  0.4532  1.9707  1.2926
11382TIP3   OH255560   6.538   0.376   3.132  0.9111  0.0448  0.2271
11382TIP3    H155561   6.451   0.370   3.094  0.4693  2.1128  0.7785
11382TIP3    H255562   6.588   0.431   3.071  0.9040  1.3718  1.3575
11383TIP3   OH255563   6.150   5.628   1.352 -0.2332 -0.0964  0.3499
11383TIP3    H155564   6.066   5.594   1.381 -0.2129 -0.1866  0.3021
11383TIP3    H255565   6.216   5.573   1.395 -0.2150 -0.7300 -0.4842
11384TIP3   OH255566   2.968   5.621  12.853 -0.4604  0.6218  0.1537
11384TIP3    H155567   3.055   5.656  12.872  0.1143 -1.3775  1.6643
11384TIP3    H255568   2.939   5.667  12.774  3.0839 -0.4850 -2.0027
11385TIP3   OH255569   6.317   4.881  16.120 -0.6754  0.1446  0.2558
11385TIP3    H155570   6.259   4.894  16.045 -1.0722 -0.7237  0.4005
11385TIP3    H255571   6.276   4.811  16.171  0.7083 -0.8031  0.1348
11386TIP3   OH255572   3.183   4.108   4.746 -0.0350  0.1993 -0.1670
11386TIP3    H155573   3.119   4.076   4.811  0.0957  0.8285  0.2798
11386TIP3    H255574   3.268   4.085   4.783  0.1079  1.7642  0.5883
11387TIP3   OH255575   1.932   4.603  16.195 -0.1485  0.0924 -0.1417
11387TIP3    H155576   1.983   4.682  16.181  1.0419 -0.8917 -1.7017
11387TIP3    H255577   1.957   4.545  16.123 -1.0180 -1.6828  0.9073
11388TIP3   OH255578   0.987   4.644  12.939 -0.2306 -0.8393 -0.4228
11388TIP3    H155579   1.058   4.583  12.955 -0.3505 -0.9101 -0.1627
11388TIP3    H255580   0.946   4.657  13.024  1.6093  1.9159  0.1615
11389TIP3   OH255581   3.946   0.999  13.809  0.0532  0.1584  0.1383
11389TIP3    H155582   3.910   1.081  13.777  0.4315  1.1903  2.1478
11389TIP3    H255583   4.037   0.998  13.778 -0.7790 -1.1158 -2.5781
11390TIP3   OH255584   6.740   5.284   3.898  0.1758 -0.1290  0.2990
11390TIP3    H155585   6.734   5.375   3.929 -1.5622  0.0019 -0.2851
11390TIP3    H255586   6.803   5.287   3.826 -1.4401  1.0974 -1.1634
11391TIP3   OH255587   6.608   2.102  15.412 -0.1438 -0.1401  0.3045
11391TIP3    H155588   6.581   2.169  15.475  0.1930 -0.1897  0.5014
11391TIP3    H255589   6.529   2.085  15.360 -0.1800  0.5544  0.1252
11392TIP3   OH255590   2.479   0.977   4.285  0.5309  0.4777  0.4306
11392TIP3    H155591   2.548   1.015   4.230 -0.5539  1.4996 -0.2619
11392TIP3    H255592   2.465   1.041   4.354 -0.5115  0.8217 -0.0855
11393TIP3   OH255593   4.029   1.083   4.514  0.3062  0.0484 -0.7998
11393TIP3    H155594   4.077   1.036   4.446 -1.4075 -1.0189 -1.3331
11393TIP3    H255595   4.074   1.059   4.596 -1.3721 -3.9211 -0.8195
11394TIP3   OH255596   2.774   2.330   5.671  0.2194  0.3499  0.4654
11394TIP3    H155597   2.787   2.301   5.761 -0.2510  5.1229  2.3376
11394TIP3    H255598   2.683   2.310   5.652 -0.0000  0.3523  1.4922
11395TIP3   OH255599   4.126   1.419   2.928 -0.2376  0.0307 -0.1536
11395TIP3    H155600   4.180   1.435   2.850 -0.3821 -1.2481 -0.5287
11395TIP3    H255601   4.182   1.447   3.001  0.2552  0.3684 -0.6473
11396TIP3   OH255602   2.039   5.207   2.575  0.2845  0.3035 -0.1080
11396TIP3    H155603   2.111   5.231   2.634  0.9004 -1.5033 -0.0640
11396TIP3    H255604   2.079   5.209   2.488  1.0110 -2.5521  0.0603
11397TIP3   OH255605   4.064   2.143   1.961  0.2019  0.0016 -0.8133
11397TIP3    H155606   4.072   2.050   1.938  0.9510  0.0227 -0.6531
11397TIP3    H255607   4.036   2.142   2.053 -0.4310 -0.0627 -0.9991
11398TIP3   OH255608   2.349   6.758   1.672 -0.2240  0.4705  0.6298
11398TIP3    H155609   2.418   6.714   1.720 -2.1431 -1.2213  2.0352
11398TIP3    H255610   2.336   6.841   1.719  0.1362  0.3250  0.9864
11399TIP3   OH255611   2.243   3.445   6.368  0.0722 -0.4011  0.3550
11399TIP3    H155612   2.172   3.469   6.427  0.7121  0.7138  0.6981
11399TIP3    H255613   2.203   3.450   6.280 -0.0751  1.0598  0.4778
11400TIP3   OH255614   3.511   4.075  12.672  0.3718  0.0583 -0.1121
11400TIP3    H155615   3.441   4.113  12.619 -0.4011 -0.9297  0.1770
11400TIP3    H255616   3.589   4.124  12.646 -0.1365  0.1586 -1.5598
11401TIP3   OH255617   4.503   0.996   4.884  0.5070  0.2315  0.4756
11401TIP3    H155618   4.498   0.905   4.914  0.6803  0.1843  0.3611
11401TIP3    H255619   4.505   0.989   4.789 -2.0641  0.4544  0.3390
11402TIP3   OH255620   1.723   1.014   4.865 -0.1401  0.0121  0.1523
11402TIP3    H155621   1.790   1.008   4.934 -0.3312  1.7213  0.5300
11402TIP3    H255622   1.773   1.015   4.784  0.2396  0.3068  0.3845
11403TIP3   OH255623   4.369   4.556   3.492 -0.3054  0.0615 -0.2249
11403TIP3    H155624   4.447   4.561   3.437  1.5816 -0.9883  2.1111
11403TIP3    H255625   4.353   4.462   3.500 -1.0702  0.2325  0.2844
11404TIP3   OH255626   5.576   1.984   0.137 -0.3849  0.2311  0.8132
11404TIP3    H155627   5.623   1.986   0.053 -0.1064  2.6045  0.9569
11404TIP3    H255628   5.626   2.043   0.193 -1.8965  0.5042  1.9153
11405TIP3   OH255629   3.225   5.907   1.027  0.2179  0.3863  0.1076
11405TIP3    H155630   3.169   5.836   0.994 -0.3077  0.3695  0.9941
11405TIP3    H255631   3.209   5.980   0.968  0.0320  0.0646 -0.2447
11406TIP3   OH255632   2.686   1.542  16.129  0.1067  0.4296 -0.1624
11406TIP3    H155633   2.769   1.578  16.157 -1.3114  2.7168  1.4007
11406TIP3    H255634   2.631   1.618  16.110 -2.7674 -0.7966  2.4375
11407TIP3   OH255635   2.931   3.469  11.637 -0.0398  0.9411  0.0499
11407TIP3    H155636   2.968   3.542  11.588  1.8539 -0.6795 -1.0990
11407TIP3    H255637   2.874   3.510  11.702  1.9392  3.5149  0.3191
11408TIP3   OH255638   2.876   0.333  15.554  0.2998 -0.1981  0.9359
11408TIP3    H155639   2.861   0.288  15.471  0.6600 -0.6555  1.1149
11408TIP3    H255640   2.971   0.341  15.560  0.3098 -0.7295  1.5971
11409TIP3   OH255641   2.828   5.929  15.540  0.0044  0.9409  0.4620
11409TIP3    H155642   2.775   5.954  15.616 -1.5531 -0.4924 -0.0663
11409TIP3    H255643   2.763   5.908  15.472  1.2002 -1.2115 -0.1270
11410TIP3   OH255644   4.391   5.222   2.710  0.1141 -0.0814  0.3854
11410TIP3    H155645   4.308   5.217   2.662  1.0972 -1.3406 -1.2812
11410TIP3    H255646   4.447   5.157   2.668  1.8292  0.4517  1.7424
11411TIP3   OH255647   5.292   2.299  11.403  0.3857 -0.2110  0.4183
11411TIP3    H155648   5.234   2.373  11.385  0.5424 -0.1935 -0.0287
11411TIP3    H255649   5.268   2.270  11.491 -1.0158 -0.8598 -0.1518
11412TIP3   OH255650   1.871   4.753  13.479  0.0487 -0.4288 -0.5641
11412TIP3    H155651   1.876   4.785  13.569 -1.5359  1.5287 -1.0906
11412TIP3    H255652   1.791   4.701  13.477 -0.3154  0.1394 -0.9930
11413TIP3   OH255653   5.746   5.487  11.651 -0.0022  0.2648 -0.4761
11413TIP3    H155654   5.761   5.505  11.558  0.7804  1.8939 -0.0679
11413TIP3    H255655   5.652   5.505  11.663  0.1307  1.2334 -0.7343
11414TIP3   OH255656   0.317   6.593  14.595 -0.6068 -0.3081  0.1369
11414TIP3    H155657   0.366   6.636  14.525 -1.2292 -3.3355 -2.3872
11414TIP3    H255658   0.366   6.615  14.675  1.2532  1.7601 -1.4398
11415TIP3   OH255659   3.969   1.560  15.324  0.4075  0.0045  0.2016
11415TIP3    H155660   3.928   1.516  15.398 -0.9189  0.9454  0.0481
11415TIP3    H255661   3.946   1.506  15.248 -0.5252  0.4819  0.1270
11416TIP3   OH255662   2.391   5.190  15.361  0.5508 -0.2561  0.0793
11416TIP3    H155663   2.369   5.185  15.268  2.0134  1.4069 -0.4094
11416TIP3    H255664   2.384   5.283  15.382 -1.3788 -0.7703  2.1038
11417TIP3   OH255665   2.326   4.123  12.972  0.0314  0.1349 -0.0712
11417TIP3    H155666   2.248   4.142  12.919  1.4136  1.9692 -1.5614
11417TIP3    H255667   2.309   4.168  13.055 -1.1211 -0.7788  0.2261
11418TIP3   OH255668   4.606   0.550  13.236  0.0444 -0.1187  0.1491
11418TIP3    H155669   4.586   0.628  13.289  1.2193  0.4085 -0.1374
11418TIP3    H255670   4.533   0.491  13.250 -0.8012  0.9861  0.5046
11419TIP3   OH255671   5.965   2.004  12.238  0.1349 -0.0577 -0.0398
11419TIP3    H155672   6.020   1.929  12.263  0.6451  0.2141 -0.3323
11419TIP3    H255673   6.027   2.077  12.231  0.1825 -0.2912 -2.9656
11420TIP3   OH255674   1.557   5.598   0.678  0.1622  0.3228 -0.0243
11420TIP3    H155675   1.546   5.678   0.730  3.4805  1.6994 -1.1606
11420TIP3    H255676   1.604   5.539   0.736  2.2068  1.1713 -0.7234
11421TIP3   OH255677   6.473   5.019  13.676 -0.1488 -0.1224  0.0066
11421TIP3    H155678   6.503   4.965  13.603  2.2127  0.8484  0.1745
11421TIP3    H255679   6.511   4.978  13.753  0.6073  1.0340  0.2613
11422TIP3   OH255680   0.705   1.518   0.689  0.0853 -0.3574 -0.1177
11422TIP3    H155681   0.643   1.445   0.693  1.0613 -1.1666  1.1566
11422TIP3    H255682   0.791   1.476   0.692  0.7652  0.6914 -2.3878
11423TIP3   OH255683   1.858   5.771  15.234 -0.1476 -0.5744  0.2991
11423TIP3    H155684   1.776   5.737  15.197  0.5397 -0.8568 -1.0508
11423TIP3    H255685   1.870   5.855  15.191 -0.3051  0.0121  1.3743
11424TIP3   OH255686   4.378   5.287  10.601  0.0945  0.1642 -0.5685
11424TIP3    H155687   4.416   5.212  10.647 -0.3061 -0.0043 -0.5099
11424TIP3    H255688   4.419   5.364  10.642 -0.8412  0.0549  0.6244
11425TIP3   OH255689   3.532   5.130  11.707  0.2739 -0.0266  0.2997
11425TIP3    H155690   3.592   5.194  11.668 -1.4990  1.3288 -0.3363
11425TIP3    H255691   3.462   5.120  11.642 -1.3080  0.1082  1.8882
11426TIP3   OH255692   0.781   3.078  11.507 -0.2830 -0.0151  0.4834
11426TIP3    H155693   0.744   3.071  11.419 -0.0677 -1.2362  0.4675
11426TIP3    H255694   0.867   3.036  11.500 -0.5457 -0.7437  1.4207
11427TIP3   OH255695   2.021   4.663  12.370  0.4303 -0.0588  0.2832
11427TIP3    H155696   2.115   4.655  12.387  0.5471 -0.3335 -0.4317
11427TIP3    H255697   2.007   4.757  12.358  1.1314 -0.2101 -2.2538
11428TIP3   OH255698   4.613   4.198   0.862 -0.1232 -0.0067  0.0684
11428TIP3    H155699   4.650   4.161   0.942  1.7668  1.2259 -0.1493
11428TIP3    H255700   4.536   4.245   0.891  0.7609  0.7734  1.2699
11429TIP3   OH255701   5.341   0.301  14.505  0.1760 -0.4572 -0.1541
11429TIP3    H155702   5.277   0.351  14.454  0.1524  1.2080  1.3988
11429TIP3    H255703   5.402   0.367  14.538  0.3831 -1.5055  1.6805
11430TIP3   OH255704   5.818   6.608   4.265 -0.1893 -0.3009  0.2538
11430TIP3    H155705   5.738   6.594   4.316 -0.9888  1.4243 -0.4217
11430TIP3    H255706   5.790   6.601   4.174  0.6172 -0.5629  0.0244
11431TIP3   OH255707   1.774   5.773  10.922 -0.0578  0.2260  0.0820
11431TIP3    H155708   1.849   5.832  10.930  0.8925 -0.9010 -0.3214
11431TIP3    H255709   1.731   5.800  10.841 -0.3468  1.1399  0.5238
11432TIP3   OH255710   4.186   6.616   5.867 -0.5139 -0.1542 -0.0953
11432TIP3    H155711   4.266   6.611   5.920 -1.3379 -1.6740  1.0737
11432TIP3    H255712   4.207   6.563   5.789  0.2699  1.0665 -0.7419
11433TIP3   OH255713   4.030   1.060   2.543 -0.4192  0.1420  0.4291
11433TIP3    H155714   3.950   1.007   2.534 -0.4682 -0.2356  2.5330
11433TIP3    H255715   4.086   1.009   2.602  1.4411  0.3732 -1.0382
11434TIP3   OH255716   3.643   0.211  11.205  0.0637 -0.0024 -0.4130
11434TIP3    H155717   3.727   0.219  11.160  0.8993  0.9875  1.2195
11434TIP3    H255718   3.597   0.292  11.184 -0.0626 -0.0913 -0.4814
11435TIP3   OH255719   0.692   1.493   2.852 -0.3731  0.0310 -0.2862
11435TIP3    H155720   0.718   1.466   2.764 -0.9149  0.7233 -0.6734
11435TIP3    H255721   0.703   1.415   2.906 -0.3792 -0.5004 -1.0427
11436TIP3   OH255722   2.752   3.590  13.625  0.0881 -0.1248 -0.1050
11436TIP3    H155723   2.795   3.618  13.544  0.1762 -2.3303 -0.9031
11436TIP3    H255724   2.686   3.527  13.596 -0.7631 -0.0047  1.4632
11437TIP3   OH255725   6.588   2.006   1.369  0.0781  0.0701  0.4274
11437TIP3    H155726   6.589   2.099   1.391 -1.0348  0.6543 -1.7099
11437TIP3    H255727   6.645   1.965   1.434 -0.2500  2.0772  2.0631
11438TIP3   OH255728   1.057   6.511  15.529  0.4456  0.1184  0.3185
11438TIP3    H155729   0.998   6.553  15.592  1.5009 -0.2832  1.6152
11438TIP3    H255730   1.085   6.582  15.471 -1.2682  0.3192 -0.3111
11439TIP3   OH255731   3.931   0.503   1.101  0.5413 -0.3171  0.2131
11439TIP3    H155732   4.017   0.534   1.129  0.1443 -1.1308  2.5383
11439TIP3    H255733   3.869   0.558   1.149 -0.2640  0.1210 -1.2734
11440TIP3   OH255734   6.699   0.432   1.766  0.5046  0.0306  0.1926
11440TIP3    H155735   6.703   0.337   1.779  0.6351 -0.0379 -0.3135
11440TIP3    H255736   6.629   0.461   1.824  1.1435 -0.2337  1.1253
11441TIP3   OH255737   3.799   1.007   4.024 -0.4425  0.2045  0.5295
11441TIP3    H155738   3.841   1.079   3.976  0.6708 -1.3523 -0.9250
11441TIP3    H255739   3.705   1.025   4.018 -0.3668  0.0327 -2.3805
11442TIP3   OH255740   2.671   4.601   1.250 -0.9788 -0.0524  0.1206
11442TIP3    H155741   2.676   4.591   1.155  0.9416 -2.0290  0.3492
11442TIP3    H255742   2.610   4.532   1.277 -1.1243  0.1735  0.3638
11443TIP3   OH255743   3.423   0.371   3.083 -0.4581 -0.5313 -0.1149
11443TIP3    H155744   3.430   0.362   2.988  0.8394  0.9509 -0.1968
11443TIP3    H255745   3.428   0.465   3.098 -0.3611 -0.7663  1.4540
11444TIP3   OH255746   5.220   4.838  12.639 -0.0838 -0.5735  0.0865
11444TIP3    H155747   5.265   4.902  12.582  2.7637 -0.1531  2.5699
11444TIP3    H255748   5.245   4.753  12.604  0.8865 -0.3211  0.1524
11445TIP3   OH255749   6.350   0.221   4.325 -0.0054  0.9003 -0.4796
11445TIP3    H155750   6.300   0.206   4.406  2.4552  0.4928  1.0681
11445TIP3    H255751   6.386   0.135   4.304  2.6433  1.7106  0.3579
11446TIP3   OH255752   1.438   6.444   3.878  0.0807  0.2555 -0.1163
11446TIP3    H155753   1.371   6.377   3.893  1.4133 -0.5670  2.7957
11446TIP3    H255754   1.389   6.525   3.868 -1.4266 -0.4913  0.8308
11447TIP3   OH255755   4.725   6.344   0.257 -0.0274  0.1090 -0.1279
11447TIP3    H155756   4.710   6.434   0.227  1.0067 -0.1910 -1.6753
11447TIP3    H255757   4.706   6.346   0.351 -2.5339  1.3500 -0.5535
11448TIP3   OH255758   2.580   1.770  16.088  0.2343  0.2106  0.3860
11448TIP3    H155759   2.612   1.854  16.055  2.9246 -1.5448 -1.9288
11448TIP3    H255760   2.486   1.784  16.100  0.8167  4.0149  1.8982
11449TIP3   OH255761   3.380   2.410   3.842 -0.3037  0.3012 -0.8175
11449TIP3    H155762   3.286   2.405   3.825 -0.6426  1.7781  0.4485
11449TIP3    H255763   3.420   2.379   3.760 -1.8657 -0.2325 -1.4243
11450TIP3   OH255764   5.747   4.928   6.255  1.1391  0.3613  0.7430
11450TIP3    H155765   5.825   4.982   6.270  0.3878  1.8330 -0.2585
11450TIP3    H255766   5.674   4.986   6.278  0.3097 -0.4631  0.2355
11451TIP3   OH255767   1.236   3.517   3.180  0.0669 -0.0039  0.4402
11451TIP3    H155768   1.217   3.541   3.089  1.0433 -0.1673  0.1813
11451TIP3    H255769   1.153   3.529   3.225 -0.0913  1.4959 -0.1757
11452TIP3   OH255770   0.936   2.728  14.104 -0.6264  0.2029  0.0800
11452TIP3    H155771   0.972   2.676  14.033  1.1417 -0.3751  1.3165
11452TIP3    H255772   1.004   2.727  14.172 -1.6707  1.8495  1.2497
11453TIP3   OH255773   1.569   2.878  14.027  0.0039  0.5410  0.3341
11453TIP3    H155774   1.597   2.787  14.028  1.6460  0.9079 -1.9597
11453TIP3    H255775   1.555   2.898  13.934  1.5196  3.0839  0.5402
11454TIP3   OH255776   4.180   5.712  11.147 -0.5126 -0.1696  0.0431
11454TIP3    H155777   4.186   5.696  11.052 -4.2035 -1.1942 -0.1736
11454TIP3    H255778   4.214   5.800  11.158 -0.1423  0.0557 -2.2714
11455TIP3   OH255779   5.511   1.286   5.593  0.2265  0.2373  0.2132
11455TIP3    H155780   5.499   1.303   5.500 -0.9013  0.8291  0.4494
11455TIP3    H255781   5.423   1.269   5.626  0.7137 -0.8389  1.0190
11456TIP3   OH255782   0.007   5.977  12.360  0.6193  0.1156 -0.0356
11456TIP3    H155783   0.101   5.970  12.375  0.6120 -0.0569 -0.0619
11456TIP3    H255784  -0.000   6.015  12.272  0.7023 -2.4520 -1.2643
11457TIP3   OH255785   0.140   0.822  12.026 -0.3171 -0.7543 -0.2341
11457TIP3    H155786   0.223   0.864  12.048 -0.3033 -0.3101 -1.0999
11457TIP3    H255787   0.085   0.836  12.103  0.1502 -0.3874  0.0417
11458TIP3   OH255788   1.515   3.981  16.326  0.1075 -0.0636  0.3968
11458TIP3    H155789   1.578   3.909  16.329 -3.0559 -3.1226  0.5995
11458TIP3    H255790   1.439   3.945  16.281 -2.0242  2.9307  1.2429
11459TIP3   OH255791   1.118   5.591   1.546  0.6626  0.0773 -0.4343
11459TIP3    H155792   1.208   5.577   1.575  0.3448  0.8793  1.0522
11459TIP3    H255793   1.108   5.687   1.546  0.2611  0.0672 -2.1034
11460TIP3   OH255794   0.905   3.107   1.169 -0.4842  0.1700 -0.4847
11460TIP3    H155795   0.952   3.126   1.250  2.0809 -1.9502 -1.3339
11460TIP3    H255796   0.880   3.192   1.135  1.3736  1.3268  0.8685
11461TIP3   OH255797   6.039   4.625   5.350  0.4665  0.1588 -0.0662
11461TIP3    H155798   6.034   4.638   5.255 -0.0674  1.2374  0.0965
11461TIP3    H255799   6.036   4.530   5.361 -0.7148  0.0580 -1.0595
11462TIP3   OH255800   3.622   4.926   2.949 -0.1407  0.1070  0.0898
11462TIP3    H155801   3.625   5.020   2.968  0.9715  0.1628 -0.2757
11462TIP3    H255802   3.531   4.901   2.963 -0.3267  1.1204  0.7541
11463TIP3   OH255803   2.777   4.889  16.599 -0.0442  0.6264 -0.4596
11463TIP3    H155804   2.824   4.947  16.659  1.0941 -1.3450  0.6777
11463TIP3    H255805   2.845   4.835  16.560 -0.9394  0.8766 -2.4801
11464TIP3   OH255806   5.242   4.065   0.483  0.9610  0.1869  0.3009
11464TIP3    H155807   5.287   4.117   0.416  0.8188 -2.2943 -1.9048
11464TIP3    H255808   5.312   4.029   0.536  1.1924  0.7568  0.3916
11465TIP3   OH255809   4.246   4.082   1.493 -0.4424  0.2714  0.6253
11465TIP3    H155810   4.259   4.093   1.399 -4.1486  0.6475  0.0010
11465TIP3    H255811   4.241   4.171   1.527 -0.6562  0.1478  0.9189
11466TIP3   OH255812   5.719   1.970   5.290  0.2028  0.0896 -0.8903
11466TIP3    H155813   5.739   2.023   5.367 -0.6717  0.8957 -1.2036
11466TIP3    H255814   5.784   1.997   5.225  1.3355 -1.0311 -0.2732
11467TIP3   OH255815   4.142   4.331  14.073  0.4072 -0.8538 -0.1362
11467TIP3    H155816   4.119   4.386  13.998 -0.4119 -0.7048  0.2132
11467TIP3    H255817   4.235   4.349  14.089  0.1303  0.4860  0.0205
11468TIP3   OH255818   6.516   3.351  12.208 -0.3459  0.9849  0.5638
11468TIP3    H155819   6.574   3.413  12.252  1.8424  0.1694 -1.0313
11468TIP3    H255820   6.472   3.403  12.141 -0.7398  1.3884  1.1220
11469TIP3   OH255821   1.833   4.791  16.368 -0.3081 -0.4250 -0.3702
11469TIP3    H155822   1.870   4.732  16.302  1.8819 -0.5821  0.8801
11469TIP3    H255823   1.888   4.778  16.445 -2.4498  0.1197  1.3584
11470TIP3   OH255824   5.949   4.900   3.098 -0.0819 -0.3621 -0.5096
11470TIP3    H155825   6.020   4.895   3.034  0.3976  0.0437 -0.0184
11470TIP3    H255826   5.928   4.809   3.117  1.7522 -0.5440  0.9068
11471TIP3   OH255827   1.101   3.920  13.475  0.0086 -0.3872  0.0848
11471TIP3    H155828   1.115   3.999  13.527  0.2968 -1.1502  1.2243
11471TIP3    H255829   1.141   3.850  13.528  0.2076 -1.2166 -1.1311
11472TIP3   OH255830   4.878   5.590   3.684 -0.0656  0.6742 -0.3603
11472TIP3    H155831   4.954   5.637   3.716  0.8551 -1.7277  1.2807
11472TIP3    H255832   4.844   5.544   3.760  0.2372 -2.7299 -2.0665
11473TIP3   OH255833   6.316   2.116  12.698  0.3210 -0.0462  0.2672
11473TIP3    H155834   6.330   2.206  12.667 -1.3057 -0.1214 -0.8001
11473TIP3    H255835   6.238   2.122  12.753 -1.7363 -1.2570 -2.3253
11474TIP3   OH255836   4.880   6.205   5.721 -0.6372 -0.8399 -0.4182
11474TIP3    H155837   4.792   6.218   5.684 -0.1586  1.7279 -0.8115
11474TIP3    H255838   4.898   6.286   5.768  1.7798 -1.0697 -0.8597
11475TIP3   OH255839   5.482   1.081   3.273 -0.0831  0.0222  0.1655
11475TIP3    H155840   5.577   1.085   3.264 -0.1572  0.3108 -0.5452
11475TIP3    H255841   5.467   1.088   3.367  0.5752  0.5058  0.2455
11476TIP3   OH255842   3.565   3.114   4.448  0.1505  0.2606  0.0235
11476TIP3    H155843   3.620   3.166   4.389  0.2380  1.6059  1.2243
11476TIP3    H255844   3.525   3.047   4.392 -1.4553  2.7527 -2.0380
11477TIP3   OH255845   1.098   4.962  13.473  0.4047  0.0714  0.3440
11477TIP3    H155846   1.094   5.008  13.389 -0.9712  0.7663  0.7674
11477TIP3    H255847   1.074   5.028  13.537  0.6379 -0.6692  1.2100
11478TIP3   OH255848   4.672   0.997  12.830 -0.0851  0.3538  0.1187
11478TIP3    H155849   4.703   0.923  12.777  1.3556  1.4183 -0.5734
11478TIP3    H255850   4.747   1.055  12.838 -0.4785  0.6150  2.7459
11479TIP3   OH255851   2.138   4.931   2.262 -0.3210  0.1878 -0.2177
11479TIP3    H155852   2.072   4.895   2.322  0.4734  0.5470  0.9057
11479TIP3    H255853   2.091   4.944   2.180 -1.4392 -0.3336  0.3156
11480TIP3   OH255854   3.580   4.651   3.293  0.3096  0.1082 -0.1738
11480TIP3    H155855   3.590   4.573   3.347  2.3559 -0.7990 -1.7049
11480TIP3    H255856   3.636   4.635   3.217 -3.1514  0.8349 -3.1507
11481TIP3   OH255857   1.659   2.861  14.608  0.5075 -0.7771 -0.4862
11481TIP3    H155858   1.752   2.841  14.600  0.1089 -2.2930 -2.0407
11481TIP3    H255859   1.631   2.813  14.687  1.7118  2.8962  2.4879
11482TIP3   OH255860   2.463   5.566   2.233  0.1650 -0.2998 -0.6032
11482TIP3    H155861   2.524   5.501   2.267  1.8138  0.4576 -1.9550
11482TIP3    H255862   2.418   5.521   2.161 -0.0311 -0.5133 -0.3456
11483TIP3   OH255863   2.900   2.296  13.924  0.3784 -0.0474  0.4009
11483TIP3    H155864   2.875   2.210  13.891 -0.7116  0.5610 -0.3920
11483TIP3    H255865   2.879   2.357  13.853 -1.9761  1.2976  2.1232
11484TIP3   OH255866   4.054   6.108   1.880 -0.0089 -0.3689  0.0332
11484TIP3    H155867   4.148   6.089   1.881  0.3005  0.6810 -2.1399
11484TIP3    H255868   4.015   6.033   1.835 -0.2455 -0.8405  1.0015
11485TIP3   OH255869   2.492   2.982  11.735 -0.3647 -0.1849 -0.2043
11485TIP3    H155870   2.536   3.039  11.798 -1.3192 -0.5942  0.8610
11485TIP3    H255871   2.408   3.024  11.719 -0.6747 -0.7812 -0.1641
11486TIP3   OH255872   6.117   6.636   5.642 -0.0553  0.5778  0.4465
11486TIP3    H155873   6.051   6.568   5.655 -0.2111  0.0525 -2.3787
11486TIP3    H255874   6.198   6.588   5.627 -0.0467  0.9818 -0.9757
11487TIP3   OH255875   4.544   4.886  14.169  0.1087  0.3745 -0.1435
11487TIP3    H155876   4.599   4.870  14.092 -0.3369  0.5950 -0.5180
11487TIP3    H255877   4.454   4.873  14.137 -0.1045  0.8969  0.2342
11488TIP3   OH255878   1.454   0.109  16.642 -0.1667 -0.0038 -0.1083
11488TIP3    H155879   1.479   0.024  16.678 -0.9265  0.7000  2.3115
11488TIP3    H255880   1.466   0.170  16.715 -0.6410  1.7888 -1.4592
11489TIP3   OH255881   2.781   5.390  11.687 -0.1461  0.8264  0.8301
11489TIP3    H155882   2.720   5.462  11.700 -0.8438  0.0754  1.8573
11489TIP3    H255883   2.801   5.359  11.775  1.2637  0.6790  0.4800
11490TIP3   OH255884   5.809   2.420  15.088 -0.0562 -0.8572  0.3219
11490TIP3    H155885   5.798   2.491  15.150  0.6189  0.6780 -1.2277
11490TIP3    H255886   5.770   2.344  15.130  0.3844  0.1101  2.5851
11491TIP3   OH255887   2.977   2.061  16.016  0.4814  0.2233  0.4158
11491TIP3    H155888   2.934   2.114  16.083 -0.1189  0.6705 -0.2998
11491TIP3    H255889   2.923   2.074  15.938  1.7700  0.5858 -0.4474
11492TIP3   OH255890   1.790   0.111   1.746 -0.4292 -0.3599  0.0252
11492TIP3    H155891   1.761   0.155   1.826 -1.0854 -0.3420 -0.2170
11492TIP3    H255892   1.731   0.037   1.735 -0.3512 -0.3575 -0.4510
11493TIP3   OH255893   5.851   1.950  10.824 -0.1494 -0.5548  0.0702
11493TIP3    H155894   5.763   1.919  10.802 -0.4103  0.3287 -0.2043
11493TIP3    H255895   5.892   1.966  10.739  0.1360 -0.5925  0.2000
11494TIP3   OH255896   2.657   3.139   4.589  0.6780 -0.0527 -0.1935
11494TIP3    H155897   2.650   3.191   4.669  1.4120 -0.4636  0.1516
11494TIP3    H255898   2.736   3.087   4.602 -0.5065 -1.9371 -0.1255
11495TIP3   OH255899   1.282   2.319  12.287  0.1002  0.0432  0.4202
11495TIP3    H155900   1.245   2.347  12.203  1.9301 -0.6596 -0.6800
11495TIP3    H255901   1.375   2.339  12.280  0.1520  0.8244  2.6838
11496TIP3   OH255902   4.323   2.070   5.319 -0.6891  0.4721 -0.0489
11496TIP3    H155903   4.266   2.143   5.296 -1.3583 -0.0070  0.0789
11496TIP3    H255904   4.283   1.994   5.276  0.1151  0.2084 -0.3529
11497TIP3   OH255905   4.565   3.695  14.315  0.9077  0.1358 -0.1122
11497TIP3    H155906   4.472   3.693  14.296  0.5451 -0.3673  1.4995
11497TIP3    H255907   4.604   3.629  14.258  0.0817 -0.5169  0.0666
11498TIP3   OH255908   0.375   5.741  16.450  0.0152 -0.0550 -0.3590
11498TIP3    H155909   0.334   5.827  16.454  1.1192  0.5164 -0.8093
11498TIP3    H255910   0.309   5.681  16.483 -0.1468  1.1927  1.7811
11499TIP3   OH255911   5.710   3.165   0.080  0.4551  0.0522 -0.4359
11499TIP3    H155912   5.708   3.227   0.007 -0.0319  0.5967  0.0379
11499TIP3    H255913   5.653   3.204   0.146 -1.7411 -1.9473 -0.9995
11500TIP3   OH255914   0.574   3.157  14.802 -0.6313  0.1847  0.2506
11500TIP3    H155915   0.520   3.186  14.728 -1.9751 -0.8584  0.7904
11500TIP3    H255916   0.554   3.218  14.872 -1.6175 -0.5867  0.6487
11501TIP3   OH255917   1.716   4.084   1.161  1.1269  0.5221 -0.6980
11501TIP3    H155918   1.716   3.990   1.174  0.2633  0.4234 -1.3104
11501TIP3    H255919   1.661   4.098   1.083  1.5389  1.4953 -0.8332
11502TIP3   OH255920   1.369   5.828  12.489 -0.4440 -0.2841  0.5390
11502TIP3    H155921   1.297   5.819  12.426  0.5831  2.9073 -1.3278
11502TIP3    H255922   1.434   5.764  12.461 -1.3686 -1.2289  0.4881
11503TIP3   OH255923   1.466   0.094  13.968 -0.3916 -0.1199  0.7629
11503TIP3    H155924   1.491   0.011  13.927 -2.1175 -0.6157  0.6112
11503TIP3    H255925   1.406   0.134  13.904 -0.2911  0.8051  1.2432
11504TIP3   OH255926   5.672   3.615  13.161 -0.3536 -0.1287 -0.3678
11504TIP3    H155927   5.730   3.634  13.235  0.3276  1.5870 -1.2641
11504TIP3    H255928   5.585   3.606  13.199  0.5756 -4.3522  1.2390
11505TIP3   OH255929   2.666   1.298   0.948  0.6605  0.3964 -0.1648
11505TIP3    H155930   2.759   1.283   0.928  0.9689  0.2372  1.2537
11505TIP3    H255931   2.626   1.318   0.863  1.4324 -2.2302 -1.2666
11506TIP3   OH255932   2.692   1.286  16.206 -0.8231  0.2681 -0.8036
11506TIP3    H155933   2.702   1.380  16.196  1.0628  0.2221  0.0972
11506TIP3    H255934   2.778   1.256  16.235 -1.4363 -1.7090 -0.8574
11507TIP3   OH255935   5.299   1.838  13.719  0.4377 -0.0679 -0.3469
11507TIP3    H155936   5.259   1.888  13.790  2.0770  0.4208  0.2801
11507TIP3    H255937   5.290   1.894  13.642 -0.7565 -0.3105 -0.3951
11508TIP3   OH255938   4.420   1.858   0.296  0.0373  0.1480  0.2004
11508TIP3    H155939   4.489   1.794   0.276 -0.9457 -0.1831 -2.5128
11508TIP3    H255940   4.339   1.812   0.276 -0.7245  2.0767 -1.5168
11509TIP3   OH255941   0.300   4.186   2.610 -0.5706 -0.5705  0.0685
11509TIP3    H155942   0.346   4.102   2.621 -0.0402 -0.4292 -1.0069
11509TIP3    H255943   0.330   4.239   2.684  2.0648 -0.0274 -1.2897
11510TIP3   OH255944   1.086   1.825  11.061 -0.1303  0.3417 -0.3353
11510TIP3    H155945   1.096   1.919  11.078 -1.7951  0.4081  0.3846
11510TIP3    H255946   0.992   1.810  11.064  0.1262 -1.3861 -0.2844
11511TIP3   OH255947   2.492   5.784  13.592  0.1620  0.1539 -0.7373
11511TIP3    H155948   2.454   5.832  13.519  0.3185 -0.3548 -1.1583
11511TIP3    H255949   2.530   5.851  13.648 -1.4354  0.6881 -0.2399
11512TIP3   OH255950   3.364   1.290   2.503 -0.0802  0.8648 -0.0520
11512TIP3    H155951   3.444   1.301   2.451  0.0003 -0.2280 -0.1776
11512TIP3    H255952   3.307   1.361   2.474 -0.0372  0.3014 -1.6483
11513TIP3   OH255953   0.118   1.139  14.050 -0.2157 -0.1703 -0.0134
11513TIP3    H155954   0.120   1.150  14.145  1.8771  0.2436 -0.0601
11513TIP3    H255955   0.048   1.075  14.035 -0.7276 -0.0864  1.7785
11514TIP3   OH255956   4.908   6.309  13.580  0.2480  0.1255  0.1135
11514TIP3    H155957   4.905   6.403  13.595 -0.9903 -0.1192  1.6125
11514TIP3    H255958   5.001   6.287  13.583  0.5379  1.2547 -0.0736
11515TIP3   OH255959   5.341   2.373   2.118  0.0063 -0.2123  0.3353
11515TIP3    H155960   5.278   2.434   2.081  1.5313  0.2940 -1.5745
11515TIP3    H255961   5.315   2.365   2.210 -2.3253  0.5685 -0.1833
11516TIP3   OH255962   4.368   2.179   3.452 -0.6264 -0.0698 -0.2408
11516TIP3    H155963   4.328   2.182   3.538 -0.6520  1.9314 -0.2758
11516TIP3    H255964   4.423   2.258   3.448 -0.3373 -0.3091 -1.9017
11517TIP3   OH255965   5.908   5.336  12.265 -0.1537  0.4172  0.0328
11517TIP3    H155966   5.872   5.248  12.260  0.1663  0.3015 -0.2591
11517TIP3    H255967   5.970   5.333  12.338  0.4038  0.1985 -0.4440
11518TIP3   OH255968   1.347   0.072   0.057  0.6512 -0.6061  0.3469
11518TIP3    H155969   1.369   0.074   0.150  0.0181  1.3663  0.4916
11518TIP3    H255970   1.255   0.045   0.056  0.4635  0.0291  0.3421
11519TIP3   OH255971   6.206   5.786   3.542 -0.5961 -0.2044  0.1610
11519TIP3    H155972   6.196   5.785   3.446 -0.1576  0.5956  0.0994
11519TIP3    H255973   6.171   5.702   3.570  1.6235 -1.5950 -0.9436
11520TIP3   OH255974   0.661   1.763   2.753  0.0282 -0.0459 -0.4058
11520TIP3    H155975   0.709   1.811   2.821 -0.6921  0.0952  0.0085
11520TIP3    H255976   0.646   1.676   2.790 -1.7784  0.5172  0.3094
11521TIP3   OH255977   3.769   3.245  14.475  0.8405 -0.6455 -0.1544
11521TIP3    H155978   3.691   3.263  14.422  2.6636  2.1906 -2.1595
11521TIP3    H255979   3.734   3.218  14.560 -2.3833  1.4063 -0.6454
11522TIP3   OH255980   3.522   2.334  14.798  0.3127  0.0472  0.1108
11522TIP3    H155981   3.551   2.263  14.854  1.3056  0.6614  0.3944
11522TIP3    H255982   3.594   2.397  14.800  0.8029 -0.2956 -2.5532
11523TIP3   OH255983   4.236   4.821  16.522 -0.3568 -0.0594  0.8133
11523TIP3    H155984   4.275   4.806  16.436  0.5903 -0.3827  1.2777
11523TIP3    H255985   4.245   4.915  16.537  0.9610 -0.2298  1.2236
11524TIP3   OH255986   2.793   3.540   1.906  0.5325  0.8507 -0.1510
11524TIP3    H155987   2.835   3.609   1.959 -2.3148  0.4646  2.9710
11524TIP3    H255988   2.764   3.585   1.827  2.0402  2.2997  0.0461
11525TIP3   OH255989   5.999   6.574   2.707  0.9665  0.2190 -0.3762
11525TIP3    H155990   5.958   6.659   2.724  1.8995  0.4812  0.6439
11525TIP3    H255991   6.064   6.592   2.639  1.7632  0.5223  0.4429
11526TIP3   OH255992   4.493   2.732   1.966 -0.2215 -0.0945  0.6004
11526TIP3    H155993   4.456   2.647   1.943 -0.9116  0.5486 -0.7468
11526TIP3    H255994   4.421   2.794   1.954  0.6634  0.8726  0.1433
11527TIP3   OH255995   3.913   4.861   1.382  0.4397 -0.1477 -0.1156
11527TIP3    H155996   3.928   4.779   1.430 -0.9600 -0.4419 -0.1545
11527TIP3    H255997   3.953   4.928   1.437  0.9271 -0.7543  0.2893
11528TIP3   OH255998   6.341   1.492   0.359  0.4603 -0.5166  0.3306
11528TIP3    H155999   6.379   1.419   0.408  1.7719 -1.1382 -1.5087
11528TIP3    H256000   6.357   1.569   0.413 -2.3115 -1.6358  3.0824
11529TIP3   OH256001   1.589   5.885  15.597 -0.1032  0.0711 -0.6184
11529TIP3    H156002   1.673   5.843  15.579 -0.5769 -0.9290 -0.5685
11529TIP3    H256003   1.530   5.851  15.529 -0.3517  1.1384 -0.9516
11530TIP3   OH256004   4.953   4.734  12.710  0.0991 -0.5060  0.0254
11530TIP3    H156005   5.032   4.782  12.683  0.6337  0.0183  2.2865
11530TIP3    H256006   4.982   4.644  12.719 -0.4612 -1.0182 -2.4303
11531TIP3   OH256007   5.552   4.533  12.993 -0.3910 -0.0303 -0.3561
11531TIP3    H156008   5.614   4.605  12.988 -0.6359  0.1161 -1.9781
11531TIP3    H256009   5.596   4.466  13.045  0.1149  1.0056  0.5841
11532TIP3   OH256010   1.885   5.343   3.072  0.4210 -0.7420  0.4687
11532TIP3    H156011   1.854   5.434   3.069 -1.9873 -1.5205 -0.7098
11532TIP3    H256012   1.927   5.329   2.987  0.3836 -0.8551  0.4691
11533TIP3   OH256013   1.515   5.065  12.294  0.3016  0.4683  0.4427
11533TIP3    H156014   1.575   4.992  12.281 -1.5969 -1.3374  1.1339
11533TIP3    H256015   1.484   5.087  12.206 -0.7299 -1.1057  0.3535
11534TIP3   OH256016   0.733   4.930   4.409 -0.5442  0.3057 -0.1446
11534TIP3    H156017   0.659   4.945   4.349 -0.7726  0.2684  0.1276
11534TIP3    H256018   0.712   4.846   4.451 -0.1141  0.0623 -0.4125
11535TIP3   OH256019   5.813   0.572  15.347 -0.1745  0.3662  0.2191
11535TIP3    H156020   5.811   0.480  15.321  1.1648  0.2624  0.4066
11535TIP3    H256021   5.865   0.573  15.427  1.0340  1.4452 -0.5326
11536TIP3   OH256022   4.395   2.909  13.323 -0.5343  0.1056 -0.2320
11536TIP3    H156023   4.375   2.922  13.416  1.7521 -2.1220  0.6604
11536TIP3    H256024   4.435   2.992  13.296  0.6560  0.1014  1.3593
11537TIP3   OH256025   3.179   0.471   0.886  0.0959  0.1981 -0.5403
11537TIP3    H156026   3.217   0.526   0.954  1.5327  0.0893 -1.2270
11537TIP3    H256027   3.087   0.497   0.883  0.1689  0.7015  0.9418
11538TIP3   OH256028   3.600   6.731  14.690  0.4067  0.0942  0.1432
11538TIP3    H156029   3.527   6.692  14.739 -0.6126  0.3914 -1.0668
11538TIP3    H256030   3.616   6.670  14.618  0.8886  0.3712  0.0134
11539TIP3   OH256031   1.899   5.405  10.986  0.0047 -0.4597 -0.5390
11539TIP3    H156032   1.940   5.451  10.913  1.0913  0.2074  0.4638
11539TIP3    H256033   1.814   5.449  10.997  1.0538  1.4838  0.4682
11540TIP3   OH256034   1.718   1.881   3.370  0.5026  0.6950 -0.8173
11540TIP3    H156035   1.733   1.930   3.451 -0.8299 -0.3132  0.0948
11540TIP3    H256036   1.765   1.799   3.382  0.6906  0.7358 -1.2697
11541TIP3   OH256037   4.619   3.108   4.177 -0.0306  0.2282  0.1334
11541TIP3    H156038   4.649   3.107   4.086 -0.8212 -0.0278 -0.1307
11541TIP3    H256039   4.692   3.147   4.225 -0.0519  1.4523 -0.7700
11542TIP3   OH256040   1.028   0.382  12.366 -0.0754  0.3062 -0.4692
11542TIP3    H156041   0.965   0.420  12.304 -1.6001  0.4659  1.0911
11542TIP3    H256042   1.034   0.447  12.436  0.8529 -0.2904  0.0143
11543TIP3   OH256043   1.815   0.029   5.648  0.5941 -0.5444  0.2799
11543TIP3    H156044   1.728   0.002   5.675  0.2880 -1.0081 -1.0648
11543TIP3    H256045   1.805   0.120   5.619  0.9553  0.0075  1.7941
11544TIP3   OH256046   5.524   6.617  15.447 -0.3641  0.1536 -0.3983
11544TIP3    H156047   5.549   6.557  15.518 -2.1537 -0.7141 -0.4534
11544TIP3    H256048   5.586   6.690  15.455  0.2779 -0.5154  1.2647
11545TIP3   OH256049   5.139   2.869   3.888 -0.3932  0.3103 -0.1315
11545TIP3    H156050   5.079   2.903   3.955 -2.1212 -2.8265  0.0842
11545TIP3    H256051   5.183   2.795   3.931  0.9734  0.3175 -1.4519
11546TIP3   OH256052   5.107   0.238   3.643 -0.1917  0.0566  0.3315
11546TIP3    H156053   5.125   0.262   3.734 -3.1146 -1.0130  1.3187
11546TIP3    H256054   5.152   0.154   3.631 -0.2780 -0.0990  1.0123
11547TIP3   OH256055   5.848   6.058   3.226  0.4585  0.0969 -0.1449
11547TIP3    H156056   5.908   5.990   3.256  0.9225  0.6604  0.2435
11547TIP3    H256057   5.880   6.138   3.269  0.4096  0.7048 -1.2141
11548TIP3   OH256058   4.717   6.542   2.033 -0.4712 -0.7200  0.0713
11548TIP3    H156059   4.688   6.559   2.122  0.9273 -0.1444  0.4527
11548TIP3    H256060   4.651   6.583   1.977 -0.5068  0.3582  0.8799
11549TIP3   OH256061   0.541   1.637  12.032  0.3622 -0.2342  0.2890
11549TIP3    H156062   0.540   1.674  11.944  0.5927 -0.4179  0.2062
11549TIP3    H256063   0.454   1.599  12.043  0.5730 -0.8738 -0.1518
11550TIP3   OH256064   4.944   3.491   6.288 -0.5207  0.1642 -0.0910
11550TIP3    H156065   4.937   3.587   6.291  0.8613  0.3069 -1.0003
11550TIP3    H256066   4.986   3.472   6.205  0.4882 -1.1634  0.6932
11551TIP3   OH256067   1.435   3.228   1.408 -0.0023  0.2965  0.2864
11551TIP3    H156068   1.423   3.199   1.499 -2.3993  0.9447  0.2358
11551TIP3    H256069   1.382   3.307   1.401 -1.5958 -0.8659 -2.2285
11552TIP3   OH256070   6.087   5.053  13.180 -0.2031 -0.0757  0.2855
11552TIP3    H156071   6.008   5.001  13.194  0.5954 -1.9216 -1.4952
11552TIP3    H256072   6.055   5.136  13.143 -1.3696 -0.2287  0.9275
11553TIP3   OH256073   5.563   4.071  13.183  0.1291 -0.0176 -0.5547
11553TIP3    H156074   5.605   4.103  13.104  1.5530  1.8497  0.8455
11553TIP3    H256075   5.516   4.147  13.217  1.6434  0.0220  1.6683
11554TIP3   OH256076   1.206   0.446  14.026  0.4191  0.3693 -0.8798
11554TIP3    H156077   1.113   0.454  14.049  0.6510 -1.5746  1.1325
11554TIP3    H256078   1.245   0.399  14.100  2.9657  0.8623 -1.8108
11555TIP3   OH256079   2.539   0.731   5.176  0.0659  0.0258 -0.3937
11555TIP3    H156080   2.590   0.670   5.230 -0.4121 -1.6894 -1.7628
11555TIP3    H256081   2.601   0.798   5.150  1.5419 -1.6863 -1.5262
11556TIP3   OH256082   3.373   2.147  13.356 -0.6287 -0.1495  0.2324
11556TIP3    H156083   3.449   2.090  13.343 -0.7478 -0.5739  1.3168
11556TIP3    H256084   3.364   2.154  13.451 -0.9321  1.2676  0.1185
11557TIP3   OH256085   6.400   5.876   2.436 -0.9921  0.0799 -0.2834
11557TIP3    H156086   6.311   5.841   2.438 -1.1088  0.4225  0.4518
11557TIP3    H256087   6.456   5.800   2.454 -1.1107 -0.1885 -1.0065
11558TIP3   OH256088   1.285   4.212   3.713 -0.1629  0.1205  0.0672
11558TIP3    H156089   1.336   4.203   3.793 -1.8128  0.8292  1.2724
11558TIP3    H256090   1.209   4.155   3.726 -0.9268  0.9564 -0.5577
11559TIP3   OH256091   4.549   0.819   5.684  0.2045  0.1247 -0.1055
11559TIP3    H156092   4.460   0.836   5.715 -0.1346 -0.0053 -0.9758
11559TIP3    H256093   4.599   0.895   5.713 -0.2697  0.3771  0.0694
11560TIP3   OH256094   0.885   3.559   2.316  0.8521  0.1065  0.2924
11560TIP3    H156095   0.853   3.532   2.230  0.9279  1.5861 -0.2185
11560TIP3    H256096   0.809   3.552   2.373 -0.2204  2.6188 -0.6955
11561TIP3   OH256097   2.184   3.984   2.704  0.0934 -0.2163  0.6843
11561TIP3    H156098   2.139   3.990   2.620  1.3567  2.8789  0.0854
11561TIP3    H256099   2.274   4.013   2.685 -0.0290  2.3592  3.3205
11562TIP3   OH256100   6.751   4.536   5.363  0.1821  0.3244 -0.0217
11562TIP3    H156101   6.762   4.448   5.400 -0.1092  0.1113 -0.4231
11562TIP3    H256102   6.671   4.530   5.312  0.2815  0.7639 -0.2338
11563TIP3   OH256103   2.182   1.205   1.758  0.3250 -0.6918 -0.2853
11563TIP3    H156104   2.211   1.223   1.669 -2.6518 -0.5607 -1.3302
11563TIP3    H256105   2.215   1.278   1.810  1.3294 -0.3122 -1.4342
11564TIP3   OH256106   2.082   0.303  11.386 -0.6799 -0.1282 -0.0987
11564TIP3    H156107   2.060   0.392  11.413  0.5055 -0.0158  0.5423
11564TIP3    H256108   2.167   0.286  11.425 -0.4786 -1.2228 -0.9595
11565TIP3   OH256109   0.101   4.174   5.078  0.3278  0.0953  0.8451
11565TIP3    H156110   0.047   4.252   5.090  1.2960  0.6422  1.9092
11565TIP3    H256111   0.088   4.149   4.987 -1.8465  0.0742  1.1033
11566TIP3   OH256112   1.461   5.248   3.991  0.1138 -0.5278  0.1213
11566TIP3    H156113   1.508   5.326   3.960 -1.8684  0.7509  0.1568
11566TIP3    H256114   1.461   5.257   4.086 -0.1772 -0.5227  0.1218
11567TIP3   OH256115   6.541   1.885  15.761  0.2967  0.1140  0.1676
11567TIP3    H156116   6.480   1.956  15.742 -0.0293  0.0070  0.7740
11567TIP3    H256117   6.510   1.812  15.708 -0.0450  0.0936  0.3888
11568TIP3   OH256118   3.887   4.258  17.154 -0.3247 -0.2675 -0.2016
11568TIP3    H156119   3.816   4.208  17.113  0.1255  1.1499 -3.0087
11568TIP3    H256120   3.960   4.197  17.158 -1.6361 -1.8071  2.9160
11569TIP3   OH256121   1.549   1.083   5.230  0.3252 -0.2413 -0.0980
11569TIP3    H156122   1.474   1.105   5.175  0.3765  1.6367  0.4996
11569TIP3    H256123   1.520   1.107   5.319  0.0442 -3.6529  0.8504
11570TIP3   OH256124   3.859   1.774  15.726  0.1221  0.0748  0.3488
11570TIP3    H156125   3.881   1.681  15.731 -1.2520 -0.4651 -1.9419
11570TIP3    H256126   3.781   1.783  15.781 -0.3454 -0.3875 -0.2178
11571TIP3   OH256127   4.039   5.636  10.742  0.2082  0.0253 -0.6772
11571TIP3    H156128   4.019   5.693  10.816 -1.1737 -2.4807  1.0050
11571TIP3    H256129   4.055   5.697  10.669  0.3520  2.5542  1.3174
11572TIP3   OH256130   5.793   2.202   4.091 -0.1809  0.2455  0.2812
11572TIP3    H156131   5.729   2.217   4.023 -1.3507 -1.2825  0.9820
11572TIP3    H256132   5.766   2.258   4.163 -1.9537 -1.7370  1.2802
11573TIP3   OH256133   4.885   4.413  14.700 -0.3187 -0.3774 -0.3345
11573TIP3    H156134   4.950   4.428  14.769  0.7851  1.0998 -1.6364
11573TIP3    H256135   4.915   4.466  14.626 -2.4325 -0.4991 -1.3587
11574TIP3   OH256136   0.830   3.912   3.481 -0.1724  0.0355  0.1074
11574TIP3    H156137   0.845   3.851   3.553 -2.4901  0.4084  0.9964
11574TIP3    H256138   0.735   3.920   3.476 -0.0062  1.6259 -1.6603
11575TIP3   OH256139   0.692   5.682  13.654  0.5307 -0.3140  0.1237
11575TIP3    H156140   0.754   5.652  13.720  0.3820  0.0469  0.4314
11575TIP3    H256141   0.746   5.725  13.588  0.5246  0.9612  0.9220
11576TIP3   OH256142   5.048   2.321  13.695 -0.0816  0.8391 -0.3082
11576TIP3    H156143   4.994   2.315  13.616 -0.5541  1.5636 -0.0477
11576TIP3    H256144   4.999   2.380  13.753  0.2665  0.3315  0.5198
11577TIP3   OH256145   0.574   5.893   2.096 -0.5771 -0.1158 -0.5936
11577TIP3    H156146   0.518   5.896   2.173 -0.9693  1.6429 -0.9117
11577TIP3    H256147   0.615   5.979   2.093  1.6374 -1.1045 -0.7601
11578TIP3   OH256148   4.887   3.287   4.148 -0.1244 -0.7378 -0.0396
11578TIP3    H156149   4.813   3.333   4.107 -0.0951  0.2431  0.9709
11578TIP3    H256150   4.954   3.284   4.080 -0.8238 -1.0023 -0.7389
11579TIP3   OH256151   2.123   1.384  14.829  0.1266 -0.4672  0.1247
11579TIP3    H156152   2.188   1.397  14.760  1.3623  0.4973  1.4065
11579TIP3    H256153   2.122   1.290  14.845 -0.3844 -0.7431 -1.3566
11580TIP3   OH256154   0.659   6.747   0.027  0.1128  0.2998 -0.3305
11580TIP3    H156155   0.725   6.680   0.045 -0.0280 -0.0647 -1.1358
11580TIP3    H256156   0.704   6.811  -0.028 -0.3598 -0.2645 -1.4040
11581TIP3   OH256157   4.353   0.537   0.050  0.8736  0.3715 -0.3020
11581TIP3    H156158   4.393   0.564   0.133  2.8269  0.0264 -1.0645
11581TIP3    H256159   4.407   0.579  -0.017 -2.0363  2.5818 -1.4863
11582TIP3   OH256160   1.475   3.609  12.857  0.5844 -0.1074  0.5671
11582TIP3    H156161   1.563   3.571  12.852  0.3618 -0.5908  0.1758
11582TIP3    H256162   1.434   3.565  12.932  1.2192  1.3203  1.8052
11583TIP3   OH256163   0.692   0.195  14.524 -0.2430 -0.3070  0.3203
11583TIP3    H156164   0.692   0.128  14.456 -1.5314 -0.2309  0.2242
11583TIP3    H256165   0.692   0.278  14.476  1.0970 -0.2109  0.4401
11584TIP3   OH256166   4.149   0.903   6.164 -0.9846  0.0301 -0.0252
11584TIP3    H156167   4.168   0.911   6.257  1.2469 -1.4181 -0.2808
11584TIP3    H256168   4.125   0.811   6.152  0.3887 -0.2075 -1.1172
11585TIP3   OH256169   4.732   0.537  16.163  0.4456 -0.1281 -0.0943
11585TIP3    H156170   4.646   0.577  16.146  0.0698 -0.4922  0.8973
11585TIP3    H256171   4.717   0.478  16.236  0.5786 -3.4156 -2.4749
11586TIP3   OH256172   2.915   6.773  11.281 -0.5371 -0.2819  0.0698
11586TIP3    H156173   2.907   6.691  11.232 -1.7884 -0.0295 -0.1841
11586TIP3    H256174   2.902   6.842  11.216  1.1204  0.1602  0.1692
11587TIP3   OH256175   0.508   3.406  15.233 -0.0368 -0.2611  0.1752
11587TIP3    H156176   0.454   3.339  15.274  0.8664 -1.5688 -0.6801
11587TIP3    H256177   0.470   3.419  15.147  0.8782 -1.0582 -0.3642
11588TIP3   OH256178   1.039   5.593  11.051 -0.5345 -0.4690  0.2551
11588TIP3    H156179   1.115   5.570  10.997 -1.5356 -0.7208 -1.1069
11588TIP3    H256180   0.968   5.538  11.016 -1.9749  1.6197 -0.2883
11589TIP3   OH256181   5.960   0.773  15.000  0.6807 -0.1627  0.3020
11589TIP3    H156182   6.052   0.786  15.025  0.9614  0.2690 -0.8720
11589TIP3    H256183   5.910   0.818  15.068  1.2629 -1.4504  1.6356
11590TIP3   OH256184   4.865   2.008   1.393 -0.2119  0.0698 -0.0808
11590TIP3    H156185   4.943   2.002   1.448 -0.2349 -0.6944 -0.1299
11590TIP3    H256186   4.802   1.948   1.433  0.1357 -1.3293 -1.5192
11591TIP3   OH256187   2.760   6.063  14.876 -0.5258 -0.3359  0.2976
11591TIP3    H156188   2.750   5.970  14.856  1.1755 -0.3855 -0.5186
11591TIP3    H256189   2.752   6.068  14.971 -1.6534 -1.1542  0.2633
11592TIP3   OH256190   3.161   2.806  16.404 -0.0219  0.5929  0.3403
11592TIP3    H156191   3.152   2.854  16.486  0.8249  0.0650  0.7581
11592TIP3    H256192   3.177   2.715  16.432 -1.5530  0.0578 -0.4191
11593TIP3   OH256193   0.042   6.593  12.189 -0.1923 -0.6441 -0.2314
11593TIP3    H156194   0.024   6.666  12.248  1.1547 -0.8535  0.4963
11593TIP3    H256195   0.000   6.517  12.230 -1.3955 -0.3474 -0.8696
11594TIP3   OH256196   5.130   2.496  11.337  0.0726  0.3211 -0.4798
11594TIP3    H156197   5.149   2.575  11.287  0.0867 -0.1465 -1.2236
11594TIP3    H256198   5.036   2.480  11.324 -0.3225  1.1551  1.0580
11595TIP3   OH256199   1.013   0.324   0.198 -0.0889  0.3153 -0.1644
11595TIP3    H156200   1.084   0.387   0.199 -2.9058  3.8029 -0.4706
11595TIP3    H256201   1.008   0.294   0.107  0.7198  0.3228 -0.2155
11596TIP3   OH256202   1.009   1.286   3.025  0.2693  0.4726 -0.0484
11596TIP3    H156203   0.956   1.208   3.012  2.4000 -1.4236  1.8387
11596TIP3    H256204   1.094   1.265   2.988  0.2948  2.8614 -1.6144
11597TIP3   OH256205   3.742   0.039   3.201 -0.1052 -0.5807 -0.0738
11597TIP3    H156206   3.739  -0.056   3.205 -0.5890 -0.6410 -1.3769
11597TIP3    H256207   3.651   0.066   3.187  0.0886  0.0315 -0.2086
11598TIP3   OH256208   1.617   3.196   5.408 -0.2633  0.8664  0.2054
11598TIP3    H156209   1.697   3.165   5.365 -0.6824 -0.8579  0.5918
11598TIP3    H256210   1.646   3.269   5.463  1.1812 -0.1374  0.8405
11599TIP3   OH256211   2.901   3.581  14.058  0.0686 -0.1087 -0.3257
11599TIP3    H156212   2.939   3.550  13.975 -0.5069 -1.2046 -0.1989
11599TIP3    H256213   2.854   3.505  14.092  0.4739  0.2719  1.1193
11600TIP3   OH256214   4.520   6.196   4.241 -0.1267 -0.4252 -0.4901
11600TIP3    H156215   4.518   6.155   4.154 -1.9562 -0.7933 -0.3157
11600TIP3    H256216   4.608   6.233   4.248  0.4742 -1.4632 -1.9945
11601TIP3   OH256217   0.199   0.929  14.741  0.3181  0.3351  0.0824
11601TIP3    H156218   0.273   0.981  14.709  0.9209 -1.7073 -2.1933
11601TIP3    H256219   0.208   0.929  14.836  0.3922  4.0722  0.1969
11602TIP3   OH256220   6.120   6.092  13.057  0.1977 -0.1801  0.4208
11602TIP3    H156221   6.209   6.107  13.087  0.4806 -1.5100  0.2918
11602TIP3    H256222   6.129   6.075  12.963 -0.5700  2.9559 -0.3403
11603TIP3   OH256223   1.068   3.406  14.616  0.0757 -0.3736  0.2630
11603TIP3    H156224   1.089   3.378  14.706  1.0865  0.1643  0.2122
11603TIP3    H256225   0.997   3.348  14.589  0.8955 -1.6947  0.8040
11604TIP3   OH256226   2.183   4.273  15.227 -0.0721  0.7668 -0.6660
11604TIP3    H156227   2.097   4.304  15.253 -0.5747 -0.0824 -1.2546
11604TIP3    H256228   2.243   4.345  15.248 -1.1176  1.9701 -1.6250
11605TIP3   OH256229   5.962   2.633  13.488 -0.0660 -0.0409 -0.3687
11605TIP3    H156230   6.052   2.600  13.490  0.1581  0.5089 -0.9284
11605TIP3    H256231   5.908   2.555  13.502  0.4736 -0.5057 -0.8131
11606TIP3   OH256232   0.840   6.316   5.615  0.0277  0.1690  0.2562
11606TIP3    H156233   0.903   6.309   5.543  0.8008 -0.1743  0.9642
11606TIP3    H256234   0.787   6.237   5.608  1.4572 -0.9213  1.3233
11607TIP3   OH256235   1.417   2.964  15.995  0.0116 -0.0209  0.2830
11607TIP3    H156236   1.390   3.050  16.026 -2.7943  0.1772 -2.2624
11607TIP3    H256237   1.501   2.980  15.952  0.6680  0.9233  1.8354
11608TIP3   OH256238   3.100   4.490   4.907 -0.0411 -0.3705  0.1681
11608TIP3    H156239   3.012   4.468   4.939  0.7178 -3.0691  0.5988
11608TIP3    H256240   3.159   4.448   4.969  1.5848  0.7932 -0.5242
11609TIP3   OH256241   3.740   6.401  13.195 -0.0273 -0.3488  0.3483
11609TIP3    H156242   3.645   6.405  13.208 -0.1695  0.4260 -0.7931
11609TIP3    H256243   3.772   6.353  13.271 -1.6041 -2.8591 -0.4430
11610TIP3   OH256244   0.890   6.617   4.430  0.0061 -0.0224 -0.0645
11610TIP3    H156245   0.856   6.559   4.362 -2.6367  0.2221  0.9528
11610TIP3    H256246   0.877   6.705   4.396 -2.5354  0.1532  1.1870
11611TIP3   OH256247   2.531   1.342   2.060  0.2451 -0.2354  0.4747
11611TIP3    H156248   2.537   1.327   1.966 -0.6840  0.4834  0.2847
11611TIP3    H256249   2.533   1.255   2.099  2.2497 -0.4911 -0.0746
11612TIP3   OH256250   5.298   3.234  14.766  0.1450 -0.6229 -0.2201
11612TIP3    H156251   5.381   3.199  14.736  1.0432 -0.3854  1.8017
11612TIP3    H256252   5.303   3.328  14.748  0.0669 -0.6952 -0.6231
11613TIP3   OH256253   1.452   2.547  17.149 -0.0842 -0.2063  0.5841
11613TIP3    H156254   1.412   2.499  17.222 -1.3376 -2.3005 -1.3483
11613TIP3    H256255   1.405   2.516  17.071  0.3478  2.8151 -1.0523
11614TIP3   OH256256   2.552   0.586  14.213 -0.0544 -0.0572 -0.6759
11614TIP3    H156257   2.541   0.494  14.238  1.3596  0.0380  0.3625
11614TIP3    H256258   2.500   0.634  14.277 -3.0777 -0.1643 -2.7761
11615TIP3   OH256259   3.350   4.948  15.662  0.4225 -0.0842  0.2851
11615TIP3    H156260   3.346   5.014  15.593 -1.2519 -1.5100 -1.0872
11615TIP3    H256261   3.302   4.873  15.627  0.0039 -1.1098  2.7880
11616TIP3   OH256262   2.344   4.399   3.047  0.5627  0.3029  0.3805
11616TIP3    H156263   2.370   4.336   2.980  0.9834 -0.1720  0.9793
11616TIP3    H256264   2.262   4.436   3.015  1.9720  1.9006 -1.6037
11617TIP3   OH256265   2.133   1.557  15.075 -0.1944  0.2474  0.2102
11617TIP3    H156266   2.148   1.651  15.063 -0.1041  0.1636 -0.3990
11617TIP3    H256267   2.135   1.521  14.986 -0.3521 -0.3136  0.4262
11618TIP3   OH256268   2.765   5.601   3.912 -0.0905  0.4692 -0.1973
11618TIP3    H156269   2.786   5.543   3.986  0.3763  0.1719 -0.5507
11618TIP3    H256270   2.799   5.554   3.835 -2.3218 -0.1770 -0.8576
11619TIP3   OH256271   2.755   5.256  10.992 -0.1221  0.4442 -0.4270
11619TIP3    H156272   2.747   5.295  10.906  0.5030 -0.5869 -0.9718
11619TIP3    H256273   2.819   5.186  10.981  0.3451  0.6196  0.9873
11620TIP3   OH256274   3.265   4.102  12.867  0.4008 -0.0113 -0.0085
11620TIP3    H156275   3.339   4.159  12.888 -0.2064  0.3840  1.1247
11620TIP3    H256276   3.189   4.148  12.901 -0.4530 -0.1674 -1.5988
11621TIP3   OH256277   0.568   5.301  16.590 -0.4845  0.1431  0.2130
11621TIP3    H156278   0.554   5.281  16.497 -1.5316 -1.0259  0.5892
11621TIP3    H256279   0.634   5.237  16.618 -0.0680  0.5857  0.2438
11622TIP3   OH256280   2.635   3.775   6.217 -0.0112  0.1145 -0.3071
11622TIP3    H156281   2.560   3.775   6.157 -1.1357  1.3198  1.0105
11622TIP3    H256282   2.699   3.833   6.175 -0.4870  0.3638 -0.7014
11623TIP3   OH256283   5.237   3.876  16.943  0.1897 -0.4130  0.1686
11623TIP3    H156284   5.195   3.893  17.027  1.0494 -0.9357  0.7124
11623TIP3    H256285   5.280   3.958  16.920 -0.2596 -0.1913  0.1085
11624TIP3   OH256286   4.075   1.361  17.209 -0.0313  0.6544  0.6213
11624TIP3    H156287   4.078   1.456  17.198 -0.1596  0.7037  1.0096
11624TIP3    H256288   4.126   1.344  17.288  0.2576  0.3694  0.3776
11625TIP3   OH256289   3.489   1.392   6.428 -0.4112 -0.3882 -0.5545
11625TIP3    H156290   3.559   1.418   6.488 -0.8029 -0.7428  0.0641
11625TIP3    H256291   3.532   1.329   6.369  0.7648  2.1788 -2.6163
11626TIP3   OH256292   1.208   5.745  13.951  0.1481  0.6557  0.2567
11626TIP3    H156293   1.212   5.666  14.004  0.9107  0.0046 -0.7581
11626TIP3    H256294   1.280   5.799  13.982 -0.7274  1.2393  1.3554
11627TIP3   OH256295   3.340   5.365   2.290 -0.1786  0.3905 -0.1807
11627TIP3    H156296   3.364   5.326   2.375  4.3896 -1.6981 -2.0456
11627TIP3    H256297   3.266   5.312   2.260 -0.5385 -0.2006  1.5852
11628TIP3   OH256298   1.628   1.771  16.768 -0.8242 -0.0156  0.0018
11628TIP3    H156299   1.677   1.692  16.789 -2.4551 -1.4240 -1.2584
11628TIP3    H256300   1.668   1.803  16.688 -2.2684 -1.5197 -1.3800
11629TIP3   OH256301   4.487   1.563  14.831  0.4755  0.1673  0.2577
11629TIP3    H156302   4.400   1.578  14.794  0.5482 -1.4631 -0.6638
11629TIP3    H256303   4.473   1.563  14.926 -0.8156 -1.4968  0.1136
11630TIP3   OH256304   2.466   6.093  11.435 -0.8168 -0.1127 -0.8762
11630TIP3    H156305   2.472   6.187  11.454 -1.3615 -0.1334 -0.6060
11630TIP3    H256306   2.556   6.061  11.446 -1.1170 -0.2280  2.2114
11631TIP3   OH256307   2.668   4.421  11.065  0.1212 -0.2244  0.1298
11631TIP3    H156308   2.736   4.489  11.065  1.0168 -1.0887  0.4387
11631TIP3    H256309   2.673   4.381  10.978 -1.2608  0.8936 -0.5079
11632TIP3   OH256310   6.162   0.852   4.593 -0.3589  0.2710  0.1787
11632TIP3    H156311   6.246   0.899   4.598  0.0168 -0.4740  1.0833
11632TIP3    H256312   6.130   0.870   4.504  1.2713 -0.3150 -0.5667
11633TIP3   OH256313   0.887   3.417   5.799  0.1883  0.3130 -0.6879
11633TIP3    H156314   0.875   3.349   5.866  0.3510  1.7071  0.8193
11633TIP3    H256315   0.801   3.456   5.789  0.5436  1.3850  0.1829
11634TIP3   OH256316   1.492   1.637   3.981  0.2982 -0.1346 -0.4099
11634TIP3    H156317   1.567   1.579   3.994  0.3529  0.4522  2.5057
11634TIP3    H256318   1.456   1.611   3.896  1.3318 -3.2446 -0.0229
11635TIP3   OH256319   3.275   1.231  12.923  0.4632  0.5403  0.3113
11635TIP3    H156320   3.262   1.136  12.915 -0.0269  0.6710 -0.6400
11635TIP3    H256321   3.191   1.264  12.955  0.0862  0.8177 -0.9080
11636TIP3   OH256322   5.756   6.457   2.390  0.0270 -0.1352  0.4049
11636TIP3    H156323   5.705   6.471   2.310  0.3674  0.8241  0.3437
11636TIP3    H256324   5.718   6.518   2.453  1.4726  1.0323  0.1817
11637TIP3   OH256325   6.490   2.792   0.217 -0.2595  0.3460  0.3049
11637TIP3    H156326   6.474   2.826   0.305  0.8513 -0.0855  0.6960
11637TIP3    H256327   6.465   2.700   0.222 -0.9047  0.4939 -0.0539
11638TIP3   OH256328   4.569   5.515  15.701 -0.6152 -0.2490 -0.3760
11638TIP3    H156329   4.586   5.425  15.730  1.4942 -0.2112 -1.3435
11638TIP3    H256330   4.606   5.570  15.770  2.4798 -0.1744 -1.9266
11639TIP3   OH256331   0.102   2.357  16.288 -0.3917 -0.3564  0.4107
11639TIP3    H156332   0.060   2.440  16.265 -1.0707 -0.7853  0.0833
11639TIP3    H256333   0.100   2.306  16.207 -1.2954 -1.2432  0.9618
11640TIP3   OH256334   3.593   2.468  16.905 -0.4809 -0.1907  0.2985
11640TIP3    H156335   3.657   2.451  16.836 -2.1231  0.9409 -1.5986
11640TIP3    H256336   3.630   2.542  16.954  0.7298 -1.0501  0.7304
11641TIP3   OH256337   3.612   1.595   3.237  0.6358  0.3294  0.4680
11641TIP3    H156338   3.593   1.653   3.163  1.9044  0.8616  0.5454
11641TIP3    H256339   3.618   1.508   3.197  0.4846  0.4910  0.0811
11642TIP3   OH256340   3.990   3.607   4.424 -0.0495 -0.8734 -0.1096
11642TIP3    H156341   3.954   3.585   4.338 -1.3592  1.2835 -0.1760
11642TIP3    H256342   4.058   3.672   4.405 -0.1241 -0.6299  0.4468
11643TIP3   OH256343   0.203   2.721   0.530 -0.3344  0.7668 -0.3802
11643TIP3    H156344   0.125   2.666   0.534  1.4136 -1.8744 -0.1914
11643TIP3    H256345   0.248   2.704   0.613  0.6898  1.8906 -0.6765
11644TIP3   OH256346   4.312   2.238   1.830 -0.4598 -0.3509 -0.6118
11644TIP3    H156347   4.247   2.194   1.886  0.1713 -0.7324 -0.1697
11644TIP3    H256348   4.268   2.246   1.745 -0.3745 -2.4743 -0.9170
11645TIP3   OH256349   6.020   3.116  12.526  0.4545  0.1370 -0.0251
11645TIP3    H156350   6.018   3.157  12.612  1.9105 -0.6111  0.3965
11645TIP3    H256351   6.022   3.190  12.464  0.9927  0.6886  0.6360
11646TIP3   OH256352   0.226   2.609  16.120 -0.4739 -0.4400  0.0390
11646TIP3    H156353   0.226   2.687  16.065  0.6634 -1.5610 -1.6615
11646TIP3    H256354   0.134   2.580  16.121 -0.5348 -0.3441 -1.2334
11647TIP3   OH256355   1.426   2.229  13.613 -0.0677 -0.3119  0.1268
11647TIP3    H156356   1.428   2.255  13.521  0.5860 -0.4580  0.0942
11647TIP3    H256357   1.515   2.200  13.632 -0.1915 -0.2771  0.8080
11648TIP3   OH256358   0.772   6.279   2.586  0.1619 -0.3713 -0.1487
11648TIP3    H156359   0.766   6.264   2.681  0.4609  0.9225  0.0978
11648TIP3    H256360   0.862   6.306   2.571 -0.2561  0.9318 -0.5371
11649TIP3   OH256361   3.151   4.572   3.772 -0.0436 -0.1286  0.1387
11649TIP3    H156362   3.088   4.527   3.716 -1.0043  0.0675  1.0158
11649TIP3    H256363   3.236   4.551   3.735 -0.6056 -0.6982 -0.8710
11650TIP3   OH256364   6.372   1.252  12.671 -0.3641 -0.0234 -0.0218
11650TIP3    H156365   6.300   1.308  12.700  0.7688  1.7284 -0.4342
11650TIP3    H256366   6.379   1.270  12.577  1.3745  0.8161  0.2190
11651TIP3   OH256367   6.729   5.968  14.039 -0.2170  0.7128  0.3524
11651TIP3    H156368   6.761   5.878  14.042 -0.8758  0.4510 -0.2402
11651TIP3    H256369   6.790   6.017  14.095  1.0812  0.1995 -0.5606
11652TIP3   OH256370   2.582   1.579   1.311 -0.8317 -0.0054  0.2500
11652TIP3    H156371   2.548   1.509   1.368  0.3143 -0.4156  0.4681
11652TIP3    H256372   2.540   1.564   1.227  1.8925 -3.1593 -0.7661
11653TIP3   OH256373   6.686   5.158  16.967  0.4572 -0.0148  0.1870
11653TIP3    H156374   6.621   5.221  16.934  0.3186 -0.8471 -1.2074
11653TIP3    H256375   6.769   5.190  16.933  0.0507 -2.3692 -3.6920
11654TIP3   OH256376   5.298   1.885  12.778 -0.4953 -0.1845 -0.5129
11654TIP3    H156377   5.384   1.877  12.817 -0.0759  1.3766 -1.0253
11654TIP3    H256378   5.237   1.879  12.851  0.1289  0.1798  0.0424
11655TIP3   OH256379   6.746   1.373   4.271 -0.9904  0.0894 -0.8097
11655TIP3    H156380   6.741   1.293   4.218 -1.9021 -1.0496  0.9148
11655TIP3    H256381   6.700   1.439   4.219 -0.7226 -0.6378 -2.0157
11656TIP3   OH256382   4.830   4.717  15.201 -0.1177  0.2424 -0.3085
11656TIP3    H156383   4.876   4.797  15.175 -1.8406  1.9132  1.4687
11656TIP3    H256384   4.872   4.690  15.283  0.0520 -0.3332 -0.5795
11657TIP3   OH256385   5.284   6.227   0.353  0.3508  0.1647 -0.1600
11657TIP3    H156386   5.292   6.248   0.446 -0.0216  0.6163 -0.2295
11657TIP3    H256387   5.374   6.217   0.323  0.4590 -0.5947  0.3852
11658TIP3   OH256388   1.122   4.087  17.133 -0.2462  0.2327 -0.2090
11658TIP3    H156389   1.192   4.077  17.198  0.5179  0.6116 -0.9404
11658TIP3    H256390   1.165   4.130  17.059 -1.2138  0.2669 -0.7673
11659TIP3   OH256391   6.429   4.592   1.025  0.1685 -0.3662 -0.1280
11659TIP3    H156392   6.438   4.686   1.008 -2.4820 -0.2363 -1.3352
11659TIP3    H256393   6.488   4.550   0.963  1.5770  0.4593  0.5991
11660TIP3   OH256394   0.655   0.787  13.248  0.1305 -0.3939 -0.1037
11660TIP3    H156395   0.591   0.818  13.183 -0.8048 -1.1907  0.4135
11660TIP3    H256396   0.716   0.860  13.258 -0.0901 -0.0146 -1.3936
11661TIP3   OH256397   0.511   4.703  16.844  0.2999  0.0744 -0.2181
11661TIP3    H156398   0.537   4.792  16.823  0.1265  0.2028  0.1068
11661TIP3    H256399   0.581   4.669  16.900  0.9227 -0.3777 -1.2499
11662TIP3   OH256400   3.566   4.576  13.266  0.1593  0.1148  0.0127
11662TIP3    H156401   3.492   4.635  13.252  0.0305  0.2532  1.1740
11662TIP3    H256402   3.597   4.555  13.177  0.6347  2.4263 -0.4381
11663TIP3   OH256403   0.904   3.927  16.795  0.5337 -0.4494 -0.0377
11663TIP3    H156404   0.819   3.904  16.832  0.3324  0.2108 -0.0651
11663TIP3    H256405   0.885   3.999  16.734  1.0962 -0.3778 -0.1366
11664TIP3   OH256406   1.439   1.197  17.063  0.2401  0.3069 -0.5990
11664TIP3    H156407   1.487   1.115  17.051  1.2436  0.9419 -1.0195
11664TIP3    H256408   1.405   1.218  16.976 -0.2711  0.1874 -0.4307
11665TIP3   OH256409   1.684   5.630   5.497  0.3167 -0.0175  0.3693
11665TIP3    H156410   1.619   5.623   5.427  2.6300 -0.7750 -1.8439
11665TIP3    H256411   1.675   5.549   5.546 -1.0943  0.3591  0.7852
11666TIP3   OH256412   0.313   0.688   4.173  0.4663 -0.7811 -0.1996
11666TIP3    H156413   0.386   0.737   4.209 -0.4832  0.6912 -0.1955
11666TIP3    H256414   0.305   0.611   4.230  0.5124  0.2560  1.2632
11667TIP3   OH256415   1.130   3.338  14.865  0.3308 -0.4708 -0.7119
11667TIP3    H156416   1.170   3.377  14.942 -1.3475  0.9347 -0.5023
11667TIP3    H256417   1.062   3.279  14.901  0.7984 -1.2575 -1.0945
11668TIP3   OH256418   0.684   3.551  17.233  0.3663  0.1996 -0.2095
11668TIP3    H156419   0.699   3.499  17.312  0.3947  1.2920  0.5169
11668TIP3    H256420   0.722   3.636  17.252  0.0749  0.5872 -1.2788
11669TIP3   OH256421   5.437   3.915   1.192  0.0508 -0.3259  0.0312
11669TIP3    H156422   5.507   3.856   1.220 -0.2066 -0.2409  0.8517
11669TIP3    H256423   5.383   3.927   1.269  0.6377  1.7821  0.1672
11670TIP3   OH256424   3.062   6.283  16.655 -0.3057 -0.0294 -0.4798
11670TIP3    H156425   3.119   6.318  16.586  0.7552  0.8240  0.7899
11670TIP3    H256426   3.007   6.357  16.681 -2.1370 -0.8487 -1.7245
11671TIP3   OH256427   2.575   5.839  10.719  0.2662  0.3480  0.1543
11671TIP3    H156428   2.552   5.845  10.812  2.1607 -0.5812  0.7289
11671TIP3    H256429   2.597   5.929  10.694 -0.9672  0.7318  0.3756
11672TIP3   OH256430   5.210   6.690   2.450 -0.5785  0.0956  0.4071
11672TIP3    H156431   5.221   6.610   2.502 -2.3792 -0.4195  0.0504
11672TIP3    H256432   5.255   6.671   2.368  0.3104  0.0552  0.8848
11673TIP3   OH256433   3.333   0.405   5.727  0.2985 -0.7720 -0.5688
11673TIP3    H156434   3.308   0.404   5.819  1.1923  0.4372 -0.2907
11673TIP3    H256435   3.397   0.476   5.720 -1.1950  0.4939 -2.4773
11674TIP3   OH256436   4.735   6.429  12.211  0.6140  1.1655 -0.0099
11674TIP3    H156437   4.725   6.425  12.116  0.4064  0.8016  0.0244
11674TIP3    H256438   4.802   6.363  12.230 -1.1875 -0.6616  0.3457
11675TIP3   OH256439   2.658   2.645   5.449  0.1668 -0.2815 -0.3078
11675TIP3    H156440   2.732   2.586   5.463  0.8657  0.4236 -0.8951
11675TIP3    H256441   2.625   2.622   5.362 -0.3160 -0.5973 -0.0446
11676TIP3   OH256442   5.745   1.984   2.278  0.2079 -0.0050  0.4383
11676TIP3    H156443   5.829   1.982   2.233  0.2229  0.5063  0.4426
11676TIP3    H256444   5.684   2.021   2.214 -0.5019 -2.3843 -0.3698
11677TIP3   OH256445   0.757   2.926   3.025  0.7207 -0.4775  0.0492
11677TIP3    H156446   0.818   2.858   2.996  1.1973 -0.0080 -0.0685
11677TIP3    H256447   0.804   2.972   3.095 -0.1104 -1.1029  1.0541
11678TIP3   OH256448   0.787   2.346  13.189  0.3975 -0.1491  0.3713
11678TIP3    H156449   0.801   2.252  13.193 -1.2593 -0.3802  1.0713
11678TIP3    H256450   0.724   2.359  13.118  0.4580  0.4193  0.4103
11679TIP3   OH256451   4.345   4.363   0.921  0.2328  0.0310 -0.6531
11679TIP3    H156452   4.370   4.426   0.853 -1.2493 -0.3388 -1.6052
11679TIP3    H256453   4.272   4.314   0.882 -0.7985 -0.0665  1.2843
11680TIP3   OH256454   3.684   0.854   0.175  0.1662  0.0954  0.3007
11680TIP3    H156455   3.598   0.826   0.145 -0.5211 -0.0276  2.2709
11680TIP3    H256456   3.690   0.946   0.148 -0.3565 -0.0303 -0.2649
11681TIP3   OH256457   1.890   2.054   1.850 -0.0400 -0.0234  0.5395
11681TIP3    H156458   1.844   2.049   1.934  0.6243 -2.9087  0.8465
11681TIP3    H256459   1.913   1.964   1.830  0.2631  0.6194 -2.5608
11682TIP3   OH256460   0.940   3.935   3.915 -0.2472  0.5503 -0.5723
11682TIP3    H156461   0.909   3.880   3.843  0.6814  0.9736 -1.3141
11682TIP3    H256462   0.889   4.016   3.906  0.8942  1.1913 -1.7076
11683TIP3   OH256463   4.007   6.453   0.102  0.1081  0.0883  0.2757
11683TIP3    H156464   3.969   6.440   0.015 -0.2782  0.4565  0.3880
11683TIP3    H256465   3.968   6.385   0.156  0.4116 -0.1928  0.1417
11684TIP3   OH256466   6.204   4.472   2.070 -0.1740 -0.9556  0.0237
11684TIP3    H156467   6.247   4.386   2.072  0.1205 -0.8144 -0.1450
11684TIP3    H256468   6.228   4.508   1.985 -2.8162 -1.9943 -1.3091
11685TIP3   OH256469   4.256   4.284   3.522  0.2724  0.5558  0.3484
11685TIP3    H156470   4.196   4.209   3.517  0.1529  0.5923  1.1115
11685TIP3    H256471   4.321   4.267   3.453 -1.4178  1.2671 -1.5338
11686TIP3   OH256472   2.833   2.691  12.471 -0.0551 -0.0985  0.3706
11686TIP3    H156473   2.867   2.687  12.560  0.9336 -0.2337  0.0053
11686TIP3    H256474   2.836   2.784  12.449 -0.9487  0.0200  0.7070
11687TIP3   OH256475   1.551   2.521  13.472 -0.6276 -0.1602 -0.0470
11687TIP3    H156476   1.623   2.532  13.534 -1.6143  0.6421  0.9870
11687TIP3    H256477   1.571   2.439  13.427  1.3316  0.4309 -0.3432
11688TIP3   OH256478   1.580   0.802   2.464  0.3190  0.0144  0.1527
11688TIP3    H156479   1.657   0.846   2.499  1.0248 -1.6605  0.8297
11688TIP3    H256480   1.517   0.802   2.536  0.7016 -0.9039  0.5153
11689TIP3   OH256481   2.658   2.458  12.715  0.6973  0.3577 -0.3132
11689TIP3    H156482   2.667   2.434  12.623  2.6845 -2.2140  0.4595
11689TIP3    H256483   2.703   2.542  12.723  2.4301 -0.4445 -1.3159
11690TIP3   OH256484   1.182   5.943  14.937  0.1162  0.0821 -0.0878
11690TIP3    H156485   1.228   6.027  14.945 -0.0999  0.1303  0.6271
11690TIP3    H256486   1.245   5.886  14.892  0.8351  0.1848  0.7797
11691TIP3   OH256487   4.594   2.079   1.180 -0.2905  0.0128  0.1521
11691TIP3    H156488   4.521   2.038   1.226  0.3111  0.8234  1.9123
11691TIP3    H256489   4.648   2.006   1.151 -0.2015 -0.5259  1.5818
11692TIP3   OH256490   2.994   5.209  12.120 -0.3132 -0.1785 -0.6552
11692TIP3    H156491   2.996   5.286  12.176 -1.4571  0.3354 -1.3044
11692TIP3    H256492   3.025   5.138  12.177 -2.6260  0.0586  1.0660
11693TIP3   OH256493   4.089   3.286  13.981  0.2187 -0.5974 -0.0485
11693TIP3    H156494   4.060   3.276  14.072  2.1801 -1.3359  0.5264
11693TIP3    H256495   4.016   3.252  13.929 -0.7810 -0.4904  1.2426
11694TIP3   OH256496   0.428   6.043  16.040  0.5475  0.2848 -0.1376
11694TIP3    H156497   0.372   6.077  15.970  0.6665 -0.3163 -0.5253
11694TIP3    H256498   0.370   6.039  16.116 -0.1307 -0.9284 -0.6920
11695TIP3   OH256499   4.494   0.292  13.758 -0.0820 -0.0147 -0.3290
11695TIP3    H156500   4.552   0.338  13.819  0.7325 -1.2013 -0.1679
11695TIP3    H256501   4.465   0.360  13.696 -2.0761  1.5634  2.1318
11696TIP3   OH256502   4.599   5.574  11.718  0.3393  1.0378  0.2506
11696TIP3    H156503   4.572   5.542  11.804 -1.0760 -0.8625 -0.8049
11696TIP3    H256504   4.517   5.577  11.667  1.3301  0.5615 -1.4736
11697TIP3   OH256505   2.464   0.984   0.178 -0.1030 -0.6174  0.4897
11697TIP3    H156506   2.372   0.973   0.199  0.2893 -0.3594  2.5264
11697TIP3    H256507   2.472   1.075   0.151 -0.6463 -0.9917 -1.0236
11698TIP3   OH256508   1.606   1.934  16.140  0.1305  0.6481  0.1822
11698TIP3    H156509   1.534   1.924  16.078 -1.6789 -0.5111  2.3393
11698TIP3    H256510   1.564   1.957  16.223  2.3540  0.9937  1.2925
11699TIP3   OH256511   3.661   0.742  11.525  0.9909 -0.1470 -0.2979
11699TIP3    H156512   3.689   0.721  11.435  0.3870 -0.1314 -0.4899
11699TIP3    H256513   3.732   0.709  11.580  0.9922 -0.8809 -0.7302
11700TIP3   OH256514   4.923   4.947   6.531  0.0724  0.5996 -0.2359
11700TIP3    H156515   4.900   5.034   6.565 -0.3077 -0.4045  2.2653
11700TIP3    H256516   5.014   4.935   6.557  0.0139  0.0952 -0.2675
11701TIP3   OH256517   3.728   5.145  12.368 -0.0486 -0.3217  0.1892
11701TIP3    H156518   3.684   5.059  12.368 -1.1166  0.1312 -2.5709
11701TIP3    H256519   3.656   5.208  12.372  0.7477  0.5890  3.2558
11702TIP3   OH256520   1.847   2.701   0.117 -0.2277  0.7363  0.0823
11702TIP3    H156521   1.870   2.693   0.025 -0.2472 -2.1944  0.2426
11702TIP3    H256522   1.930   2.709   0.163  0.1115 -1.6699  0.0265
11703TIP3   OH256523   3.601   3.718   1.669  0.0834  0.1776 -0.1644
11703TIP3    H156524   3.638   3.645   1.618 -0.8001 -0.9916  0.8089
11703TIP3    H256525   3.594   3.790   1.607  0.2326 -0.8180 -1.3665
11704TIP3   OH256526   5.526   2.921  17.201 -0.0056  0.5104  0.0216
11704TIP3    H156527   5.555   2.910  17.291 -0.1710  0.8726  0.1190
11704TIP3    H256528   5.544   2.836  17.160 -1.1356 -0.1015  0.7267
11705TIP3   OH256529   0.895   0.502  16.124  0.4179 -0.1368  0.0958
11705TIP3    H156530   0.945   0.580  16.147  2.2507 -0.8655 -1.2102
11705TIP3    H256531   0.883   0.456  16.207  1.2572  0.4401  0.5498
11706TIP3   OH256532   3.265   5.677   5.771  0.1955  0.5662  0.1489
11706TIP3    H156533   3.325   5.700   5.842  0.5563  1.3615 -0.4015
11706TIP3    H256534   3.183   5.653   5.815  1.0781 -1.1979  0.9607
11707TIP3   OH256535   5.315   1.807  16.049  0.2138 -0.4682 -0.0282
11707TIP3    H156536   5.395   1.777  16.091  0.3333 -0.2304 -0.0854
11707TIP3    H256537   5.340   1.888  16.005 -0.5797  0.8243  1.7922
11708TIP3   OH256538   6.537   6.289  15.280 -0.3349 -0.1136  1.0259
11708TIP3    H156539   6.446   6.316  15.297 -0.6317 -0.0807 -0.4665
11708TIP3    H256540   6.544   6.203  15.320 -1.2674 -0.4480  0.4963
11709TIP3   OH256541   1.358   3.494  14.383  0.4129 -0.4255 -0.1195
11709TIP3    H156542   1.398   3.479  14.298 -0.2053 -1.8152 -0.1866
11709TIP3    H256543   1.420   3.456  14.446  0.1886 -0.7043 -0.0646
11710TIP3   OH256544   4.510   5.011  13.629 -0.1762 -0.0655  0.1022
11710TIP3    H156545   4.447   4.940  13.620 -1.0869  0.7500 -0.2242
11710TIP3    H256546   4.534   5.035  13.539 -0.7603  0.7753  0.1536
11711TIP3   OH256547   4.318   6.601  14.242  0.4468 -0.3626 -0.5818
11711TIP3    H156548   4.239   6.627  14.195 -0.4531 -2.6275 -0.4627
11711TIP3    H256549   4.291   6.590  14.333  1.2551  0.2021 -0.2576
11712TIP3   OH256550   1.371   2.655  10.961 -0.4730 -0.1872  0.3398
11712TIP3    H156551   1.390   2.589  10.894 -0.5096  0.1107  0.0374
11712TIP3    H256552   1.319   2.608  11.027 -1.0660 -0.2906 -0.1971
11713TIP3   OH256553   1.581   5.944   2.401  0.5565  0.0661 -0.6166
11713TIP3    H156554   1.648   5.919   2.465 -2.1401  3.2362  4.0638
11713TIP3    H256555   1.626   6.002   2.340  2.5310  0.5235  1.1614
11714TIP3   OH256556   2.516   0.064   5.213 -0.3680 -0.0951  0.0505
11714TIP3    H156557   2.430   0.024   5.212 -1.4666  2.0174  1.3347
11714TIP3    H256558   2.499   0.158   5.210  1.9848  0.3639 -1.4987
11715TIP3   OH256559   4.610   2.881  14.986 -0.1293  0.2234  0.3210
11715TIP3    H156560   4.601   2.824  14.909 -1.8630  0.1788  0.5250
11715TIP3    H256561   4.564   2.961  14.962  0.7960  0.8809  0.6974
11716TIP3   OH256562   2.071   0.490  12.071  0.0036 -0.0951 -0.1751
11716TIP3    H156563   2.038   0.565  12.022 -0.1391  1.0238  1.5119
11716TIP3    H256564   1.995   0.432  12.082 -0.4018  0.4946  0.1984
11717TIP3   OH256565   6.312   5.521   2.268 -0.7739 -0.4345  0.2071
11717TIP3    H156566   6.304   5.438   2.315  1.0164 -0.9317 -0.2959
11717TIP3    H256567   6.403   5.548   2.281 -1.4404  1.7263  0.7731
11718TIP3   OH256568   0.213   3.888   0.055  0.4666  0.0690  0.7601
11718TIP3    H156569   0.192   3.825  -0.014  1.8914 -1.3003  1.4998
11718TIP3    H256570   0.285   3.939   0.020  1.1589 -0.5951  1.1762
11719TIP3   OH256571   3.750   0.227  11.600  0.2873  0.0796 -0.0622
11719TIP3    H156572   3.766   0.241  11.693  0.5823 -0.2314 -0.0623
11719TIP3    H256573   3.689   0.153  11.597 -0.7856  0.9491 -0.0769
11720TIP3   OH256574   6.654   3.150  13.152  0.5176 -0.1350 -0.0486
11720TIP3    H156575   6.740   3.175  13.185  1.4458 -1.5189 -1.2948
11720TIP3    H256576   6.624   3.083  13.214  0.6668 -0.1969 -0.0436
11721TIP3   OH256577   6.436   0.426  13.418 -0.7424  0.1672  0.2914
11721TIP3    H156578   6.513   0.438  13.363  0.0717  0.1035  1.3816
11721TIP3    H256579   6.400   0.514  13.429 -0.3752  0.3063  0.3986
11722TIP3   OH256580   4.274   1.551  13.542 -0.1639  0.2207  1.0486
11722TIP3    H156581   4.186   1.534  13.575 -0.0380 -1.6724  0.5405
11722TIP3    H256582   4.293   1.642  13.567 -0.9128 -0.3684  4.1419
11723TIP3   OH256583   3.918   3.083   2.130  1.1712  0.1269 -0.0761
11723TIP3    H156584   3.906   3.095   2.035  0.2181  0.1535  0.0381
11723TIP3    H256585   3.855   3.015   2.153 -0.9233  2.3332  1.0761
11724TIP3   OH256586   6.473   0.383  12.654  0.4109  0.3746 -0.4931
11724TIP3    H156587   6.546   0.345  12.604  0.0182 -0.6780 -0.2965
11724TIP3    H256588   6.515   0.448  12.711  1.4931 -1.4524  0.9114
11725TIP3   OH256589   3.052   5.579   3.733 -0.4800  0.1457 -0.7721
11725TIP3    H156590   3.012   5.623   3.658  1.1567  1.4760 -0.9198
11725TIP3    H256591   2.994   5.600   3.806 -0.5813  1.2857 -1.1468
11726TIP3   OH256592   1.177   4.399   0.105 -0.6392  0.0341 -0.2027
11726TIP3    H156593   1.203   4.307   0.109 -4.0891 -1.0666  0.5550
11726TIP3    H256594   1.231   4.443   0.171  1.2432 -1.3377 -0.7471
11727TIP3   OH256595   3.467   3.719  15.390  0.0856 -0.3321 -0.4556
11727TIP3    H156596   3.429   3.718  15.302 -0.8761 -1.7757 -0.0624
11727TIP3    H256597   3.560   3.707  15.376 -0.1935 -1.7255 -1.2415
11728TIP3   OH256598   0.213   3.696   1.021 -0.0006 -0.4451 -0.2501
11728TIP3    H156599   0.166   3.614   1.037 -1.2608  0.4471  0.8473
11728TIP3    H256600   0.179   3.727   0.938 -0.7977 -0.1969  0.1609
11729TIP3   OH256601   0.379   1.571   4.035 -0.2639 -0.1623 -0.3342
11729TIP3    H156602   0.459   1.604   3.994  0.2831 -2.5005 -1.3271
11729TIP3    H256603   0.318   1.644   4.030  0.8729  0.7375 -2.3258
11730TIP3   OH256604   4.730   6.452  14.359  0.1457  0.0588  0.3395
11730TIP3    H156605   4.725   6.463  14.454 -0.2388 -0.9745  0.4530
11730TIP3    H256606   4.681   6.526  14.323  0.2679  0.4380  0.9441
11731TIP3   OH256607   4.745   6.709   3.385  0.1954 -0.3602 -0.1876
11731TIP3    H156608   4.756   6.779   3.449 -0.9496  0.2750 -0.6613
11731TIP3    H256609   4.742   6.753   3.300  0.4742 -1.0789 -0.5861
11732TIP3   OH256610   1.799   5.674   0.935 -0.5963 -0.6649  0.9164
11732TIP3    H156611   1.713   5.705   0.964 -0.5157  2.2970 -1.4743
11732TIP3    H256612   1.861   5.730   0.982 -0.1375 -0.7873  0.4592
11733TIP3   OH256613   4.888   5.053   1.900 -0.1421  0.2386 -0.1440
11733TIP3    H156614   4.923   5.125   1.952  0.8572  1.4923 -2.3696
11733TIP3    H256615   4.800   5.081   1.875  0.8818  1.7021 -2.5291
11734TIP3   OH256616   1.890   0.838  15.494 -0.5294  0.1623  0.0095
11734TIP3    H156617   1.927   0.917  15.534  0.4034 -0.3088  0.0967
11734TIP3    H256618   1.874   0.779  15.568 -0.2979 -0.1030 -0.1509
11735TIP3   OH256619   4.067   5.951   3.236  0.1193 -0.3310 -0.2556
11735TIP3    H156620   4.155   5.954   3.199 -0.8040 -1.0428 -2.7186
11735TIP3    H256621   4.026   5.874   3.196 -1.8693  0.4091  0.1949
11736TIP3   OH256622   2.045   3.961  11.987  0.3908  0.3301 -0.0939
11736TIP3    H156623   2.139   3.948  11.976  0.5600 -0.5290  1.9118
11736TIP3    H256624   2.005   3.908  11.919  1.3437  1.0976 -1.2853
11737TIP3   OH256625   1.939   2.378   3.572 -0.1120 -0.1675 -0.1284
11737TIP3    H156626   2.020   2.354   3.617  0.6528  1.9153 -0.2573
11737TIP3    H256627   1.959   2.368   3.479  0.2028  0.7972 -0.1822
11738TIP3   OH256628   4.248   0.846   4.873 -0.0438 -0.5214  0.1609
11738TIP3    H156629   4.168   0.896   4.889  0.1880 -0.0463 -0.1737
11738TIP3    H256630   4.280   0.824   4.961 -0.5379 -0.7219  0.2989
11739TIP3   OH256631   4.125   2.314  17.157 -0.1108  0.2477 -0.0704
11739TIP3    H156632   4.114   2.390  17.100 -0.2130  0.3193  0.0443
11739TIP3    H256633   4.037   2.291  17.184 -0.0044  0.7577  0.7654
11740TIP3   OH256634   5.704   0.479   0.005 -0.4233 -0.0340 -0.3281
11740TIP3    H156635   5.720   0.505  -0.085  1.5396 -0.6155 -0.1898
11740TIP3    H256636   5.785   0.436   0.033 -1.3665 -0.8355  1.3647
11741TIP3   OH256637   1.917   5.259   1.611  0.1050  0.5103  0.3971
11741TIP3    H156638   1.905   5.285   1.702  0.6314 -1.5548  1.1094
11741TIP3    H256639   1.995   5.203   1.612 -1.4419 -1.8208 -0.7900
11742TIP3   OH256640   6.728   6.243  11.605  0.1939  0.6816 -0.2352
11742TIP3    H156641   6.637   6.263  11.624  0.6021  1.8044  0.6706
11742TIP3    H256642   6.740   6.269  11.514 -0.8112 -1.1361 -0.9374
11743TIP3   OH256643   0.983   5.832  14.391  0.2871  0.0521 -0.0834
11743TIP3    H156644   1.052   5.889  14.358 -0.5115  1.5622  0.7454
11743TIP3    H256645   0.930   5.888  14.448 -1.6404 -1.0385 -0.6926
11744TIP3   OH256646   5.289   2.122   0.409 -0.5302  0.8119  0.3602
11744TIP3    H156647   5.260   2.179   0.338 -2.4109  1.1386  1.3375
11744TIP3    H256648   5.366   2.165   0.445  0.4287  0.6672 -1.4123
11745TIP3   OH256649   3.278   3.035   4.735  0.2727 -0.5316  0.6536
11745TIP3    H156650   3.333   3.075   4.802 -0.4001  0.2884  0.7295
11745TIP3    H256651   3.230   2.966   4.781 -0.1578  0.0045  1.0101
11746TIP3   OH256652   3.235   1.163   5.135  0.1003  0.6825  0.0558
11746TIP3    H156653   3.306   1.100   5.150 -0.3479  0.2504  0.4120
11746TIP3    H256654   3.274   1.230   5.080  0.0469 -0.9606 -2.1322
11747TIP3   OH256655   0.837   6.361  15.418 -0.5093  0.3645  0.7317
11747TIP3    H156656   0.920   6.401  15.445  0.1908 -1.5706  1.6451
11747TIP3    H256657   0.861   6.307  15.342 -1.1638  0.5707  0.3702
11748TIP3   OH256658   4.938   2.400   3.553  0.5002  0.2395  0.0366
11748TIP3    H156659   4.913   2.415   3.644  0.6457  1.6638 -0.1379
11748TIP3    H256660   5.008   2.335   3.557  2.2034  2.0462  1.1538
11749TIP3   OH256661   6.639   5.137   5.268 -0.4723 -0.2471 -0.0526
11749TIP3    H156662   6.703   5.189   5.318  1.0809  0.5448 -2.6778
11749TIP3    H256663   6.569   5.198   5.248  0.1093  0.1612 -0.9141
11750TIP3   OH256664   3.591   2.971   3.535  0.3139 -0.1697  1.0087
11750TIP3    H156665   3.499   2.971   3.507  0.3833  1.6835  0.6572
11750TIP3    H256666   3.625   2.886   3.505 -0.8609 -0.2115 -0.3248
11751TIP3   OH256667   0.118   1.611   1.041 -0.3770  0.1302 -0.1263
11751TIP3    H156668   0.154   1.554   1.108  0.6852  1.1120  0.1654
11751TIP3    H256669   0.028   1.627   1.069  0.3037  1.2549  1.6060
11752TIP3   OH256670   3.111   1.927   3.462  0.2720  0.5041  0.3866
11752TIP3    H156671   3.199   1.891   3.455 -0.4458 -1.3617  0.5326
11752TIP3    H256672   3.066   1.871   3.525 -1.0315  1.4003  0.2986
11753TIP3   OH256673   2.608   2.565  13.870  0.3793 -0.3693 -0.7037
11753TIP3    H156674   2.696   2.531  13.856  1.2006  0.8443  1.0146
11753TIP3    H256675   2.589   2.545  13.962 -0.5452  0.6626 -0.6440
11754TIP3   OH256676   3.969   4.502   4.830  0.7048 -0.1523 -0.5106
11754TIP3    H156677   4.051   4.515   4.877  0.8397 -1.4496 -0.3524
11754TIP3    H256678   3.926   4.588   4.832  1.5184  0.2505  0.4120
11755TIP3   OH256679   1.527   3.485   3.396  0.5924 -0.4133  0.1556
11755TIP3    H156680   1.551   3.416   3.335 -0.6432 -1.7063  1.0551
11755TIP3    H256681   1.467   3.443   3.458 -3.7698  2.3158 -1.6663
11756TIP3   OH256682   2.922   0.836  16.613  0.8391 -0.0198 -0.0910
11756TIP3    H156683   2.896   0.901  16.548  1.4059  0.8229  0.4927
11756TIP3    H256684   2.851   0.773  16.614  0.1846  0.6926 -0.5599
11757TIP3   OH256685   2.489   5.169  17.251  0.1305  0.2799  0.1770
11757TIP3    H156686   2.396   5.165  17.230 -0.2993 -0.9153  2.0451
11757TIP3    H256687   2.492   5.167  17.347  2.1237 -1.2139  0.1492
11758TIP3   OH256688   4.173   2.551   2.312 -0.2408 -0.1441  0.3980
11758TIP3    H156689   4.095   2.525   2.263  0.4026  0.7042 -1.1619
11758TIP3    H256690   4.189   2.479   2.373 -1.9870 -0.5113  0.4547
11759TIP3   OH256691   4.558   2.690   1.300  0.4460 -0.4490 -0.3727
11759TIP3    H156692   4.488   2.657   1.357  0.0387 -0.5257 -0.9086
11759TIP3    H256693   4.639   2.660   1.342  0.4059  2.3883  2.0822
11760TIP3   OH256694   1.721   3.097  13.356 -0.0241  0.4664 -0.0635
11760TIP3    H156695   1.711   3.190  13.339 -0.9735  0.7077  1.5843
11760TIP3    H256696   1.674   3.054  13.284 -1.0527  1.3079  0.0919
11761TIP3   OH256697   0.368   0.416  15.301 -0.3868  0.5368 -0.2017
11761TIP3    H156698   0.446   0.398  15.250 -0.0610 -0.7780  0.7005
11761TIP3    H256699   0.301   0.360  15.264  0.2219 -1.5402  1.6334
11762TIP3   OH256700   3.894   3.809   0.198 -0.5468 -0.0675 -0.3826
11762TIP3    H156701   3.812   3.768   0.224  0.3285 -1.4632  0.3099
11762TIP3    H256702   3.874   3.853   0.115 -1.7440 -1.2485 -0.7515
11763TIP3   OH256703   4.977   1.361   5.861  0.1821 -0.4831  0.2150
11763TIP3    H156704   5.036   1.337   5.790 -1.6910 -0.0244 -1.6262
11763TIP3    H256705   5.027   1.422   5.915  1.0049  0.9578 -2.0158
11764TIP3   OH256706   4.466   1.039  13.000  0.0277 -0.0253 -0.4924
11764TIP3    H156707   4.527   1.010  12.932 -1.0070  1.2863 -2.0385
11764TIP3    H256708   4.523   1.067  13.072  1.2079 -0.0424 -1.3816
11765TIP3   OH256709   3.533   6.214   0.603 -0.6986  0.3013 -0.1964
11765TIP3    H156710   3.515   6.305   0.627  0.6860  0.1755  1.5811
11765TIP3    H256711   3.620   6.197   0.639 -0.6621 -1.5394 -1.0511
11766TIP3   OH256712   0.467   6.461  12.383 -0.0010  0.0009 -0.4132
11766TIP3    H156713   0.418   6.528  12.431  0.3214 -0.2627  0.3009
11766TIP3    H256714   0.501   6.507  12.307 -2.2361 -0.0470 -1.5367
11767TIP3   OH256715   2.994   0.507   5.319  0.4570  0.1701 -0.4339
11767TIP3    H156716   3.026   0.521   5.408 -1.5800  1.2018  0.1900
11767TIP3    H256717   3.010   0.590   5.274  0.4992  0.0125 -0.7115
11768TIP3   OH256718   0.535   6.275  12.932  0.9710  0.3867  0.2459
11768TIP3    H156719   0.447   6.293  12.900  0.2653 -0.9304  1.3906
11768TIP3    H256720   0.581   6.239  12.856  0.6212  1.2751 -0.4114
11769TIP3   OH256721   5.258   1.224   2.118 -0.4143  0.2243 -0.2093
11769TIP3    H156722   5.171   1.250   2.086 -0.8075  1.5844  1.7619
11769TIP3    H256723   5.299   1.306   2.146 -0.1480 -0.7433  2.6165
11770TIP3   OH256724   4.828   1.032   4.628  0.1301  0.1129 -0.6543
11770TIP3    H156725   4.823   1.121   4.593  1.2122  0.2018 -0.6370
11770TIP3    H256726   4.902   0.993   4.581  0.7095 -0.2251  0.5010
11771TIP3   OH256727   2.228   1.660   0.269 -0.5020 -0.4200 -0.1430
11771TIP3    H156728   2.185   1.730   0.220 -1.6609 -1.4022 -0.5887
11771TIP3    H256729   2.205   1.580   0.221  1.2424 -1.0701  0.0323
11772TIP3   OH256730   3.157   3.952  11.639 -0.3087  0.7224 -0.0146
11772TIP3    H156731   3.217   4.026  11.630  0.7573  0.4806  3.5792
11772TIP3    H256732   3.070   3.991  11.634  0.2209  1.9653  0.0536
11773TIP3   OH256733   5.730   0.679  14.513  0.2283 -0.3492  0.5594
11773TIP3    H156734   5.802   0.631  14.555  1.6567  0.2752 -1.0249
11773TIP3    H256735   5.773   0.756  14.476 -1.3538  0.2166 -0.1455
11774TIP3   OH256736   0.957   5.263   5.719 -0.2638  0.2763 -0.3691
11774TIP3    H156737   1.015   5.203   5.765  0.3734 -0.0857 -1.5899
11774TIP3    H256738   0.877   5.265   5.771  1.0756  1.4181  1.8304
11775TIP3   OH256739   3.580   4.842   1.789  0.1789  0.1089 -0.1918
11775TIP3    H156740   3.661   4.856   1.836  0.1757  0.5913 -0.3317
11775TIP3    H256741   3.512   4.839   1.857  0.3000 -0.2408 -0.0812
11776TIP3   OH256742   5.020   1.602   4.164  0.4075  0.1561 -0.0850
11776TIP3    H156743   5.043   1.649   4.084  1.6693 -0.6567 -0.2367
11776TIP3    H256744   5.091   1.622   4.225 -1.1566  1.7528  1.3081
11777TIP3   OH256745   0.084   5.883   5.496 -0.1435 -0.0708  0.8133
11777TIP3    H156746   0.023   5.956   5.501  0.1975  0.1260  3.4568
11777TIP3    H256747   0.168   5.923   5.472 -0.8391 -0.2854 -2.3690
11778TIP3   OH256748   1.739   6.680   1.016  0.0205  0.1276  0.1196
11778TIP3    H156749   1.688   6.674   1.096  1.2328 -1.2896  0.8292
11778TIP3    H256750   1.828   6.658   1.042  0.3873 -0.7200 -1.6734
11779TIP3   OH256751   3.482   6.728  13.875 -0.2797  0.1986 -0.2918
11779TIP3    H156752   3.406   6.772  13.912 -0.0632 -0.1489  0.6089
11779TIP3    H256753   3.515   6.787  13.807 -0.3857  1.1090  0.4333
11780TIP3   OH256754   1.860   0.276   4.349  0.1326  0.1162 -0.1206
11780TIP3    H156755   1.954   0.261   4.358 -0.0512  0.1425  2.7939
11780TIP3    H256756   1.820   0.222   4.417 -1.8943  0.8085 -0.6729
11781TIP3   OH256757   4.406   3.589   0.144  0.1060  0.6158  0.3249
11781TIP3    H156758   4.374   3.525   0.080  0.2390 -2.0441  2.7350
11781TIP3    H256759   4.328   3.613   0.195  0.3789  1.0860  0.5280
11782TIP3   OH256760   1.861   3.567  13.975  0.2383  0.4138  0.0736
11782TIP3    H156761   1.777   3.543  14.014  0.4805 -1.1109 -0.2669
11782TIP3    H256762   1.925   3.545  14.043  0.4431  0.4271 -0.1174
11783TIP3   OH256763   3.005   1.673  14.666 -0.4217 -0.4656 -0.4316
11783TIP3    H156764   2.912   1.653  14.666 -0.6752  0.6495  0.1765
11783TIP3    H256765   3.036   1.643  14.580 -0.9058 -2.6677  0.1037
11784TIP3   OH256766   3.023   0.025  17.315  0.2206  0.9678 -0.2929
11784TIP3    H156767   2.962   0.019  17.389  0.5138  3.8479  0.3017
11784TIP3    H256768   3.070  -0.058  17.316 -1.9505 -0.3514  0.7634
11785TIP3   OH256769   2.867   3.679  10.729 -0.3103 -0.4557  0.2207
11785TIP3    H156770   2.821   3.713  10.652  0.3239  0.0081  0.0406
11785TIP3    H256771   2.927   3.613  10.694  0.6812  0.4396  0.1780
11786TIP3   OH256772   3.256   2.601  14.616 -0.2937 -0.0935  0.0159
11786TIP3    H156773   3.251   2.546  14.695  1.6872  1.4875  1.3443
11786TIP3    H256774   3.173   2.586  14.571 -1.0651 -1.8347  1.8741
11787TIP3   OH256775   2.760   0.069  11.563  0.4128  0.0235 -0.3817
11787TIP3    H156776   2.803   0.013  11.498  0.1130  0.5614 -1.0597
11787TIP3    H256777   2.669   0.076  11.533 -0.6351 -2.4052  1.8877
11788TIP3   OH256778   6.119   1.604   6.617 -0.4196 -0.6129  0.2776
11788TIP3    H156779   6.150   1.671   6.678 -1.2033  0.5914 -0.5860
11788TIP3    H256780   6.080   1.537   6.673  2.4003 -1.5385  1.3058
11789TIP3   OH256781   0.749   5.591   0.102 -0.0514 -0.4165 -0.2976
11789TIP3    H156782   0.659   5.581   0.069  0.1507 -2.6310 -0.2741
11789TIP3    H256783   0.738   5.610   0.195 -0.5012 -0.2429 -0.3804
11790TIP3   OH256784   4.016   4.670  14.947  0.4296 -0.5275 -0.0052
11790TIP3    H156785   4.076   4.740  14.922  0.1797 -0.3875 -0.2257
11790TIP3    H256786   4.053   4.634  15.027  1.2216 -0.9374 -0.5325
11791TIP3   OH256787   4.394   0.602   3.630  0.5998  0.1025  0.0623
11791TIP3    H156788   4.356   0.661   3.564 -0.1318  0.0316  0.4076
11791TIP3    H256789   4.320   0.579   3.686  1.1811  0.0164  0.8003
11792TIP3   OH256790   3.055   6.556   1.234 -0.3101 -0.3559 -0.0328
11792TIP3    H156791   3.074   6.598   1.150 -0.9911 -0.0011 -0.0188
11792TIP3    H256792   3.007   6.623   1.283 -1.0202 -1.0023  0.1571
11793TIP3   OH256793   3.071   4.228  12.324 -0.2631  0.3351  0.2330
11793TIP3    H156794   3.000   4.261  12.378  2.6426  1.5853  3.7020
11793TIP3    H256795   3.104   4.305  12.277 -0.5337 -0.0180 -0.5487
11794TIP3   OH256796   3.703   2.378   1.844  0.2437  0.5424  0.5342
11794TIP3    H156797   3.789   2.412   1.871  0.0906  1.1347  0.2913
11794TIP3    H256798   3.716   2.284   1.838  1.2012  0.7270 -0.6234
11795TIP3   OH256799   6.373   3.529  12.073  0.0477  0.1875 -0.1516
11795TIP3    H156800   6.310   3.564  12.136 -1.0679 -0.4487 -0.8717
11795TIP3    H256801   6.406   3.606  12.026  2.3105  0.8913  2.3757
11796TIP3   OH256802   4.748   6.346   4.206 -0.6752 -0.2731  0.5381
11796TIP3    H156803   4.840   6.347   4.232 -0.5425 -2.5018  0.3428
11796TIP3    H256804   4.736   6.428   4.158  1.7020 -0.7542 -1.0535
11797TIP3   OH256805   3.393   2.343   5.748 -0.4619  0.4284  0.2533
11797TIP3    H156806   3.325   2.294   5.794 -2.2558  0.6143 -1.9939
11797TIP3    H256807   3.359   2.432   5.743  0.2263  0.6659 -0.3702
11798TIP3   OH256808   2.224   4.566  16.485  0.0084  0.3257 -0.2170
11798TIP3    H156809   2.211   4.523  16.569 -0.1674  1.3899  0.3168
11798TIP3    H256810   2.303   4.619  16.496  0.3338  0.0055 -0.9219
11799TIP3   OH256811   1.299   4.798  10.631  0.2094 -0.0692  0.2092
11799TIP3    H156812   1.356   4.804  10.554  0.4873 -0.0690  0.4111
11799TIP3    H256813   1.330   4.869  10.688 -1.2211  1.1814 -0.4806
11800TIP3   OH256814   3.924   0.128  14.962 -0.2087  0.2319  0.2323
11800TIP3    H156815   3.926   0.094  14.872  0.3704  0.4551  0.1567
11800TIP3    H256816   3.919   0.223  14.952 -1.4001  0.2127  0.4460
11801TIP3   OH256817   5.927   2.671   3.294  0.1774 -0.4924 -0.2463
11801TIP3    H156818   5.888   2.683   3.380  3.1581  1.2829  1.0222
11801TIP3    H256819   5.935   2.760   3.258  2.8580 -0.7014 -0.4018
11802TIP3   OH256820   2.369   6.511   6.031 -0.3803 -0.3197 -0.2466
11802TIP3    H156821   2.347   6.593   5.988  0.4661 -0.8440 -1.7492
11802TIP3    H256822   2.403   6.455   5.961  0.9747 -1.2577  1.0952
11803TIP3   OH256823   1.016   5.438  11.967 -0.5002 -0.5360 -0.7483
11803TIP3    H156824   0.961   5.513  11.944 -0.4622 -0.3844 -0.3570
11803TIP3    H256825   1.106   5.472  11.964 -0.4912 -0.5346 -0.4511
11804TIP3   OH256826   1.786   6.080  15.858  0.8783  0.0080  0.4353
11804TIP3    H156827   1.716   6.113  15.803  0.1449  0.0041  1.3394
11804TIP3    H256828   1.856   6.146  15.850  1.7655 -1.1487 -2.3204
11805TIP3   OH256829   0.028   4.953   2.558  0.4934  0.4586  0.0111
11805TIP3    H156830   0.057   5.031   2.606  0.6022  1.4383 -1.5784
11805TIP3    H256831  -0.042   4.985   2.501  0.5457 -0.6180 -0.6809
11806TIP3   OH256832   2.905   5.810  16.360 -0.1872  0.4637  0.1266
11806TIP3    H156833   2.812   5.832  16.364 -0.6753 -1.4603  0.0954
11806TIP3    H256834   2.907   5.715  16.359  1.7958  0.4752  0.0357
11807TIP3   OH256835   1.949   4.638  14.794 -0.1784 -0.0564  0.3271
11807TIP3    H156836   1.978   4.550  14.773  2.4281  0.9338 -0.7557
11807TIP3    H256837   1.977   4.652  14.884  0.8220  0.1314  0.0059
11808TIP3   OH256838   0.626   3.815   0.488 -0.0851 -0.0931 -0.2142
11808TIP3    H156839   0.664   3.827   0.401  1.2770 -0.3738  0.3190
11808TIP3    H256840   0.634   3.721   0.506 -0.0007  0.0145  0.3549
11809TIP3   OH256841   1.478   4.494   2.451  0.0972 -0.1379 -0.1899
11809TIP3    H156842   1.505   4.409   2.416 -0.8945 -0.2152 -0.8176
11809TIP3    H256843   1.470   4.480   2.545 -2.3786 -1.4573 -0.5085
11810TIP3   OH256844   2.696   5.564  14.061 -0.1237  0.1614 -0.2359
11810TIP3    H156845   2.641   5.595  13.989 -2.1290  0.0381  1.1606
11810TIP3    H256846   2.635   5.519  14.120  1.2832  1.0168  1.9827
11811TIP3   OH256847   5.821   5.863  15.892 -0.1500  0.1574 -0.2167
11811TIP3    H156848   5.831   5.957  15.876  1.5023 -0.0751 -0.8009
11811TIP3    H256849   5.747   5.856  15.951  1.8140  2.1487  2.7881
11812TIP3   OH256850   4.286   2.895   3.928  0.2409  0.0949 -0.5564
11812TIP3    H156851   4.361   2.848   3.892  0.2707  0.8751 -1.5541
11812TIP3    H256852   4.313   2.919   4.017  0.2416 -1.6901 -0.0270
11813TIP3   OH256853   2.040   5.185  16.859 -0.1321 -0.4811  0.2804
11813TIP3    H156854   2.093   5.209  16.783 -1.0934  1.3093  0.1141
11813TIP3    H256855   2.015   5.094  16.844 -0.0421 -0.2604 -1.4008
11814TIP3   OH256856   3.891   1.817  15.439 -0.7990  0.3639  0.6485
11814TIP3    H156857   3.876   1.805  15.533 -3.9976  0.2476  0.2630
11814TIP3    H256858   3.906   1.729  15.405  0.3749  0.4074  1.0310
11815TIP3   OH256859   2.530   3.186   3.909  0.0708 -0.1480 -0.5588
11815TIP3    H156860   2.483   3.152   3.985  1.6291 -0.0105  0.5037
11815TIP3    H256861   2.476   3.161   3.834 -2.7696  1.7958  0.6775
11816TIP3   OH256862   2.431   2.195   4.691 -0.5563 -0.7831  0.4248
11816TIP3    H156863   2.409   2.287   4.702 -0.5529 -0.8151  0.7043
11816TIP3    H256864   2.475   2.191   4.607 -2.4291 -0.8538 -0.6050
11817TIP3   OH256865   4.406   4.847   0.572  0.3657 -0.3367  0.2881
11817TIP3    H156866   4.500   4.828   0.568  0.6406  0.9513  0.4309
11817TIP3    H256867   4.388   4.895   0.492 -0.7192 -2.7338 -1.0224
11818TIP3   OH256868   6.159   2.785  16.022  0.7167  0.5885  0.2199
11818TIP3    H156869   6.210   2.707  15.998  0.6578  0.5462  0.2326
11818TIP3    H256870   6.192   2.809  16.108 -1.7019 -1.5280  1.8914
11819TIP3   OH256871   0.226   2.236  14.011 -0.4531  0.2745  0.1491
11819TIP3    H156872   0.151   2.205  14.062 -0.5252  0.2355  0.0181
11819TIP3    H256873   0.292   2.167  14.023 -0.0214  0.8379  1.1978
11820TIP3   OH256874   6.729   5.858  17.088 -0.0021  0.1845 -0.0524
11820TIP3    H156875   6.649   5.816  17.056  0.5871  0.0454 -1.4076
11820TIP3    H256876   6.698   5.932  17.140 -1.0170 -0.5216  0.3955
11821TIP3   OH256877   2.876   3.767   5.027  0.9657  0.3453 -0.6068
11821TIP3    H156878   2.862   3.673   5.040  0.1853  0.3995 -1.0219
11821TIP3    H256879   2.873   3.804   5.115  1.3197 -0.0178 -0.4358
11822TIP3   OH256880   0.906   6.080   0.558  0.5229 -0.0471  0.0560
11822TIP3    H156881   0.825   6.050   0.517 -0.0794  0.2584  1.0084
11822TIP3    H256882   0.945   6.001   0.595  0.1592 -0.0458  0.4500
11823TIP3   OH256883   4.828   5.762  13.030 -0.4205  0.4227 -0.1064
11823TIP3    H156884   4.909   5.718  13.057 -0.1266  1.6164  1.0547
11823TIP3    H256885   4.771   5.691  12.999  0.6203 -0.5768  0.2136
11824TIP3   OH256886   2.329   3.344  11.999  0.3719 -0.1517  0.1855
11824TIP3    H156887   2.260   3.409  11.986 -0.7614 -1.1731  0.9228
11824TIP3    H256888   2.285   3.269  12.038  2.0063 -0.6124  1.2472
11825TIP3   OH256889   3.718   4.148   3.288  0.2017 -0.1639 -0.1182
11825TIP3    H156890   3.716   4.053   3.301  0.4239  0.0529  1.7706
11825TIP3    H256891   3.795   4.164   3.233  1.9962 -0.8510  2.0703
11826TIP3   OH256892   0.466   5.471  16.985 -0.2590 -0.1364  0.5955
11826TIP3    H156893   0.473   5.424  17.068  0.9463  0.5134  0.8903
11826TIP3    H256894   0.543   5.528  16.983  0.2344 -0.7806 -1.3813
11827TIP3   OH256895   6.641   6.546   1.498 -0.4222 -0.2776  0.0801
11827TIP3    H156896   6.656   6.637   1.473  1.8873 -0.7980 -0.6454
11827TIP3    H256897   6.546   6.534   1.489 -0.9131  2.2771  1.0946
11828TIP3   OH256898   0.180   3.219   1.752 -0.0332 -0.2512  0.4834
11828TIP3    H156899   0.203   3.303   1.712 -2.4646  0.3280  0.1535
11828TIP3    H256900   0.110   3.184   1.697  1.0260 -2.6325  0.5101
11829TIP3   OH256901   5.558   5.619  13.663 -0.4167  0.0860  0.4703
11829TIP3    H156902   5.639   5.617  13.714 -1.3931 -0.1063  2.0872
11829TIP3    H256903   5.578   5.673  13.587  0.5962  2.0122  2.0103
11830TIP3   OH256904   0.898   2.348   2.459 -0.6171 -0.1784 -0.1872
11830TIP3    H156905   0.842   2.274   2.485 -2.7145  1.4680  0.1942
11830TIP3    H256906   0.862   2.377   2.376 -0.3871  0.9593  0.1022
11831TIP3   OH256907   1.810   3.802   1.244  0.4965  0.3100 -0.2221
11831TIP3    H156908   1.718   3.823   1.227  0.5300  1.9337  1.2509
11831TIP3    H256909   1.824   3.718   1.202 -1.2760  0.6898 -1.7031
11832TIP3   OH256910   1.834   1.107   5.132  0.4029 -0.5133  0.3379
11832TIP3    H156911   1.749   1.132   5.169  1.0878  1.4361  0.7229
11832TIP3    H256912   1.874   1.053   5.201 -0.7095 -1.9811 -0.0932
11833TIP3   OH256913   2.232   2.037   2.611 -0.1650  0.2451 -0.0110
11833TIP3    H156914   2.213   2.129   2.593 -0.0333  0.3907  0.5702
11833TIP3    H256915   2.147   1.994   2.607 -0.0659  0.1440 -1.6247
11834TIP3   OH256916   1.949   6.694   1.368  0.2246 -0.0530 -0.2941
11834TIP3    H156917   1.863   6.653   1.362  0.7272 -0.9458 -2.0110
11834TIP3    H256918   1.932   6.778   1.411 -1.7268  0.3702 -1.7377
11835TIP3   OH256919   2.270   5.723  15.914 -0.5213 -0.1630 -0.0156
11835TIP3    H156920   2.222   5.700  15.835 -2.0411  0.4115  0.7120
11835TIP3    H256921   2.204   5.725  15.983  0.7758 -0.7311  1.3006
11836TIP3   OH256922   0.289   4.189  14.710 -0.3135 -0.5073 -0.1292
11836TIP3    H156923   0.206   4.190  14.758 -0.3760 -1.7674 -0.1781
11836TIP3    H256924   0.272   4.135  14.633  0.8881 -1.9077  0.5335
11837TIP3   OH256925   4.356   6.730  11.959 -0.3431 -0.0042  0.3425
11837TIP3    H156926   4.369   6.641  11.929 -2.6972 -0.3156  0.0021
11837TIP3    H256927   4.272   6.727  12.006 -0.4099  1.9787  0.4359
11838TIP3   OH256928   4.777   3.426   3.872  0.2669 -0.2333 -0.1617
11838TIP3    H156929   4.743   3.346   3.832  0.7476 -0.4998 -0.0467
11838TIP3    H256930   4.700   3.467   3.913 -0.0871 -0.3398 -0.7140
11839TIP3   OH256931   1.042   1.134   1.969  0.1223 -0.2564  0.1468
11839TIP3    H156932   0.971   1.156   2.030  0.0573  2.5599 -0.8190
11839TIP3    H256933   0.999   1.121   1.885  0.5800 -0.4816 -0.0568
11840TIP3   OH256934   0.744   6.253  14.614 -0.3816 -0.1609  0.1430
11840TIP3    H156935   0.751   6.326  14.675  0.8858 -0.0091 -0.1624
11840TIP3    H256936   0.696   6.186  14.662 -0.2825  0.3308  0.9412
11841TIP3   OH256937   5.185   5.677  16.788 -0.0849 -0.1395 -0.0304
11841TIP3    H156938   5.228   5.606  16.740 -0.9426  0.3829 -1.6417
11841TIP3    H256939   5.231   5.680  16.872  2.0403 -0.5672 -1.1002
11842TIP3   OH256940   1.489   6.357  15.748  0.0451  0.4081 -0.2078
11842TIP3    H156941   1.394   6.357  15.737 -0.3406 -1.5428  2.2738
11842TIP3    H256942   1.511   6.266  15.764  2.4252  0.7676 -1.1164
11843TIP3   OH256943   1.153   4.010   4.157  0.2709 -0.0279  0.4215
11843TIP3    H156944   1.242   4.038   4.136 -0.1076  0.2852 -0.8279
11843TIP3    H256945   1.108   4.009   4.073 -0.5626 -1.4530  0.8639
11844TIP3   OH256946   3.955   5.788   4.214 -0.4008  0.0004 -0.1449
11844TIP3    H156947   3.981   5.766   4.303 -1.2197 -1.0581 -0.1489
11844TIP3    H256948   3.860   5.782   4.214 -0.3989 -0.2589 -1.1396
11845TIP3   OH256949   5.451   2.633   0.790  0.9596 -0.1031 -0.3176
11845TIP3    H156950   5.542   2.643   0.761  1.6904  1.2452  2.1587
11845TIP3    H256951   5.455   2.566   0.858 -0.1312 -0.8582 -0.9650
11846TIP3   OH256952   5.379   4.983   3.218 -0.0153 -0.7361 -0.0671
11846TIP3    H156953   5.471   4.958   3.215  0.2597  0.2372 -0.0610
11846TIP3    H256954   5.332   4.908   3.181  0.8128 -1.0497 -0.4970
11847TIP3   OH256955   1.066   6.216   0.361 -0.1411  0.1279  0.5164
11847TIP3    H156956   1.031   6.160   0.430  0.2145  1.1257  1.5392
11847TIP3    H256957   1.054   6.166   0.281 -1.7605 -0.5303  1.1308
11848TIP3   OH256958   2.093   1.573  12.759  0.2593 -0.0684  0.4201
11848TIP3    H156959   2.022   1.509  12.769 -2.6896  2.6907 -0.7828
11848TIP3    H256960   2.071   1.642  12.822  1.2854  1.3240 -0.7007
11849TIP3   OH256961   0.554   0.789   4.938 -0.4237 -0.4547  0.2059
11849TIP3    H156962   0.558   0.810   5.031 -0.5358  0.1755  0.0677
11849TIP3    H256963   0.595   0.702   4.932  1.3751  0.3119  0.5940
11850TIP3   OH256964   2.083   2.586  15.200  0.2541 -0.2804 -0.1451
11850TIP3    H156965   2.104   2.662  15.253 -1.3761 -0.7255  1.2306
11850TIP3    H256966   2.104   2.511  15.256 -0.5100 -0.7807 -0.5055
11851TIP3   OH256967   4.030   4.166  14.610 -0.2423 -0.1693 -0.0149
11851TIP3    H156968   4.069   4.170  14.523  0.2812 -0.8049  0.1929
11851TIP3    H256969   4.061   4.246  14.653 -0.4631  0.1235 -0.3848
11852TIP3   OH256970   0.389   0.469   2.037  0.4381  0.3682  0.2710
11852TIP3    H156971   0.455   0.422   2.087  0.1521  0.8777  1.1534
11852TIP3    H256972   0.439   0.530   1.983  0.7615 -0.3583 -0.2666
11853TIP3   OH256973   1.266   2.063  14.552  0.3314  0.2396 -0.6467
11853TIP3    H156974   1.285   1.985  14.499 -0.5351  1.0073 -2.1617
11853TIP3    H256975   1.348   2.112  14.553  0.4841 -0.0087 -0.9006
11854TIP3   OH256976   2.452   5.414   2.782 -0.6713  0.0173  0.0777
11854TIP3    H156977   2.478   5.477   2.716 -0.7166  0.7515  0.7404
11854TIP3    H256978   2.525   5.413   2.844 -0.7149 -0.5088  0.1254
11855TIP3   OH256979   0.976   6.458   2.128 -0.1218 -0.8208 -0.4033
11855TIP3    H156980   1.054   6.445   2.074  1.0665  1.5319  0.6248
11855TIP3    H256981   0.913   6.502   2.070  0.7869  0.7814 -0.2385
11856TIP3   OH256982   0.164   1.827   5.618  0.7272 -0.5081 -0.1711
11856TIP3    H156983   0.089   1.770   5.601 -0.2815  0.4474  0.8750
11856TIP3    H256984   0.202   1.793   5.700  0.8477 -0.3985 -0.1817
11857TIP3   OH256985   1.685   4.826   2.919 -0.3737 -0.1299  0.4650
11857TIP3    H156986   1.651   4.890   2.982 -0.6811  0.9209 -0.7363
11857TIP3    H256987   1.773   4.858   2.898 -0.9818  0.6541 -1.0773
11858TIP3   OH256988   5.533   1.545   4.851  0.2719  0.0689  0.3995
11858TIP3    H156989   5.516   1.639   4.850  1.1713  0.2370  0.5728
11858TIP3    H256990   5.462   1.509   4.903  0.1170  0.6915  0.6285
11859TIP3   OH256991   0.079   0.231  17.324 -0.1605  0.0980 -0.1235
11859TIP3    H156992   0.152   0.241  17.385 -1.2643 -0.7672  1.4081
11859TIP3    H256993   0.107   0.163  17.263 -0.6063 -2.1387  2.0243
11860TIP3   OH256994   3.411   6.646  14.343 -0.2724 -0.1572 -0.0122
11860TIP3    H156995   3.468   6.625  14.418 -0.3015  0.1023  0.0821
11860TIP3    H256996   3.453   6.603  14.269  1.4825  2.1545 -0.4583
11861TIP3   OH256997   4.933   2.176  11.580  0.8470 -0.0235  0.3917
11861TIP3    H156998   5.021   2.151  11.553  1.2360  2.0629 -0.3882
11861TIP3    H256999   4.876   2.144  11.510  0.8069 -2.1168  1.2888
11862TIP3   OH257000   5.727   0.599  11.863 -0.0456 -0.0230  0.2455
11862TIP3    H157001   5.635   0.581  11.846 -0.0452 -0.1931  0.4221
11862TIP3    H257002   5.727   0.674  11.922 -0.0427  0.7015 -0.6531
11863TIP3   OH257003   5.755   6.472  17.206 -0.1258  0.3993  0.2471
11863TIP3    H157004   5.793   6.401  17.154 -2.3198 -2.7904  2.5928
11863TIP3    H257005   5.681   6.503  17.153 -0.9731 -1.2584  0.3552
11864TIP3   OH257006   6.071   0.594  10.997 -0.2093  0.5827  0.2617
11864TIP3    H157007   6.067   0.684  11.031  1.7610  0.9059 -0.2424
11864TIP3    H257008   6.163   0.569  11.007 -0.4113 -0.8137 -1.0371
11865TIP3   OH257009   5.284   3.812   1.877  0.1677  0.0418  0.3599
11865TIP3    H157010   5.311   3.720   1.883  1.4148  0.4182  0.8031
11865TIP3    H257011   5.205   3.810   1.822 -0.5706 -1.4208  1.4105
11866TIP3   OH257012   5.740   0.131  13.615  0.5278  0.1490  0.5466
11866TIP3    H157013   5.659   0.179  13.636  0.5209 -0.5005  2.2075
11866TIP3    H257014   5.753   0.145  13.522 -1.2561  0.6645  0.3327
11867TIP3   OH257015   0.911   3.601  13.495 -0.2348 -0.0961 -0.0169
11867TIP3    H157016   0.866   3.525  13.457 -0.8412  0.2973 -0.0901
11867TIP3    H257017   0.962   3.564  13.568  0.5281 -0.7777 -0.8695
11868TIP3   OH257018   1.421   5.833  14.131  0.9260 -0.4893  0.4086
11868TIP3    H157019   1.496   5.854  14.075  1.4055 -2.3641  0.2672
11868TIP3    H257020   1.443   5.871  14.216  2.6761 -2.0115  0.7094
11869TIP3   OH257021   4.873   6.235   4.498 -0.1262  0.0189  0.4640
11869TIP3    H157022   4.908   6.300   4.437  0.1021 -0.1134  0.4506
11869TIP3    H257023   4.856   6.158   4.444  0.5323 -0.2615  0.6411
11870TIP3   OH257024   1.170   4.971   5.677  0.0385  0.4830  0.3028
11870TIP3    H157025   1.115   4.993   5.752  0.1878 -0.2607  0.6434
11870TIP3    H257026   1.249   4.932   5.715 -0.1327 -0.4397 -0.2421
11871TIP3   OH257027   5.979   5.084   6.266  0.0576 -0.2775 -0.2430
11871TIP3    H157028   5.995   5.128   6.350 -0.6446 -1.1487  0.3608
11871TIP3    H257029   6.066   5.073   6.229  0.3094  0.9768 -0.0880
11872TIP3   OH257030   4.047   3.639  13.411  0.6132  0.0402  0.0757
11872TIP3    H157031   4.059   3.545  13.401  1.3928  0.0944  0.4341
11872TIP3    H257032   3.963   3.648  13.456 -0.0105 -0.4262 -0.9647
11873TIP3   OH257033   0.087   4.791  11.863  0.0629  0.8656 -0.1062
11873TIP3    H157034   0.070   4.874  11.819 -0.9765  2.0775  2.3766
11873TIP3    H257035   0.019   4.786  11.931 -1.1824 -2.9948 -1.3760
11874TIP3   OH257036   6.404   4.351  11.995  0.5202  0.4026 -0.2800
11874TIP3    H157037   6.392   4.281  11.931  3.3319  0.0647 -0.5513
11874TIP3    H257038   6.411   4.431  11.942 -1.6258  0.8084 -0.0349
11875TIP3   OH257039   3.971   6.645  17.155  0.4006 -0.3091  0.5572
11875TIP3    H157040   4.023   6.700  17.214  0.2156 -0.5566  0.9550
11875TIP3    H257041   4.032   6.618  17.087  0.1828  1.4623 -0.3823
11876TIP3   OH257042   5.630   0.111   2.013  0.6874  0.0383  0.5395
11876TIP3    H157043   5.692   0.041   2.034 -0.1445 -1.0204 -0.4382
11876TIP3    H257044   5.568   0.110   2.086  1.0406  0.2034  0.8483
11877TIP3   OH257045   6.268   6.159   0.020 -0.0881  0.0990  0.5512
11877TIP3    H157046   6.312   6.157   0.105 -1.6086 -1.2557  1.3491
11877TIP3    H257047   6.226   6.074   0.012 -2.3405  1.2130 -0.2745
11878TIP3   OH257048   0.714   2.684  12.617 -0.2487  0.1309  0.1748
11878TIP3    H157049   0.632   2.733  12.614 -0.7791 -0.7816 -1.1970
11878TIP3    H257050   0.764   2.725  12.688 -1.2544  1.6701  0.0372
11879TIP3   OH257051   1.172   0.883  11.985 -0.0501 -0.0859  0.0766
11879TIP3    H157052   1.083   0.913  11.968 -0.4161 -1.0323  0.2450
11879TIP3    H257053   1.213   0.879  11.899 -0.1912  0.2883 -0.0108
11880TIP3   OH257054   1.531   0.094   2.017 -0.4006  0.1133  0.1711
11880TIP3    H157055   1.442   0.074   2.046 -0.7650 -0.2809 -1.1326
11880TIP3    H257056   1.561   0.015   1.973  0.1540  0.6250 -0.4041
11881TIP3   OH257057   2.258   6.698  13.319  0.2934  0.3474 -0.5993
11881TIP3    H157058   2.239   6.689  13.225  0.2100 -0.1260 -0.5383
11881TIP3    H257059   2.353   6.689  13.325  0.4399  1.5967 -0.7735
11882TIP3   OH257060   4.406   3.126   1.411  0.3637 -0.6759 -0.0773
11882TIP3    H157061   4.450   3.139   1.494 -0.7823  0.9662  0.3158
11882TIP3    H257062   4.467   3.073   1.359  1.1065 -1.7165  1.7687
11883TIP3   OH257063   4.647   5.331  17.244 -0.2387  0.9047  0.3605
11883TIP3    H157064   4.573   5.339  17.184 -1.1241  0.7818  1.4216
11883TIP3    H257065   4.637   5.246  17.285  1.0893  0.4276 -0.2253
11884TIP3   OH257066   0.671   2.386   4.262  0.6940  0.1090  0.4345
11884TIP3    H157067   0.600   2.448   4.244  0.2033 -1.2951 -3.3844
11884TIP3    H257068   0.626   2.307   4.293  0.1503 -1.3317 -3.4616
11885TIP3   OH257069   6.478   0.916  15.032 -0.5452  0.0618 -0.6064
11885TIP3    H157070   6.444   0.990  14.980 -1.5164  1.4508  1.8428
11885TIP3    H257071   6.525   0.958  15.104 -0.6697 -1.7501  0.5680
11886TIP3   OH257072   6.331   4.264   5.936  0.1473  0.4801  0.4852
11886TIP3    H157073   6.413   4.225   5.906 -0.6848 -2.8771  2.0279
11886TIP3    H257074   6.350   4.295   6.024  0.1992  1.4464  0.1430
11887TIP3   OH257075   4.063   1.082  17.187  0.4599  0.3061  0.1081
11887TIP3    H157076   4.039   1.175  17.185 -0.8369  0.0719  2.0141
11887TIP3    H257077   4.135   1.077  17.251  1.1748  0.1035 -0.6930
11888TIP3   OH257078   0.087   2.223  15.148 -0.1656 -0.4756 -0.0744
11888TIP3    H157079   0.111   2.190  15.234 -1.0293  1.5047  0.9961
11888TIP3    H257080   0.159   2.280  15.122 -0.4133 -0.1817 -0.1311
11889TIP3   OH257081   0.910   2.059  17.075  0.2614  0.0403  0.0422
11889TIP3    H157082   0.972   2.130  17.093 -0.3285  0.6003 -0.1143
11889TIP3    H257083   0.826   2.091  17.108  0.2002 -1.0390  0.9982
11890TIP3   OH257084   2.031   3.628  13.149 -0.2661 -0.0092  0.0839
11890TIP3    H157085   1.994   3.689  13.213 -0.1449 -0.3700  0.4977
11890TIP3    H257086   2.057   3.684  13.075 -1.7071  0.2471 -0.2537
11891TIP3   OH257087   4.762   1.470   1.328  0.2126  0.2091  0.2239
11891TIP3    H157088   4.855   1.455   1.312  0.6787  2.1844  0.7756
11891TIP3    H257089   4.760   1.544   1.389 -1.7330  0.8539 -0.5390
11892TIP3   OH257090   4.648   6.297   5.597  0.2510 -0.9121  0.3730
11892TIP3    H157091   4.604   6.376   5.628 -0.7935 -2.0121  1.8698
11892TIP3    H257092   4.694   6.324   5.518 -4.2757  0.0516 -2.2714
11893TIP3   OH257093   3.232   6.273  13.632  0.2430  0.2812  0.3193
11893TIP3    H157094   3.256   6.364  13.649 -0.5851  0.1658  2.2920
11893TIP3    H257095   3.254   6.260  13.539  0.6058  2.3963  0.0556
11894TIP3   OH257096   0.651   4.345   1.172 -0.0710  0.0679  0.2602
11894TIP3    H157097   0.609   4.365   1.256 -0.5849  0.0553  0.0091
11894TIP3    H257098   0.598   4.275   1.134 -0.8353  1.1814 -0.8133
11895TIP3   OH257099   0.352   1.210  14.378  0.1173  0.6811  0.3520
11895TIP3    H157100   0.266   1.217  14.337 -0.4156  0.1221  1.3412
11895TIP3    H257101   0.359   1.287  14.434 -0.4055 -0.0247  1.4398
11896TIP3   OH257102   1.380   2.736  12.636 -0.4668  0.2291  0.5587
11896TIP3    H157103   1.315   2.673  12.607 -1.8400  1.3337  1.1417
11896TIP3    H257104   1.464   2.690  12.626 -1.3152 -1.2300 -0.1728
11897TIP3   OH257105   3.837   6.020  14.146  0.1289 -0.1039 -0.5906
11897TIP3    H157106   3.778   5.951  14.178  0.0712  0.0451 -0.3703
11897TIP3    H257107   3.812   6.031  14.054  1.5061 -1.7864 -1.2157
11898TIP3   OH257108   2.003   5.179   5.667 -0.3957 -0.0179  0.1353
11898TIP3    H157109   1.975   5.100   5.713  1.1951 -0.3190  0.6621
11898TIP3    H257110   1.966   5.251   5.718  0.2249 -0.3861  1.1394
11899TIP3   OH257111   0.558   1.279  14.613  0.2001 -0.0612  0.0416
11899TIP3    H157112   0.589   1.246  14.529 -0.6438 -0.1179 -0.2527
11899TIP3    H257113   0.523   1.366  14.594 -1.7344 -0.8134 -0.0428
11900TIP3   OH257114   4.272   2.702   1.346 -0.1136 -0.4736  0.2255
11900TIP3    H157115   4.207   2.647   1.302 -1.1107 -0.1665  1.2585
11900TIP3    H257116   4.223   2.744   1.418  1.4163 -0.9135  1.5875
11901TIP3   OH257117   4.482   1.970  14.251  0.4577 -0.2332 -0.4486
11901TIP3    H157118   4.399   1.963  14.203 -0.1069  2.9856 -0.2125
11901TIP3    H257119   4.471   1.913  14.327 -1.6254  0.1787 -0.3815
11902TIP3   OH257120   3.647   4.486  12.998 -0.1271 -0.3385  0.7053
11902TIP3    H157121   3.742   4.472  12.999  0.4361  2.7936  0.7514
11902TIP3    H257122   3.635   4.565  12.945 -2.6130 -0.0891  1.5205
11903TIP3   OH257123   2.185   6.243  13.049 -0.1318  0.6259  0.8423
11903TIP3    H157124   2.117   6.295  13.006 -1.8181 -1.2757  1.0553
11903TIP3    H257125   2.230   6.198  12.977  0.9553  1.8897  0.7015
11904TIP3   OH257126   5.527   4.900  12.005 -0.1512 -0.4525  0.2450
11904TIP3    H157127   5.557   4.826  11.951  0.5224  0.5494 -0.7912
11904TIP3    H257128   5.533   4.976  11.947  1.9718  0.9171  2.1023
11905TIP3   OH257129   2.871   1.010  11.751 -0.0006  0.1627  0.1177
11905TIP3    H157130   2.947   1.062  11.724 -0.2543 -0.0799 -1.1548
11905TIP3    H257131   2.902   0.920  11.747 -0.1496  0.1043  0.3103
11906TIP3   OH257132   5.428   5.822  14.689 -0.2983 -0.2642 -0.5841
11906TIP3    H157133   5.390   5.844  14.774 -0.0940 -1.4142 -0.1779
11906TIP3    H257134   5.520   5.804  14.708  0.2146  1.3532 -1.3727
11907TIP3   OH257135   2.839   4.066  15.690  0.0828  0.5026 -0.3974
11907TIP3    H157136   2.847   4.103  15.777 -2.1082 -1.0972  0.5874
11907TIP3    H257137   2.920   4.016  15.678 -0.5872 -1.3539  1.8860
11908TIP3   OH257138   3.062   0.351  11.335  0.6729 -0.3668 -0.1357
11908TIP3    H157139   3.036   0.308  11.416  0.1779  1.4410  0.7212
11908TIP3    H257140   3.151   0.318  11.318  0.8671 -0.6356  1.2453
11909TIP3   OH257141   5.976   1.800   3.600 -0.2143 -0.0243 -0.6826
11909TIP3    H157142   5.978   1.874   3.539  1.2872  0.2711 -0.3336
11909TIP3    H257143   6.069   1.782   3.617 -0.5719 -1.7034 -0.4037
11910TIP3   OH257144   0.261   4.961   4.035  0.4713  0.3524  0.7158
11910TIP3    H157145   0.221   4.954   3.949  0.5686  0.5423  0.6548
11910TIP3    H257146   0.296   4.874   4.053  1.0402  0.4856  0.2764
11911TIP3   OH257147   6.082   0.706  14.556 -0.0207  0.3923  0.2425
11911TIP3    H157148   6.153   0.734  14.614  0.8284 -0.1044 -0.5216
11911TIP3    H257149   6.022   0.656  14.612  0.5054  0.3743  0.7943
11912TIP3   OH257150   6.663   3.001   3.834  0.7222 -0.3244 -0.0546
11912TIP3    H157151   6.634   3.092   3.844  1.6178 -0.0754  0.3783
11912TIP3    H257152   6.756   3.003   3.855  1.0603 -1.1152 -1.3983
11913TIP3   OH257153   1.147   5.275  12.155  0.4594  0.1114 -0.0620
11913TIP3    H157154   1.238   5.258  12.130  0.5834  0.7212 -0.0349
11913TIP3    H257155   1.123   5.352  12.105 -0.1608 -0.2516 -0.3311
11914TIP3   OH257156   3.743   0.466  13.732 -0.0380  0.0667  0.5106
11914TIP3    H157157   3.822   0.518  13.751 -0.7850  0.7587  1.8320
11914TIP3    H257158   3.688   0.475  13.810 -1.3265 -0.6239 -0.2768
11915TIP3   OH257159   6.156   3.267   1.041  0.2908  0.4525 -0.8674
11915TIP3    H157160   6.068   3.298   1.022 -0.4543 -0.3875  1.0029
11915TIP3    H257161   6.149   3.172   1.040  1.0606  0.3811 -0.2644
11916TIP3   OH257162   1.698   3.105   4.415  0.2463  0.2214  0.2240
11916TIP3    H157163   1.631   3.070   4.357  0.2927 -0.7458  0.7320
11916TIP3    H257164   1.707   3.039   4.484  2.4101 -0.1729 -0.3554
11917TIP3   OH257165   2.236   3.648   5.154 -0.4089 -0.2555 -0.2686
11917TIP3    H157166   2.328   3.643   5.178 -0.9567  0.0479  2.1589
11917TIP3    H257167   2.234   3.708   5.078  1.2357  0.9978  0.6175
11918TIP3   OH257168   4.038   3.385  13.207 -0.0573 -0.2269 -0.3083
11918TIP3    H157169   4.118   3.335  13.226  0.6564  0.5434 -1.2000
11918TIP3    H257170   4.022   3.370  13.114 -0.3806  0.4334 -0.3624
11919TIP3   OH257171   1.541   5.353   4.228  0.0690 -0.4509 -0.2310
11919TIP3    H157172   1.520   5.440   4.264 -0.7884  0.2522 -2.2976
11919TIP3    H257173   1.625   5.365   4.184  0.4248 -0.9421  0.3027
11920TIP3   OH257174   1.587   0.340  15.750  0.3451  0.4815 -0.3732
11920TIP3    H157175   1.513   0.327  15.690  0.3446  0.3729 -0.3505
11920TIP3    H257176   1.636   0.258  15.744 -0.7645 -0.3681  1.3102
11921TIP3   OH257177   6.238   1.669   2.700 -0.7352 -0.5217  0.0243
11921TIP3    H157178   6.187   1.745   2.728  1.1718  0.7197  0.3700
11921TIP3    H257179   6.226   1.604   2.770 -2.3738 -0.5802 -0.2670
11922TIP3   OH257180   4.142   5.848  15.840  0.2942 -0.0886  0.1652
11922TIP3    H157181   4.114   5.846  15.931  0.3903  0.9322  0.2307
11922TIP3    H257182   4.080   5.791  15.795 -1.4548  1.4675  0.4548
11923TIP3   OH257183   3.345   5.190  11.515  0.6309  0.0336 -1.0754
11923TIP3    H157184   3.345   5.272  11.465  0.0963  0.2501 -0.7322
11923TIP3    H257185   3.283   5.205  11.586 -2.0279 -1.7663 -2.8413
11924TIP3   OH257186   4.595   4.275  15.953 -0.2730  0.2364 -0.1596
11924TIP3    H157187   4.627   4.290  15.864  0.2959 -0.7691 -0.1409
11924TIP3    H257188   4.510   4.319  15.956 -1.6685 -2.0887 -2.1283
11925TIP3   OH257189   0.261   3.198   5.267  0.1420  0.0955  0.1360
11925TIP3    H157190   0.190   3.176   5.328 -0.7618  1.5475 -0.3685
11925TIP3    H257191   0.340   3.172   5.314 -0.6474 -0.5778  1.1473
11926TIP3   OH257192   2.324   0.345   4.836 -0.2014 -0.5819 -0.0182
11926TIP3    H157193   2.379   0.295   4.776 -1.1861 -0.5196 -0.9987
11926TIP3    H257194   2.273   0.279   4.883  0.2101 -0.6085  0.3897
11927TIP3   OH257195   5.750   6.304  11.716 -0.0119  0.4176 -0.1199
11927TIP3    H157196   5.686   6.371  11.689 -0.7481 -0.1728  0.1241
11927TIP3    H257197   5.703   6.221  11.707  1.1229 -0.1486 -1.1443
11928TIP3   OH257198   0.833   2.856   5.686 -0.1116  0.3469  0.6329
11928TIP3    H157199   0.863   2.824   5.772  0.9056 -0.9171 -0.1483
11928TIP3    H257200   0.898   2.822   5.624 -1.6808 -0.1426 -0.8310
11929TIP3   OH257201   1.331   4.044   2.009 -0.1910  0.5656 -0.6108
11929TIP3    H157202   1.379   4.124   2.028  2.1090 -0.6272 -1.0509
11929TIP3    H257203   1.321   4.044   1.913 -0.3680  0.4046 -0.5951
11930TIP3   OH257204   1.040   0.243   5.181  0.4528 -0.4146  0.0365
11930TIP3    H157205   0.989   0.322   5.163  2.2314  0.7885  0.0420
11930TIP3    H257206   1.059   0.247   5.274  0.6227 -0.8149  0.0194
11931TIP3   OH257207   0.564   2.193  11.592  0.4338 -0.1641  0.8263
11931TIP3    H157208   0.554   2.287  11.606 -0.8263  0.0685 -1.1655
11931TIP3    H257209   0.526   2.153  11.670  1.3919  0.9373  1.9134
11932TIP3   OH257210   6.561   2.196   5.446 -0.3571  0.4319  0.0625
11932TIP3    H157211   6.563   2.289   5.424 -1.6599  0.1280 -1.4962
11932TIP3    H257212   6.652   2.167   5.435 -0.3144  1.0749 -1.5920
11933TIP3   OH257213   2.500   1.248   0.135 -0.2408  0.4976  0.1905
11933TIP3    H157214   2.474   1.338   0.154 -2.1004  0.2617 -0.8681
11933TIP3    H257215   2.551   1.254   0.054  0.6327  0.6934  0.7457
11934TIP3   OH257216   2.739   0.172  12.621  0.1798  0.6921 -0.4017
11934TIP3    H157217   2.675   0.240  12.643 -1.2181 -0.4631 -0.7445
11934TIP3    H257218   2.749   0.178  12.526  0.2056  0.5364 -0.4089
11935TIP3   OH257219   1.560   3.412   2.664 -0.6500 -0.0898 -0.1759
11935TIP3    H157220   1.518   3.359   2.732 -0.5311 -1.4385 -1.1161
11935TIP3    H257221   1.553   3.502   2.696  0.3495 -0.7558  2.1232
11936TIP3   OH257222   6.093   0.110  12.172  0.2470 -0.3922 -0.2973
11936TIP3    H157223   6.049   0.192  12.149  2.4380  0.9734  0.0758
11936TIP3    H257224   6.028   0.042  12.153 -1.2999  1.3319 -1.5884
11937TIP3   OH257225   4.015   2.115  13.521 -0.5747  0.5022  0.0896
11937TIP3    H157226   3.940   2.097  13.464 -1.0059 -0.1890  0.8532
11937TIP3    H257227   4.089   2.075  13.477 -0.7868  0.5318 -0.3003
11938TIP3   OH257228   0.455   3.813  16.181 -0.9972 -0.7405 -0.0867
11938TIP3    H157229   0.516   3.782  16.248 -1.9549  0.1838  1.2754
11938TIP3    H257230   0.461   3.749  16.111  1.7870 -0.5022 -0.1787
11939TIP3   OH257231   3.393   4.805   2.637  0.1954  0.4877 -0.0406
11939TIP3    H157232   3.395   4.785   2.731 -0.3186  0.5938 -0.0016
11939TIP3    H257233   3.349   4.729   2.598 -1.6792  1.4364  0.0948
11940TIP3   OH257234   3.587   1.990  14.727  0.0276  0.3147  0.4621
11940TIP3    H157235   3.499   1.963  14.751 -0.1712 -0.2467 -0.7899
11940TIP3    H257236   3.645   1.929  14.773 -0.2226  0.7829  1.4076
11941TIP3   OH257237   4.590   0.167  14.179  0.0959 -0.4859 -0.3553
11941TIP3    H157238   4.516   0.167  14.119 -1.6277 -1.9298  1.6434
11941TIP3    H257239   4.561   0.221  14.253  2.3469  1.6553 -0.9055
11942TIP3   OH257240   3.445   4.047  15.395  0.1029  0.3806  0.0913
11942TIP3    H157241   3.430   4.073  15.486 -2.4671  0.5294 -0.3066
11942TIP3    H257242   3.470   3.954  15.401 -1.6803 -0.0876  0.8956
11943TIP3   OH257243   5.755   1.152   0.551  0.4009  0.0457  0.3227
11943TIP3    H157244   5.670   1.178   0.513  0.2066 -1.7007 -0.5487
11943TIP3    H257245   5.793   1.094   0.485  2.2143  0.6420  0.7941
11944TIP3   OH257246   5.158   1.162  12.961  0.1116  0.3123 -0.3602
11944TIP3    H157247   5.209   1.242  12.976  1.3979 -0.1698 -1.8677
11944TIP3    H257248   5.157   1.118  13.046 -1.8034  2.5031  0.8856
11945TIP3   OH257249   6.280   5.770  15.608 -0.1560 -0.1420  0.3767
11945TIP3    H157250   6.268   5.757  15.514  0.5385  0.0048  0.2624
11945TIP3    H257251   6.375   5.774  15.620 -0.2621  1.0352  0.9177
11946TIP3   OH257252   4.487   4.798  16.043 -0.9322  0.2782  0.0651
11946TIP3    H157253   4.572   4.825  16.077 -0.3374 -1.1870 -0.1826
11946TIP3    H257254   4.487   4.826  15.952 -1.2913  1.4908  0.4178
11947TIP3   OH257255   5.277   0.289  12.366 -0.2851  0.5202 -0.2574
11947TIP3    H157256   5.266   0.321  12.276 -1.4936  2.3750  0.4822
11947TIP3    H257257   5.291   0.368  12.418  1.4677 -0.5879  1.0937
11948TIP3   OH257258   3.444   1.418  13.987  0.2953 -0.4138  0.1856
11948TIP3    H157259   3.494   1.444  13.910 -0.8657 -0.8721 -0.7574
11948TIP3    H257260   3.450   1.322  13.989 -0.9118 -0.5241 -0.2464
11949TIP3   OH257261   2.630   2.547   5.165  0.1210  0.7174  0.1477
11949TIP3    H157262   2.595   2.583   5.083 -1.3793 -0.7960  0.0837
11949TIP3    H257263   2.692   2.480   5.138 -0.7715 -0.1538  0.2311
11950TIP3   OH257264   2.299   2.183   1.663 -0.9026 -0.4375 -0.6642
11950TIP3    H157265   2.360   2.109   1.672 -2.7050 -1.8368  0.9249
11950TIP3    H257266   2.229   2.150   1.608 -0.9475  0.6736 -1.3008
11951TIP3   OH257267   2.717   0.327   2.949 -0.2117  0.0695 -0.4003
11951TIP3    H157268   2.746   0.236   2.955 -0.9768 -0.1148  0.8824
11951TIP3    H257269   2.786   0.371   2.900  1.2183 -0.7455  0.8274
11952TIP3   OH257270   3.459   3.882  11.651  0.9620 -0.3087 -0.5854
11952TIP3    H157271   3.505   3.842  11.725  1.0267  0.3773 -0.2567
11952TIP3    H257272   3.372   3.842  11.654  1.8802 -2.6710 -2.0274
11953TIP3   OH257273   5.555   6.314  16.384 -0.1506 -0.2535 -0.2647
11953TIP3    H157274   5.587   6.394  16.343  0.5378 -0.3771  0.0261
11953TIP3    H257275   5.497   6.275  16.319  0.9553 -0.4744 -1.1413
11954TIP3   OH257276   3.372   0.420   3.700  0.0302  0.0746 -0.2448
11954TIP3    H157277   3.362   0.338   3.748  0.0750  1.2213  1.8505
11954TIP3    H257278   3.452   0.408   3.648 -0.5176 -1.5418 -0.7777
11955TIP3   OH257279   4.601   0.640   1.897 -0.1817  0.2033  0.0318
11955TIP3    H157280   4.574   0.618   1.808  1.7253 -0.5567 -0.3931
11955TIP3    H257281   4.682   0.690   1.886 -0.6762  1.3660  1.3017
11956TIP3   OH257282   3.422   1.278  17.274 -0.0927 -0.2477 -0.2376
11956TIP3    H157283   3.479   1.206  17.246  0.0510  0.3198 -1.4852
11956TIP3    H257284   3.410   1.331  17.195  1.2856  2.1218  1.0500
11957TIP3   OH257285   0.714   5.667   3.093  1.2231  0.2106  0.1955
11957TIP3    H157286   0.763   5.616   3.029 -1.0417 -2.5452  0.4071
11957TIP3    H257287   0.761   5.653   3.176  0.2212 -2.4429  0.4132
11958TIP3   OH257288   1.317   1.610   2.045  0.0894 -0.2195  0.3458
11958TIP3    H157289   1.237   1.613   1.993 -0.0150 -0.6361  0.4752
11958TIP3    H257290   1.362   1.530   2.016 -0.4867 -1.0510  1.6204
11959TIP3   OH257291   3.408   2.587  14.092 -0.2550 -0.3883 -0.7386
11959TIP3    H157292   3.349   2.601  14.166 -1.0471  0.4442 -1.4949
11959TIP3    H257293   3.475   2.527  14.125 -0.2289  0.4524  0.8342
11960TIP3   OH257294   4.979   5.388  13.843  0.6522  0.0741  0.6014
11960TIP3    H157295   4.899   5.407  13.892  0.1965  4.5213 -1.3428
11960TIP3    H257296   4.954   5.401  13.751  2.5467 -3.3490 -0.5841
11961TIP3   OH257297   3.732   0.448   0.601  0.0861 -0.4360 -0.2352
11961TIP3    H157298   3.664   0.490   0.548 -2.7617 -2.2829  1.7105
11961TIP3    H257299   3.724   0.489   0.687  1.0292 -1.1532  0.2065
11962TIP3   OH257300   2.837   5.958  11.869  0.1589 -0.0408  0.0714
11962TIP3    H157301   2.742   5.964  11.880 -0.0167 -0.9165 -0.8785
11962TIP3    H257302   2.866   5.908  11.946 -0.3671 -1.2380 -0.4895
11963TIP3   OH257303   3.330   2.523   3.220 -0.2078 -0.0484 -0.0153
11963TIP3    H157304   3.297   2.433   3.212  0.9243 -0.4670 -0.1943
11963TIP3    H257305   3.302   2.566   3.140 -0.3571 -0.3816 -0.1459
11964TIP3   OH257306   6.120   3.717   3.572 -0.0362 -0.0919  0.9234
11964TIP3    H157307   6.177   3.693   3.498  0.5915 -1.6999  1.8645
11964TIP3    H257308   6.173   3.700   3.650 -0.8150  1.2094  1.7732
11965TIP3   OH257309   6.119   1.474   0.176  0.4304 -0.3200  0.0676
11965TIP3    H157310   6.202   1.467   0.223 -0.3313  0.1521  1.5423
11965TIP3    H257311   6.074   1.392   0.195  0.0935 -0.1044  0.2064
11966TIP3   OH257312   1.864   3.200   5.240 -0.2787 -0.6726 -0.1440
11966TIP3    H157313   1.914   3.171   5.317  1.0213 -0.0138 -0.7150
11966TIP3    H257314   1.845   3.292   5.257  0.5088 -0.3709 -0.8610
11967TIP3   OH257315   4.255   0.098   4.065  0.5998  0.3470  0.2937
11967TIP3    H157316   4.314   0.061   4.131  0.8356  2.7182  1.5460
11967TIP3    H257317   4.276   0.191   4.064 -1.3131  0.8335 -1.1642
11968TIP3   OH257318   4.539   5.991  15.185  1.0883  0.9891  0.2462
11968TIP3    H157319   4.556   6.047  15.261  0.5300  0.2203  0.9581
11968TIP3    H257320   4.606   5.923  15.190 -0.1762 -0.2516  1.2723
11969TIP3   OH257321   0.421   0.367  13.795 -0.3913  0.3751 -0.2671
11969TIP3    H157322   0.450   0.276  13.794 -0.2799  0.3686  1.2605
11969TIP3    H257323   0.464   0.407  13.719 -1.4283 -1.1125 -1.7112
11970TIP3   OH257324   4.760   2.150   4.972  0.2295 -0.9774 -0.2909
11970TIP3    H157325   4.788   2.062   4.944  2.5517 -1.2670  2.5259
11970TIP3    H257326   4.832   2.207   4.947 -0.1300 -0.3031  0.1938
11971TIP3   OH257327   1.521   6.099   1.905 -0.2515 -0.3808 -0.0553
11971TIP3    H157328   1.460   6.117   1.834  0.2934 -0.2637 -0.5025
11971TIP3    H257329   1.598   6.152   1.884 -1.0001  1.6635  1.9438
11972TIP3   OH257330   2.834   2.973   0.232  0.5963 -0.3146  0.4042
11972TIP3    H157331   2.866   2.928   0.154  1.6673  0.0269  0.6288
11972TIP3    H257332   2.763   2.918   0.264 -0.8463  0.2692 -1.5972
11973TIP3   OH257333   2.443   2.951  13.304 -0.0268 -0.4746 -0.0862
11973TIP3    H157334   2.499   2.922  13.232  0.3541  0.0992 -0.0266
11973TIP3    H257335   2.355   2.948  13.268  0.2577  1.0165 -1.0002
11974TIP3   OH257336   0.884   5.069   4.951 -0.1734  0.0176  0.1434
11974TIP3    H157337   0.884   4.980   4.986 -0.5023 -0.1675 -0.3156
11974TIP3    H257338   0.804   5.074   4.898  0.6171  0.0856 -1.0772
11975TIP3   OH257339   2.685   5.613  11.838  0.2047  0.1448  0.2226
11975TIP3    H157340   2.638   5.692  11.862 -0.2013 -0.1350  0.3637
11975TIP3    H257341   2.688   5.561  11.918  2.4515  0.9736  0.7611
11976TIP3   OH257342   1.766   6.179   1.784 -0.3352 -0.0402  0.0342
11976TIP3    H157343   1.849   6.225   1.771  0.4137 -1.3225  0.1180
11976TIP3    H257344   1.788   6.087   1.770 -1.7548 -0.3929  0.0484
11977TIP3   OH257345   4.065   4.379   0.318  0.3407 -0.6852  0.1935
11977TIP3    H157346   3.982   4.426   0.330 -0.6309 -2.2137 -0.2107
11977TIP3    H257347   4.066   4.314   0.388  2.0066  0.3618  1.1835
11978TIP3   OH257348   5.153   2.547   0.826 -0.1237  0.1497 -0.1512
11978TIP3    H157349   5.141   2.577   0.736 -0.9704 -4.5648 -1.9084
11978TIP3    H257350   5.194   2.461   0.818  0.3938 -0.2421  4.0651
11979TIP3   OH257351   0.712   0.130  13.821 -0.2112  0.0987  0.0569
11979TIP3    H157352   0.764   0.186  13.763 -0.8799  0.6204 -0.0506
11979TIP3    H257353   0.777   0.081  13.872  0.4901  2.9283  2.1458
11980TIP3   OH257354   5.141   6.760   5.331 -0.2237 -0.1325  0.6449
11980TIP3    H157355   5.142   6.726   5.242  0.4241 -1.1784  1.0341
11980TIP3    H257356   5.217   6.720   5.373  0.8702  2.2105  1.0089
11981TIP3   OH257357   0.383   0.425   5.099  0.2861  0.3214 -0.5801
11981TIP3    H157358   0.391   0.363   5.027  0.1225  0.4894 -0.7422
11981TIP3    H257359   0.355   0.371   5.173  0.0634  0.2158 -0.7404
11982TIP3   OH257360   6.382   1.886   0.711 -0.5134  0.0917  0.4692
11982TIP3    H157361   6.422   1.926   0.788 -0.7779  0.5520  0.3669
11982TIP3    H257362   6.331   1.813   0.747 -3.3726  2.2556  1.1621
11983TIP3   OH257363   2.442   3.148   5.897  0.0376 -0.9394  0.1094
11983TIP3    H157364   2.433   3.210   5.825 -1.1530 -1.2534 -0.0359
11983TIP3    H257365   2.441   3.201   5.976 -0.7679 -0.7486 -0.0245
11984TIP3   OH257366   3.665   2.674   0.578  0.2348 -0.2829 -0.5931
11984TIP3    H157367   3.576   2.639   0.579 -0.0818  0.5125 -0.4258
11984TIP3    H257368   3.685   2.695   0.669  1.2401 -2.0179 -0.3770
11985TIP3   OH257369   3.933   1.402  16.370 -0.3537 -0.5883 -0.0501
11985TIP3    H157370   3.973   1.324  16.410 -0.9169 -1.3128 -0.8597
11985TIP3    H257371   3.931   1.382  16.277  3.3186  2.1155 -0.9364
11986TIP3   OH257372   1.200   3.275   0.100  0.2367 -0.6096 -0.3698
11986TIP3    H157373   1.290   3.266   0.131  0.3903 -0.0388 -0.6291
11986TIP3    H257374   1.195   3.218   0.023  0.0536 -1.4915  0.2865
11987TIP3   OH257375   3.256   2.452   4.105  0.7306 -0.2627  0.3308
11987TIP3    H157376   3.318   2.447   4.033  1.6528 -1.4933  1.1742
11987TIP3    H257377   3.210   2.368   4.103  0.1793  0.0253  0.6696
11988TIP3   OH257378   5.109   5.284  15.556  0.5825  0.0297  0.5306
11988TIP3    H157379   5.201   5.276  15.584  0.8160 -0.9206 -0.4682
11988TIP3    H257380   5.107   5.366  15.506  0.6618  0.5492  1.3496
11989TIP3   OH257381   4.371   2.989  16.938 -0.3067  0.2035 -0.1575
11989TIP3    H157382   4.438   2.981  17.007  0.7065 -0.5483 -1.1848
11989TIP3    H257383   4.363   3.084  16.924 -0.1275  0.3415  0.6015
11990TIP3   OH257384   1.795   2.633   2.288  0.6243 -0.1161 -0.0785
11990TIP3    H157385   1.714   2.667   2.251  2.2023  2.5053 -1.4134
11990TIP3    H257386   1.827   2.570   2.222 -1.7120 -3.6698  1.8660
11991TIP3   OH257387   0.633   2.809  11.910 -0.0691  0.5399  0.2289
11991TIP3    H157388   0.672   2.776  11.829 -1.3879 -1.4500  0.3293
11991TIP3    H257389   0.574   2.878  11.881  1.4827  1.7758 -0.1698
11992TIP3   OH257390   3.798   1.575  11.581 -0.0728  0.1889 -0.1133
11992TIP3    H157391   3.843   1.659  11.581  1.5639 -0.6188 -1.7630
11992TIP3    H257392   3.830   1.531  11.660  1.2062  0.0856 -0.6584
11993TIP3   OH257393   6.202   0.124  15.724 -0.1695  0.3969  0.2050
11993TIP3    H157394   6.133   0.063  15.750 -2.2556  0.6198 -3.8933
11993TIP3    H257395   6.280   0.071  15.714 -0.8249 -0.7267  0.8861
11994TIP3   OH257396   0.653   3.539  12.846  0.5194 -0.1074 -0.2240
11994TIP3    H157397   0.702   3.508  12.770  1.3738 -0.0618  0.2925
11994TIP3    H257398   0.702   3.615  12.876 -1.2178  1.4354 -1.1211
11995TIP3   OH257399   1.246   4.649  17.357 -0.2898  0.0051  0.0857
11995TIP3    H157400   1.213   4.699  17.431 -0.6761 -2.0863  1.4217
11995TIP3    H257401   1.241   4.557  17.386  1.6944 -0.7491 -1.6600
11996TIP3   OH257402   2.885   2.052  12.199  0.7155  0.1640 -0.8158
11996TIP3    H157403   2.830   2.050  12.278  1.1741 -0.3667 -0.5048
11996TIP3    H257404   2.956   1.992  12.218  2.5705  2.3822 -0.3437
11997TIP3   OH257405   2.754   0.981  14.188  0.7572  0.8576  1.1007
11997TIP3    H157406   2.812   0.904  14.182 -0.7359 -0.3158  1.2045
11997TIP3    H257407   2.800   1.049  14.140  2.4816  0.1306  1.6335
11998TIP3   OH257408   6.385   4.419  15.075 -0.2047 -0.4209 -0.1976
11998TIP3    H157409   6.353   4.452  15.159  1.2713 -0.2601  0.3428
11998TIP3    H257410   6.382   4.494  15.016  0.5761  0.0002  0.2757
11999TIP3   OH257411   4.431   3.693  16.970  0.0005  0.7633 -0.4589
11999TIP3    H157412   4.433   3.737  16.886  3.2936 -0.8143 -1.4013
11999TIP3    H257413   4.508   3.727  17.016 -0.4068 -0.1328  0.9474
12000TIP3   OH257414   4.626   0.161   3.533 -0.1109  0.3448  0.1639
12000TIP3    H157415   4.609   0.175   3.440 -0.4591 -2.0338 -0.1791
12000TIP3    H257416   4.704   0.215   3.551  0.0030  0.7916 -1.5005
12001TIP3   OH257417   0.498   0.172   1.024 -0.0890  0.3406  0.2992
12001TIP3    H157418   0.489   0.098   1.083  2.3418  0.4408  0.9243
12001TIP3    H257419   0.579   0.215   1.052  0.5739  1.0455 -2.3813
12002TIP3   OH257420   4.791   3.408  16.838 -0.1309  0.7138 -0.0227
12002TIP3    H157421   4.706   3.423  16.880 -0.5222  0.1803 -0.6181
12002TIP3    H257422   4.776   3.427  16.746  0.1511 -0.2986 -0.2865
12003TIP3   OH257423   3.394   4.536   5.799  0.0231  0.3962 -0.4117
12003TIP3    H157424   3.454   4.610   5.809 -0.0049  0.2558  0.9946
12003TIP3    H257425   3.407   4.483   5.878 -0.6439 -0.5991 -0.9441
12004TIP3   OH257426   2.233   3.642  17.205  0.0151 -0.0144  0.2111
12004TIP3    H157427   2.231   3.566  17.264 -0.8826 -0.6013 -0.5562
12004TIP3    H257428   2.310   3.627  17.150  0.6990  0.3970  1.0356
12005TIP3   OH257429   1.228   4.508  12.983  0.1671  0.2469 -0.2295
12005TIP3    H157430   1.260   4.484  13.070 -2.0605  1.7755  1.0990
12005TIP3    H257431   1.301   4.555  12.943  0.9395  0.2998  1.1523
12006TIP3   OH257432   5.418   5.367   0.327 -0.0103 -0.4004 -0.0595
12006TIP3    H157433   5.433   5.356   0.233 -1.3049 -0.3784 -0.2761
12006TIP3    H257434   5.376   5.286   0.356  0.6028 -0.5116  0.5615
12007TIP3   OH257435   3.725   3.125  17.277  0.3827  0.3986 -0.3475
12007TIP3    H157436   3.742   3.219  17.277  0.0386  0.4666  0.1802
12007TIP3    H257437   3.635   3.116  17.246 -0.0128  0.3411  0.7673
12008TIP3   OH257438   2.622   5.284   1.157 -0.2048  0.0678 -0.0038
12008TIP3    H157439   2.628   5.329   1.241  0.1547  0.5124 -0.2675
12008TIP3    H257440   2.704   5.235   1.150  0.1682  0.7371 -0.4923
12009TIP3   OH257441   3.220   5.581  14.021  0.0183 -0.0132 -0.3555
12009TIP3    H157442   3.190   5.540  14.103 -1.2020  0.7405 -0.4068
12009TIP3    H257443   3.184   5.669  14.024  2.0594  0.8802 -0.5565
12010TIP3   OH257444   1.584   3.654  10.726 -0.1851  0.2481  0.1173
12010TIP3    H157445   1.556   3.621  10.812 -0.1909  0.3312  0.1477
12010TIP3    H257446   1.667   3.698  10.743 -1.2084  2.1227  0.4562
12011TIP3   OH257447   0.954   2.946   6.437  0.1862  0.0774  0.2744
12011TIP3    H157448   0.979   2.994   6.517  0.7778  0.7400 -0.2990
12011TIP3    H257449   0.859   2.943   6.441  0.1583  0.9460  0.5323
12012TIP3   OH257450   0.591   5.335  11.328 -0.2021 -0.1475  0.0556
12012TIP3    H157451   0.583   5.253  11.278  1.6065 -1.1614  1.3316
12012TIP3    H257452   0.652   5.388  11.276  2.7926 -1.7426  1.6473
12013TIP3   OH257453   2.398   1.904   4.022  0.1719 -0.0956  0.3211
12013TIP3    H157454   2.316   1.942   4.055  0.0823 -1.4957  1.8312
12013TIP3    H257455   2.456   1.901   4.097  1.7568  1.0931 -0.7856
12014TIP3   OH257456   5.283   3.780  14.584 -0.1956  0.8105 -0.0155
12014TIP3    H157457   5.271   3.709  14.648  1.0353  2.5682  2.3325
12014TIP3    H257458   5.316   3.736  14.506 -1.2169 -1.3927  0.7026
12015TIP3   OH257459   1.038   5.617  12.891 -0.3396  0.0155  0.5548
12015TIP3    H157460   1.120   5.587  12.852 -0.5467  1.2434 -0.9055
12015TIP3    H257461   0.989   5.656  12.819 -1.9463 -0.0973  1.5216
12016TIP3   OH257462   4.261   3.866  12.493 -0.3212  0.0822 -0.9637
12016TIP3    H157463   4.330   3.844  12.431  0.0157  0.9773 -0.9177
12016TIP3    H257464   4.262   3.795  12.557  0.8928  0.3398 -0.6856
12017TIP3   OH257465   3.420   2.628   1.812  0.5370  0.1948  0.0469
12017TIP3    H157466   3.425   2.708   1.864  0.2764  0.0152  0.3460
12017TIP3    H257467   3.353   2.647   1.746  0.6572  0.3120 -0.0449
12018TIP3   OH257468   2.307   6.083   0.775  0.3972  0.1635 -0.4363
12018TIP3    H157469   2.259   6.117   0.700  0.0748  0.3822 -0.1284
12018TIP3    H257470   2.391   6.054   0.738  0.1685  0.1007 -0.9106
12019TIP3   OH257471   5.632   1.090  16.962  0.4791  0.2670 -0.3096
12019TIP3    H157472   5.685   1.169  16.952  1.8648 -0.6087 -0.1450
12019TIP3    H257473   5.662   1.051  17.045 -0.3771 -0.2909 -0.2492
12020TIP3   OH257474   1.255   5.769   0.982 -0.0562  0.0144  0.5965
12020TIP3    H157475   1.237   5.752   1.075  1.6783  2.2110  1.4316
12020TIP3    H257476   1.221   5.857   0.968  2.8758  1.1923  0.2146
12021TIP3   OH257477   2.651   5.300   5.498  0.1831  0.2626 -0.0163
12021TIP3    H157478   2.701   5.227   5.462  0.1984  0.5192 -0.5364
12021TIP3    H257479   2.647   5.363   5.426 -1.1611  0.1168 -0.1100
12022TIP3   OH257480   4.800   5.888  13.258 -0.2221  0.0001 -0.3323
12022TIP3    H157481   4.806   5.983  13.271 -0.4146  0.2414 -1.7724
12022TIP3    H257482   4.707   5.868  13.269  0.1123 -0.4455  2.2790
12023TIP3   OH257483   6.563   4.535  12.158 -0.1474  0.6678 -0.0821
12023TIP3    H157484   6.604   4.518  12.074 -1.5488  0.7862 -0.8169
12023TIP3    H257485   6.490   4.473  12.163  0.6375 -0.2095  1.6141
12024TIP3   OH257486   3.213   2.056  16.813  1.3174 -0.8825 -0.1808
12024TIP3    H157487   3.177   2.094  16.893  0.0100 -1.7359 -0.3305
12024TIP3    H257488   3.290   2.110  16.793  2.0920 -1.0567  2.0081
12025TIP3   OH257489   0.631   2.722   3.743 -0.4798 -0.4163 -0.2263
12025TIP3    H157490   0.680   2.660   3.689 -0.2353 -0.4875  0.0723
12025TIP3    H257491   0.610   2.672   3.823 -2.2321 -0.8462 -0.9014
12026TIP3   OH257492   1.552   3.433   5.311 -0.3091 -0.1607 -0.0536
12026TIP3    H157493   1.545   3.341   5.335 -0.8359  0.2898  1.6845
12026TIP3    H257494   1.646   3.448   5.303 -0.1019 -0.4267  1.5752
12027TIP3   OH257495   5.112   1.621  11.275  0.2297  0.2165  0.0898
12027TIP3    H157496   5.165   1.691  11.236 -2.3129  2.2024 -0.0040
12027TIP3    H257497   5.102   1.557  11.205  2.5590 -0.3362  0.1602
12028TIP3   OH257498   4.472   4.196  11.517  0.5283 -0.1280 -0.7615
12028TIP3    H157499   4.480   4.281  11.476 -1.5393  0.8121  0.6216
12028TIP3    H257500   4.387   4.163  11.489  0.7660 -1.1918 -0.3018
12029TIP3   OH257501   1.569   4.684   0.769 -0.0087 -0.2507 -0.5453
12029TIP3    H157502   1.527   4.670   0.684 -1.0489  1.9128 -0.4562
12029TIP3    H257503   1.651   4.730   0.747  0.3516 -0.8462 -0.4543
12030TIP3   OH257504   2.556   3.334  12.135  0.0417  0.0558 -0.2399
12030TIP3    H157505   2.481   3.333  12.075 -0.5298 -0.4766  0.4672
12030TIP3    H257506   2.554   3.422  12.173 -0.1131  0.1080 -0.3658
12031TIP3   OH257507   0.815   1.947  11.894  0.2878 -0.1037  0.0608
12031TIP3    H157508   0.902   1.914  11.918 -0.0833 -1.0771  0.1091
12031TIP3    H257509   0.817   2.039  11.918  1.6589  0.1434 -0.9048
12032TIP3   OH257510   5.356   0.667   4.385 -0.1405 -0.2358 -0.1897
12032TIP3    H157511   5.265   0.646   4.364 -0.2697 -0.5464  0.6429
12032TIP3    H257512   5.405   0.589   4.359  0.1702  0.6257 -2.3836
12033TIP3   OH257513   3.096   3.481  10.384 -0.5417 -0.2307  0.1536
12033TIP3    H157514   3.114   3.573  10.364 -3.8289 -0.2886 -4.8390
12033TIP3    H257515   3.032   3.484  10.455 -2.1202  1.6160 -1.2409
12034TIP3   OH257516   0.468   1.921  15.204 -0.4633 -0.2052  0.0576
12034TIP3    H157517   0.464   1.958  15.292 -0.2588  0.2649 -0.1252
12034TIP3    H257518   0.561   1.902  15.190 -0.2593  1.1471 -0.6183
12035TIP3   OH257519   2.728   5.538  14.897 -0.3456  0.3290  0.3928
12035TIP3    H157520   2.717   5.452  14.855 -1.2631  0.9987 -0.7914
12035TIP3    H257521   2.819   5.562  14.876 -0.7890  0.6712 -1.3313
12036TIP3   OH257522   0.684   4.897   1.746 -0.3909  0.3998 -0.9333
12036TIP3    H157523   0.714   4.935   1.664  2.6686 -0.3013 -0.2734
12036TIP3    H257524   0.685   4.970   1.808 -1.5086  0.6749 -1.2252
12037TIP3   OH257525   3.961   3.233   4.060 -0.9128  0.6926 -0.3746
12037TIP3    H157526   3.993   3.164   4.002  0.9257  1.3757 -0.2405
12037TIP3    H257527   3.927   3.187   4.136 -0.4223 -0.0960 -0.6163
12038TIP3   OH257528   3.753   0.858  15.014  0.4759 -0.1876  0.3276
12038TIP3    H157529   3.698   0.835  15.088  1.1654  0.0585  0.9300
12038TIP3    H257530   3.719   0.942  14.982  1.4034  0.7147  1.6301
12039TIP3   OH257531   5.996   6.760   3.929 -0.4101 -0.1408  0.6534
12039TIP3    H157532   5.943   6.707   3.989 -0.2065 -1.1706 -0.0408
12039TIP3    H257533   5.941   6.770   3.852  0.2965 -1.0026  0.0270
12040TIP3   OH257534   3.129   2.071   3.889  0.5533 -0.0381 -0.2784
12040TIP3    H157535   3.062   2.018   3.846  1.3442  0.0100 -1.6340
12040TIP3    H257536   3.184   2.008   3.934 -0.3700 -0.0788  0.8404
12041TIP3   OH257537   1.072   0.091   4.622 -0.4213  0.3920 -0.5845
12041TIP3    H157538   0.986   0.099   4.581  0.0471  3.7619 -1.1979
12041TIP3    H257539   1.127   0.154   4.575  1.3791  1.0782  2.1916
12042TIP3   OH257540   0.867   3.956   2.458 -0.0258  0.0170 -0.5227
12042TIP3    H157541   0.926   3.881   2.450  0.9069  0.7841 -1.2369
12042TIP3    H257542   0.789   3.932   2.408  0.0177 -0.7076 -0.2436
12043TIP3   OH257543   0.172   3.644   6.721  0.0702  0.0870 -0.3576
12043TIP3    H157544   0.095   3.591   6.739 -0.9410  1.0385 -1.6576
12043TIP3    H257545   0.172   3.710   6.791 -0.3199  0.1004 -0.3657
12044TIP3   OH257546   0.367   4.114  15.076  0.0472 -0.5299  0.4693
12044TIP3    H157547   0.288   4.154  15.113 -0.1088 -0.5175  0.1368
12044TIP3    H257548   0.402   4.059  15.146 -0.7146 -1.1785  0.3595
12045TIP3   OH257549   5.141   3.078  12.983  0.5359  0.0325 -0.3165
12045TIP3    H157550   5.237   3.080  12.986  0.6431 -2.4153 -0.0052
12045TIP3    H257551   5.116   3.168  12.962  2.8707  0.8331  0.0125
12046TIP3   OH257552   0.905   2.490  14.393 -0.1586 -0.4142 -0.3547
12046TIP3    H157553   0.996   2.471  14.370  0.2814 -0.6042  1.3770
12046TIP3    H257554   0.907   2.578  14.429 -0.6118 -0.5024 -0.1053
12047TIP3   OH257555   5.004   6.040   1.615 -0.9701 -0.4802  0.1861
12047TIP3    H157556   4.975   6.126   1.584 -0.4807 -0.2405  0.3763
12047TIP3    H257557   5.076   6.017   1.556 -1.9202 -1.3570 -0.6866
12048TIP3   OH257558   4.929   0.456   2.420  0.2083 -0.1591 -0.3805
12048TIP3    H157559   4.936   0.410   2.337  0.5975  1.5591 -1.3444
12048TIP3    H257560   4.834   0.470   2.431  0.2586  2.3265 -2.1810
12049TIP3   OH257561   3.154   3.566  10.697 -0.5512  0.0070 -0.0513
12049TIP3    H157562   3.147   3.637  10.634 -2.8114  0.2016  0.3320
12049TIP3    H257563   3.085   3.505  10.672 -1.9687  0.4057  2.5599
12050TIP3   OH257564   6.262   4.756   1.664  0.2583  0.0097  0.3272
12050TIP3    H157565   6.304   4.833   1.704 -0.9281  0.6301  0.4200
12050TIP3    H257566   6.313   4.740   1.585  1.4139 -0.0156  1.0464
12051TIP3   OH257567   5.083   3.443   5.785  0.4555  0.5069  0.0201
12051TIP3    H157568   5.042   3.520   5.745  2.2469  1.5185  0.0429
12051TIP3    H257569   5.101   3.469   5.875  0.7741 -0.0682  0.1279
12052TIP3   OH257570   2.124   0.386   1.931 -0.2681 -0.1191 -0.5415
12052TIP3    H157571   2.067   0.457   1.902 -0.5893 -0.6344 -1.1610
12052TIP3    H257572   2.142   0.407   2.023 -2.0561 -0.3534 -0.1160
12053TIP3   OH257573   0.616   5.080   5.276  0.6863 -0.1623  0.0454
12053TIP3    H157574   0.676   5.008   5.296 -0.1884 -0.6852  0.8373
12053TIP3    H257575   0.671   5.158   5.276  1.4094 -0.6659  0.5011
12054TIP3   OH257576   6.431   2.908   2.532 -0.3051  0.0876  0.0677
12054TIP3    H157577   6.457   2.910   2.440 -1.2402  1.1764 -0.2014
12054TIP3    H257578   6.443   2.817   2.558  1.2689  0.0393 -0.7320
12055TIP3   OH257579   2.774   0.027   1.811  0.2753 -0.0801  0.3291
12055TIP3    H157580   2.694   0.023   1.864  0.7737  0.9313  1.2156
12055TIP3    H257581   2.844   0.001   1.871  0.9701  1.9433  0.5013
12056TIP3   OH257582   3.720   3.647  17.302 -0.0223  0.4734  0.4526
12056TIP3    H157583   3.664   3.642  17.380  1.2623  1.3993  1.4695
12056TIP3    H257584   3.761   3.733  17.308  2.2622 -0.5544  0.2880
12057TIP3   OH257585   1.219   5.176   3.764  0.2723  0.2869  0.0234
12057TIP3    H157586   1.264   5.258   3.785  0.6108  0.1232 -0.0527
12057TIP3    H257587   1.202   5.135   3.848 -1.9707  1.5086  0.2277
12058TIP3   OH257588   1.297   5.026   1.434  0.1148  0.4086 -0.0231
12058TIP3    H157589   1.275   4.994   1.346  0.6422  0.5347 -0.2072
12058TIP3    H257590   1.254   5.111   1.440 -2.8769 -1.0558  1.1657
12059TIP3   OH257591   0.867   5.063   2.231 -0.0940  0.7399  1.2196
12059TIP3    H157592   0.880   5.019   2.147 -0.2693  1.2666  0.9067
12059TIP3    H257593   0.887   5.155   2.213 -2.3262  1.2701  1.1568
12060TIP3   OH257594   0.557   1.203  11.796 -0.2722 -0.4338 -0.0794
12060TIP3    H157595   0.555   1.286  11.749  2.9125 -0.0740  0.2241
12060TIP3    H257596   0.603   1.222  11.878  1.9847 -2.7316 -0.6813
12061TIP3   OH257597   5.642   5.496  16.725 -0.2874 -0.0795  0.0062
12061TIP3    H157598   5.704   5.522  16.794 -0.4819  0.5202 -0.0411
12061TIP3    H257599   5.649   5.565  16.659 -0.7466 -0.1922 -0.1638
12062TIP3   OH257600   1.259   1.136   2.978 -0.5683  0.1545  0.5962
12062TIP3    H157601   1.305   1.105   3.057  1.0059  0.9494  0.0382
12062TIP3    H257602   1.252   1.059   2.922  2.7452  0.4956 -0.5176
12063TIP3   OH257603   5.664   1.882  11.559  0.0006  0.0124  0.0639
12063TIP3    H157604   5.732   1.863  11.495 -1.0844 -0.4284 -0.9950
12063TIP3    H257605   5.659   1.977  11.561  0.0541  0.0289 -0.4944
12064TIP3   OH257606   3.469   2.018  17.296  0.6475  0.1037  0.2427
12064TIP3    H157607   3.552   2.018  17.342  0.7619  1.0733  0.0418
12064TIP3    H257608   3.409   2.066  17.353  0.0867 -0.9741  0.6013
12065TIP3   OH257609   6.604   6.406   0.495  0.9326 -0.4327 -0.0648
12065TIP3    H157610   6.646   6.426   0.412 -0.8588 -0.0422 -0.9332
12065TIP3    H257611   6.530   6.467   0.499 -0.1233 -1.7339  0.8999
12066TIP3   OH257612   5.851   1.593  12.281 -0.3158 -0.2553  0.5350
12066TIP3    H157613   5.919   1.621  12.221  0.6758  1.5500  2.3886
12066TIP3    H257614   5.778   1.567  12.224  0.6544  1.1093 -1.4373
12067TIP3   OH257615   5.100   3.677  16.570 -0.3833  0.2606 -0.3124
12067TIP3    H157616   5.128   3.655  16.659 -1.2357 -1.7324 -0.4854
12067TIP3    H257617   5.182   3.682  16.520 -0.0290 -0.8127  0.1364
12068TIP3   OH257618   6.363   3.291  11.875 -0.2563 -0.2342 -0.0340
12068TIP3    H157619   6.336   3.380  11.898 -1.4077 -0.4538 -0.4930
12068TIP3    H257620   6.378   3.294  11.780  2.4402  0.1401  0.3007
12069TIP3   OH257621   3.117   1.700   0.111 -0.1848  0.6881  0.2434
12069TIP3    H157622   3.025   1.674   0.113  0.1510 -0.5326  0.6755
12069TIP3    H257623   3.128   1.754   0.190 -0.8560  2.0842 -0.5856
12070TIP3   OH257624   2.496   5.187  16.493  0.0408  0.1251 -0.0275
12070TIP3    H157625   2.581   5.188  16.449 -0.6533 -0.4841 -1.4493
12070TIP3    H257626   2.497   5.108  16.546 -0.1272 -0.6109 -1.0942
12071TIP3   OH257627   2.399   3.301   2.399 -0.2977  0.6873 -0.5335
12071TIP3    H157628   2.456   3.258   2.336 -0.5769  1.1769 -1.1302
12071TIP3    H257629   2.459   3.341   2.462  0.0290  1.3174 -1.2346
12072TIP3   OH257630   0.717   5.881  10.550  0.1375  0.1177  0.3520
12072TIP3    H157631   0.671   5.919  10.625  1.5812  0.6531  1.0224
12072TIP3    H257632   0.781   5.948  10.526 -0.3103 -0.0494 -1.3913
12073TIP3   OH257633   2.839   1.219   3.161 -0.3911 -0.6249  0.2003
12073TIP3    H157634   2.863   1.301   3.119  3.4143 -2.8016 -2.5294
12073TIP3    H257635   2.877   1.224   3.249  0.3628  0.3276 -0.1669
12074TIP3   OH257636   1.783   6.767  14.501  0.2496  0.3695  0.2937
12074TIP3    H157637   1.757   6.720  14.421  0.3865  0.2299  0.3309
12074TIP3    H257638   1.877   6.782  14.491  0.3409  0.0163  0.5994
12075TIP3   OH257639   5.594   5.628  11.927  0.4692  0.2358  0.5343
12075TIP3    H157640   5.553   5.646  12.011 -1.4426  0.3429 -0.3835
12075TIP3    H257641   5.590   5.711  11.880 -0.8792 -0.4385 -0.6172
12076TIP3   OH257642   0.451   2.289   3.614  0.4122  0.4465  0.0031
12076TIP3    H157643   0.394   2.333   3.677 -0.9490  0.0815 -0.9325
12076TIP3    H257644   0.458   2.199   3.647 -1.1277 -0.0198 -0.8581
12077TIP3   OH257645   0.579   1.901  12.907  0.0622 -0.5702  0.2737
12077TIP3    H157646   0.593   1.863  12.994 -0.5934  1.0568  1.1461
12077TIP3    H257647   0.513   1.844  12.867  0.9533 -1.8066  0.4940
12078TIP3   OH257648   2.990   2.642   1.214  0.6337 -0.0192  0.6122
12078TIP3    H157649   3.065   2.582   1.210  0.0299 -0.8101  0.7215
12078TIP3    H257650   3.025   2.723   1.251  1.8666  0.3350 -1.2030
12079TIP3   OH257651   6.097   2.211  13.779  0.0297  0.1832  0.7176
12079TIP3    H157652   6.113   2.305  13.781  0.1632  0.1634  2.2899
12079TIP3    H257653   6.148   2.179  13.705 -1.7799  1.5979 -1.2523
12080TIP3   OH257654   3.647   4.392   3.400  0.5406  0.6486 -1.0115
12080TIP3    H157655   3.596   4.372   3.478  0.6005 -0.6239 -1.2755
12080TIP3    H257656   3.669   4.307   3.363  0.0089  1.2062 -2.7456
12081TIP3   OH257657   4.560   3.057   2.111 -0.1176 -0.0729  0.0917
12081TIP3    H157658   4.540   3.105   2.191 -2.5965 -1.5995  0.4828
12081TIP3    H257659   4.594   3.123   2.051  0.2675  1.3906  1.8423
12082TIP3   OH257660   1.616   2.498  15.559 -0.1910  0.0084 -0.3950
12082TIP3    H157661   1.710   2.483  15.571 -0.3804  0.2620  2.0930
12082TIP3    H257662   1.574   2.441  15.623 -1.6660  0.7661 -0.6352
12083TIP3   OH257663   6.271   0.202   4.856 -0.1244 -0.0525  0.0156
12083TIP3    H157664   6.340   0.265   4.874  0.3121 -0.4125 -0.3809
12083TIP3    H257665   6.280   0.183   4.763  0.5618 -1.6523  0.3816
12084TIP3   OH257666   4.494   2.998   0.932  0.1755 -0.4615  0.3319
12084TIP3    H157667   4.564   2.993   0.866  0.6862  0.2424  0.8008
12084TIP3    H257668   4.434   2.927   0.909  0.3238 -0.2111 -0.9099
12085TIP3   OH257669   0.969   1.003   4.928  0.0638 -0.0282 -0.3950
12085TIP3    H157670   1.051   1.021   4.974  0.7612 -1.9512 -0.7849
12085TIP3    H257671   0.978   0.912   4.899 -2.8689 -0.8299  0.9398
12086TIP3   OH257672   2.826   6.068   1.333  0.3668  0.1901  0.5512
12086TIP3    H157673   2.871   6.008   1.393 -0.6157 -0.2681  0.8465
12086TIP3    H257674   2.868   6.153   1.349  0.5342 -0.0502  1.4468
12087TIP3   OH257675   0.506   6.235  11.121  0.1659 -0.2310  0.6183
12087TIP3    H157676   0.602   6.228  11.117  0.2752  1.3107 -0.4510
12087TIP3    H257677   0.475   6.181  11.048  0.2819 -0.0453  0.4290
12088TIP3   OH257678   5.715   6.082   5.173 -0.7960 -0.2651  0.6718
12088TIP3    H157679   5.763   6.158   5.140  0.4702 -1.4292 -0.2913
12088TIP3    H257680   5.626   6.113   5.185 -0.8952  0.7593 -2.1198
12089TIP3   OH257681   1.609   1.266   0.297  0.4560 -0.5067 -0.5072
12089TIP3    H157682   1.596   1.189   0.242 -0.2785  0.2479 -1.4138
12089TIP3    H257683   1.688   1.246   0.348 -0.7020 -2.6042  0.6020
12090TIP3   OH257684   6.364   2.103  11.070 -1.2020 -0.2297  0.4298
12090TIP3    H157685   6.311   2.182  11.082 -1.6661 -0.2593 -1.2209
12090TIP3    H257686   6.301   2.034  11.049 -0.6292 -0.5066 -0.4669
12091TIP3   OH257687   3.357   6.440  17.161  0.4899  0.0620  0.0729
12091TIP3    H157688   3.384   6.487  17.082  1.6210 -0.5705  0.0685
12091TIP3    H257689   3.304   6.367  17.129  1.2668 -0.4172 -0.1401
12092TIP3   OH257690   1.541   2.490  15.972 -0.1474  0.2038 -0.3287
12092TIP3    H157691   1.609   2.553  15.998 -1.1910  0.3374  2.3575
12092TIP3    H257692   1.464   2.544  15.955 -0.6114 -0.1843  0.4529
12093TIP3   OH257693   4.455   3.470  14.499 -0.5349  0.0733 -0.3392
12093TIP3    H157694   4.426   3.548  14.452 -0.1789 -0.1387 -0.9206
12093TIP3    H257695   4.536   3.444  14.455 -0.1658 -0.0977  0.4276
12094TIP3   OH257696   6.263   4.120   3.362  0.5977  0.0181 -0.4252
12094TIP3    H157697   6.342   4.170   3.385  1.4863 -0.8559 -1.4557
12094TIP3    H257698   6.220   4.172   3.295 -1.1120  1.7501  1.8725
12095TIP3   OH257699   1.988   1.005   3.502 -0.3339 -0.0743  0.2359
12095TIP3    H157700   2.010   0.979   3.412 -2.5395  0.8417 -0.6607
12095TIP3    H257701   1.951   0.926   3.541 -0.8256 -0.0828 -0.2236
12096TIP3   OH257702   4.483   3.478   3.941 -0.2277 -0.2426 -0.0409
12096TIP3    H157703   4.416   3.456   4.006 -1.0829  0.6641 -0.5931
12096TIP3    H257704   4.487   3.574   3.942  0.4297 -0.2565 -0.6623
12097TIP3   OH257705   2.795   0.982   4.244  0.2705 -0.3521  0.9339
12097TIP3    H157706   2.768   0.954   4.157 -0.0689  0.3563  0.8137
12097TIP3    H257707   2.748   0.922   4.303  0.4346 -0.7765  0.6425
12098TIP3   OH257708   4.174   6.257   4.566  0.1317 -0.5042  0.0419
12098TIP3    H157709   4.183   6.209   4.649 -1.1608  1.3623  1.3249
12098TIP3    H257710   4.087   6.233   4.534 -0.0889  0.1461  0.1469
12099TIP3   OH257711   3.486   0.933  11.439 -0.2295  0.2045 -0.3730
12099TIP3    H157712   3.417   0.874  11.408 -0.6066  0.5899 -0.2799
12099TIP3    H257713   3.544   0.877  11.491 -0.7119 -0.0382 -0.0858
12100TIP3   OH257714   6.096   0.115   1.427 -0.1899 -0.7720  0.3555
12100TIP3    H157715   6.123   0.027   1.401 -0.5194 -1.1666  1.2893
12100TIP3    H257716   6.142   0.173   1.367  0.7789 -1.5409  0.3241
12101TIP3   OH257717   2.883   1.395   0.161  0.8727 -0.3207 -0.1129
12101TIP3    H157718   2.823   1.371   0.232 -0.7537  0.2508 -1.2220
12101TIP3    H257719   2.844   1.474   0.122  0.6308 -1.6230 -2.7722
12102TIP3   OH257720   4.137   6.611   0.787  0.2541 -0.0429 -0.2846
12102TIP3    H157721   4.154   6.703   0.807 -0.0348  0.9833 -4.0618
12102TIP3    H257722   4.045   6.610   0.759 -0.2999 -1.9024  1.3811
12103TIP3   OH257723   1.731   2.428  12.101 -0.3181  0.0265  0.0388
12103TIP3    H157724   1.729   2.522  12.117 -0.6459  0.6554 -2.9478
12103TIP3    H257725   1.666   2.414  12.032 -0.0689 -2.3446  0.1918
12104TIP3   OH257726   3.945   2.995  17.372 -0.7045 -0.5794  0.1209
12104TIP3    H157727   3.859   3.031  17.391 -1.5047 -1.8135 -0.9720
12104TIP3    H257728   3.937   2.959  17.284  1.2872  0.3200 -0.4796
12105TIP3   OH257729   2.230   1.876  12.793  0.2720 -0.1097  0.6590
12105TIP3    H157730   2.279   1.845  12.869 -0.2563  0.5710  1.2875
12105TIP3    H257731   2.292   1.870  12.721  0.4376 -1.8359  0.9091
12106TIP3   OH257732   3.962   0.624  16.308  0.4965  0.1791 -0.4987
12106TIP3    H157733   4.051   0.651  16.330  0.1608  1.3501 -0.4809
12106TIP3    H257734   3.942   0.672  16.228 -0.8595  1.6128  0.6384
12107TIP3   OH257735   2.550   0.098   0.600 -0.0340  0.2774  0.1143
12107TIP3    H157736   2.560   0.018   0.652  0.1797 -1.5572 -2.5174
12107TIP3    H257737   2.638   0.134   0.593  0.6312 -1.4741 -1.7663
12108TIP3   OH257738   1.905   3.684   1.676 -1.0566  0.3800 -0.4942
12108TIP3    H157739   1.922   3.611   1.616 -0.6463  0.8591 -0.9737
12108TIP3    H257740   1.904   3.644   1.763  0.1536 -0.0541 -0.6639
12109TIP3   OH257741   6.612   6.749  16.361  0.2965  0.4840 -0.3136
12109TIP3    H157742   6.516   6.748  16.353  0.3511 -0.4111 -0.9657
12109TIP3    H257743   6.627   6.750  16.456 -0.3343  3.5393 -0.1270
12110TIP3   OH257744   2.405   3.716  14.574 -0.1342 -0.1782 -0.0463
12110TIP3    H157745   2.359   3.651  14.520  0.5123  0.7927 -1.8202
12110TIP3    H257746   2.336   3.775  14.605 -0.6354 -1.2844  1.0467
12111TIP3   OH257747   1.280   0.940  11.752 -0.1872 -0.1924  0.3050
12111TIP3    H157748   1.363   0.937  11.705 -0.4143 -0.4341 -0.0849
12111TIP3    H257749   1.215   0.908  11.689 -0.4954 -0.5328  0.7889
12112TIP3   OH257750   1.148   5.094  12.500  0.2550  0.7314 -0.1286
12112TIP3    H157751   1.208   5.020  12.489  1.1920  1.3663  0.5445
12112TIP3    H257752   1.064   5.062  12.469  0.1950 -1.2353  1.8488
12113TIP3   OH257753   3.798   3.416   2.227  0.0111 -0.4445  0.5829
12113TIP3    H157754   3.880   3.390   2.184  0.3366  1.0721  0.2057
12113TIP3    H257755   3.801   3.375   2.313  1.6636  0.3694  0.9602
12114TIP3   OH257756   5.647   6.476   0.884 -0.0027  0.9964 -0.4056
12114TIP3    H157757   5.621   6.432   0.966  0.3285 -0.3052 -0.9720
12114TIP3    H257758   5.667   6.566   0.911  0.5295  0.4884  1.0322
12115TIP3   OH257759   2.868   4.911   1.462  0.1807  0.8314  0.0181
12115TIP3    H157760   2.902   4.998   1.483  1.3862  0.8123 -1.6282
12115TIP3    H257761   2.776   4.925   1.443  0.5855  1.9507 -1.2461
12116TIP3   OH257762   5.458   2.479  15.203 -0.6956 -0.7487  0.2967
12116TIP3    H157763   5.376   2.486  15.253 -0.3909 -2.4398  1.0737
12116TIP3    H257764   5.508   2.556  15.230 -1.8036  0.0487  0.1851
12117TIP3   OH257765   4.051   4.369   1.190 -0.4819 -0.3488 -0.0160
12117TIP3    H157766   4.034   4.449   1.141  0.8792 -0.6415 -1.0101
12117TIP3    H257767   3.980   4.366   1.255 -1.4625  0.8240 -0.9737
12118TIP3   OH257768   1.286   6.564  17.369  0.1654 -0.0343  0.5817
12118TIP3    H157769   1.215   6.620  17.399 -0.9879 -1.0572 -0.1157
12118TIP3    H257770   1.248   6.476  17.367  0.5853 -0.2727 -2.3356
12119TIP3   OH257771   4.580   2.605  15.948 -0.3195  0.3699  0.3297
12119TIP3    H157772   4.554   2.558  16.027  0.4060 -1.3555 -0.3834
12119TIP3    H257773   4.576   2.539  15.879  1.8926  1.0199 -0.5373
12120TIP3   OH257774   6.655   2.783  11.165  0.1532  0.1918 -0.0259
12120TIP3    H157775   6.602   2.850  11.208  0.5562  0.9819 -0.7274
12120TIP3    H257776   6.609   2.765  11.083 -0.3085 -0.8981  0.4377
12121TIP3   OH257777   5.456   3.467   5.685  0.0894 -0.0359  0.2288
12121TIP3    H157778   5.411   3.545   5.652 -1.4872 -1.9955 -2.8742
12121TIP3    H257779   5.537   3.463   5.634 -0.0191 -0.5489  0.0828
12122TIP3   OH257780   2.552   5.998   5.363  0.2669  0.1586  0.0927
12122TIP3    H157781   2.522   5.982   5.452  2.4818  0.2350  0.9226
12122TIP3    H257782   2.537   5.916   5.317  0.1666 -0.2632  0.8678
12123TIP3   OH257783   2.120   0.726  12.271 -0.4713 -0.6537 -0.5704
12123TIP3    H157784   2.131   0.643  12.318  0.9923  0.0276  0.3578
12123TIP3    H257785   2.062   0.704  12.198  0.5554 -2.6980 -0.8552
12124TIP3   OH257786   3.245   5.834   5.995  0.2002  0.0001 -0.5868
12124TIP3    H157787   3.282   5.904   6.047  0.3023 -0.5101  0.0407
12124TIP3    H257788   3.273   5.754   6.039 -1.3067 -0.4131 -0.3123
12125TIP3   OH257789   4.049   6.393  13.318 -0.0787  0.2036  0.8059
12125TIP3    H157790   4.139   6.383  13.349 -0.1055 -0.4537  0.6717
12125TIP3    H257791   3.996   6.392  13.398  0.0778  1.2852  0.9440
12126TIP3   OH257792   0.905   0.615   4.430 -0.5906  0.0920 -0.4539
12126TIP3    H157793   0.988   0.662   4.428 -0.1103 -0.7663 -2.1813
12126TIP3    H257794   0.892   0.592   4.523  2.1961 -1.6609 -0.3976
12127TIP3   OH257795   6.287   1.312   4.943  0.5061 -0.4898 -0.1252
12127TIP3    H157796   6.215   1.251   4.960 -2.1353  1.9432 -1.6745
12127TIP3    H257797   6.299   1.359   5.025 -1.4130  0.6894 -0.4656
12128TIP3   OH257798   4.501   0.888  13.718 -0.5213 -0.5910 -0.0487
12128TIP3    H157799   4.588   0.923  13.698 -0.3548 -0.4951  0.8256
12128TIP3    H257800   4.496   0.889  13.813 -2.6189  2.2274 -0.0910
12129TIP3   OH257801   4.058   5.303  15.421 -0.0459 -0.2628 -0.0495
12129TIP3    H157802   4.061   5.241  15.348  0.2870  0.6349 -0.8226
12129TIP3    H257803   4.072   5.389  15.380  2.2002  0.0989  1.2790
12130TIP3   OH257804   5.639   1.539   0.261  0.1525 -0.0959  0.0552
12130TIP3    H157805   5.709   1.594   0.225 -1.5467  0.9331 -1.9384
12130TIP3    H257806   5.656   1.452   0.224  0.1861  0.2350 -0.7341
12131TIP3   OH257807   5.216   3.483  16.318 -0.2628 -0.6918 -0.2266
12131TIP3    H157808   5.215   3.401  16.367  0.5910 -1.9752 -2.2368
12131TIP3    H257809   5.286   3.534  16.359 -2.7221  0.4367  3.0024
12132TIP3   OH257810   6.151   5.918  17.379  0.1141 -0.2135  0.3620
12132TIP3    H157811   6.117   5.941  17.293  0.8035  2.2090  0.6487
12132TIP3    H257812   6.074   5.889  17.429 -0.4161 -0.8809 -0.8132
12133TIP3   OH257813   0.819   2.536  11.235 -0.6692  0.8471 -0.0528
12133TIP3    H157814   0.878   2.500  11.169 -0.9521  0.2231  0.0269
12133TIP3    H257815   0.737   2.552  11.189 -0.8993  0.3135  0.1663
12134TIP3   OH257816   5.811   5.290   3.443 -0.5304 -0.2989  0.1572
12134TIP3    H157817   5.839   5.329   3.360 -0.1652 -1.9751 -0.5514
12134TIP3    H257818   5.716   5.295   3.441 -0.4965  0.5186  0.0882
12135TIP3   OH257819   4.036   0.979  15.973 -0.0545  0.6568  0.1869
12135TIP3    H157820   4.110   0.979  16.033 -0.3880  0.7524  0.6086
12135TIP3    H257821   4.073   0.953  15.888  0.1055 -1.3184  0.8211
12136TIP3   OH257822   5.494   6.366   4.046  0.1920  0.2720 -0.3692
12136TIP3    H157823   5.570   6.383   4.101 -0.9903  0.1981  1.3925
12136TIP3    H257824   5.434   6.317   4.104 -0.7783 -0.5329 -1.9949
12137TIP3   OH257825   4.802   3.785  12.142 -0.3852 -0.1047 -0.2808
12137TIP3    H157826   4.787   3.854  12.207 -0.0115  0.2810 -0.6051
12137TIP3    H257827   4.893   3.759  12.156 -0.3980 -0.2344 -0.4474
12138TIP3   OH257828   0.904   5.624  14.767 -0.4709  0.0811 -0.2345
12138TIP3    H157829   0.981   5.582  14.728 -0.8059 -1.3323  0.5283
12138TIP3    H257830   0.829   5.584  14.722 -0.8277 -0.9263  1.1703
12139TIP3   OH257831   0.431   2.803  15.319  0.0633  0.0064 -0.3669
12139TIP3    H157832   0.401   2.746  15.390 -1.7817  0.6767 -0.5300
12139TIP3    H257833   0.377   2.882  15.328  2.4169  1.6896 -0.2482
12140TIP3   OH257834   0.682   3.702   4.620  0.6642  0.0101  0.5883
12140TIP3    H157835   0.656   3.782   4.666 -0.1336  0.6471 -0.8967
12140TIP3    H257836   0.681   3.634   4.687 -1.0808  0.7655  1.3882
12141TIP3   OH257837   4.500   2.358   2.574 -0.2337  0.0425  0.8519
12141TIP3    H157838   4.488   2.400   2.659  0.1063 -0.0620  0.9535
12141TIP3    H257839   4.539   2.273   2.594 -0.7604 -0.2605  0.6368
12142TIP3   OH257840   2.410   2.196  11.691  0.3614  0.4372  0.0739
12142TIP3    H157841   2.340   2.208  11.754 -1.2751 -1.6341 -1.2006
12142TIP3    H257842   2.375   2.229  11.609 -0.0297 -2.3695 -1.0162
12143TIP3   OH257843   4.476   5.493   2.415 -0.0651  0.0794  0.1287
12143TIP3    H157844   4.402   5.549   2.439  0.4617  0.6599  0.4320
12143TIP3    H257845   4.444   5.442   2.341 -0.1990  1.6184 -0.9272
12144TIP3   OH257846   2.879   6.733   4.383 -0.2482  0.2168  0.3972
12144TIP3    H157847   2.847   6.712   4.295 -0.2429 -0.8367  0.6312
12144TIP3    H257848   2.974   6.736   4.374 -0.0880 -1.9240  0.7327
12145TIP3   OH257849   4.535   1.160  14.717 -0.7775 -0.2305 -0.0668
12145TIP3    H157850   4.446   1.190  14.735  0.3128  1.4622  3.3214
12145TIP3    H257851   4.549   1.086  14.776  0.1137 -0.3743 -0.4331
12146TIP3   OH257852   4.100   6.361   4.981 -0.4172  0.1898 -0.2451
12146TIP3    H157853   4.047   6.437   4.958  0.5633  1.3322  1.0978
12146TIP3    H257854   4.190   6.392   4.972  0.0012 -0.8692  0.1803
12147TIP3   OH257855   6.694   5.914   3.055 -0.4261  0.4874 -0.5065
12147TIP3    H157856   6.643   5.969   2.996 -1.6527 -0.0444  0.0281
12147TIP3    H257857   6.690   5.960   3.140 -0.0264  0.4372 -0.4605
12148TIP3   OH257858   5.046   2.433   3.142 -0.5881  0.4219 -0.0887
12148TIP3    H157859   5.131   2.439   3.186 -0.5493  0.3589 -0.1553
12148TIP3    H257860   5.063   2.378   3.065 -1.2513 -1.8132  1.2716
12149TIP3   OH257861   1.778   0.960  14.394 -0.1335  0.1397 -0.2549
12149TIP3    H157862   1.767   0.880  14.342 -0.3676  0.1775 -0.2657
12149TIP3    H257863   1.863   0.950  14.436 -1.2021 -1.2416  1.6845
12150TIP3   OH257864   3.221   4.876   3.562 -0.0495 -0.1165 -0.4030
12150TIP3    H157865   3.275   4.819   3.616 -1.5439 -1.6565 -0.4350
12150TIP3    H257866   3.226   4.961   3.605  0.8680 -0.6780  0.6635
12151TIP3   OH257867   1.461   4.018   0.419 -0.2867  0.1334  0.3248
12151TIP3    H157868   1.451   4.090   0.481  0.2052 -0.1274  0.7112
12151TIP3    H257869   1.545   4.034   0.377 -0.9066  0.6683 -0.7613
12152TIP3   OH257870   3.631   3.980   5.104  0.4130  0.0461  0.7569
12152TIP3    H157871   3.685   4.003   5.179  0.2212 -0.0355  0.9181
12152TIP3    H257872   3.553   3.941   5.141  0.3685 -0.1000  0.5105
12153TIP3   OH257873   3.861   5.445   3.970 -0.3937  0.4812  0.2921
12153TIP3    H157874   3.799   5.446   3.897 -0.1425 -0.8665  0.0392
12153TIP3    H257875   3.816   5.490   4.041  0.1486  3.7852 -1.2782
12154TIP3   OH257876   5.070   0.623  16.687 -0.3803  0.4951  0.1764
12154TIP3    H157877   5.108   0.704  16.652  0.9265 -0.5165 -0.8272
12154TIP3    H257878   5.037   0.576  16.611 -0.8272 -0.0822  0.7100
12155TIP3   OH257879   3.500   6.142   3.087  0.4708 -0.1469 -0.3684
12155TIP3    H157880   3.524   6.059   3.046  1.4955 -1.1673  2.1459
12155TIP3    H257881   3.552   6.207   3.039  1.7987 -1.3101 -0.5698
12156TIP3   OH257882   4.690   0.066  16.275  0.6217 -0.8913 -0.7285
12156TIP3    H157883   4.783   0.070  16.299  0.0582 -0.4613  1.6647
12156TIP3    H257884   4.651   0.010  16.342 -1.4450  1.9395  0.6436
12157TIP3   OH257885   0.191   6.271   5.047 -0.4573  0.1984  0.5597
12157TIP3    H157886   0.211   6.362   5.024  2.8592 -0.6374 -0.4556
12157TIP3    H257887   0.153   6.234   4.967  2.7296 -0.4082 -0.8396
12158TIP3   OH257888   2.156   1.991   4.437  0.9402  0.0552 -0.2402
12158TIP3    H157889   2.165   2.086   4.446  0.3083  0.1369 -0.4257
12158TIP3    H257890   2.203   1.971   4.355  1.7715  0.0889  0.2187
12159TIP3   OH257891   5.617   0.848  15.422 -0.2874  0.3595  0.1201
12159TIP3    H157892   5.548   0.895  15.375 -0.8773 -0.2073  0.3972
12159TIP3    H257893   5.698   0.874  15.378 -0.9094 -1.0380 -2.0018
12160TIP3   OH257894   1.484   4.427   3.122 -0.2162 -0.1809 -0.0483
12160TIP3    H157895   1.549   4.472   3.067 -1.2044  0.1154 -1.0126
12160TIP3    H257896   1.421   4.496   3.144 -0.8504 -0.7357 -0.1311
12161TIP3   OH257897   0.439   4.770  13.351 -0.3214 -0.3779  0.0778
12161TIP3    H157898   0.360   4.778  13.405 -1.1040 -0.3227 -1.0547
12161TIP3    H257899   0.416   4.708  13.282  0.2408  0.4914 -0.9326
12162TIP3   OH257900   3.306   6.185  14.690  0.3391  0.2072 -0.3462
12162TIP3    H157901   3.367   6.170  14.618 -0.9224 -1.0456 -1.2033
12162TIP3    H257902   3.237   6.239  14.651 -0.0719 -0.0043  0.0877
12163TIP3   OH257903   0.530   1.003   5.611 -0.4100  0.5131 -0.6307
12163TIP3    H157904   0.583   1.064   5.559  0.1653 -0.7703 -1.6204
12163TIP3    H257905   0.557   0.917   5.580 -0.6034 -0.2852  1.3127
12164TIP3   OH257906   1.520   5.334   3.227 -0.7539 -0.0299 -0.2675
12164TIP3    H157907   1.530   5.324   3.132 -0.4258  0.4321 -0.2814
12164TIP3    H257908   1.554   5.421   3.246 -0.2012 -0.3801  0.3705
12165TIP3   OH257909   1.917   6.668   4.099  0.5277  0.1123 -0.2636
12165TIP3    H157910   1.925   6.611   4.175 -0.2656  0.3134 -0.0185
12165TIP3    H257911   1.823   6.682   4.089  0.5840 -0.3235 -1.5886
12166TIP3   OH257912   2.625   1.022  16.329  0.0086 -0.3421  0.2338
12166TIP3    H157913   2.664   1.081  16.265  1.0522 -0.4937  0.7112
12166TIP3    H257914   2.682   1.029  16.406 -1.2624 -0.1033  1.1808
12167TIP3   OH257915   0.052   5.384   4.339 -0.0615  0.5021  0.2311
12167TIP3    H157916   0.059   5.309   4.397  0.3203  1.0761  0.9440
12167TIP3    H257917   0.009   5.350   4.261  0.0862 -0.4488  0.5487
12168TIP3   OH257918   4.028   4.445  13.862 -0.0479 -0.1059  0.0768
12168TIP3    H157919   4.021   4.392  13.782  0.8084 -0.1979  0.0560
12168TIP3    H257920   3.940   4.443  13.899 -0.0062 -1.6732  0.1589
12169TIP3   OH257921   5.300   1.388  13.026 -0.4059 -0.2129  0.4880
12169TIP3    H157922   5.225   1.448  13.026 -1.0249 -0.9667  1.4213
12169TIP3    H257923   5.375   1.444  13.007 -1.0928  0.6958  0.3844
12170TIP3   OH257924   0.366   4.319  17.339  0.5547 -0.0671 -0.5630
12170TIP3    H157925   0.272   4.315  17.323  0.4067 -1.1123  0.4622
12170TIP3    H257926   0.384   4.412  17.353 -0.2405  0.1955 -1.2131
12171TIP3   OH257927   1.501   0.387   4.765  0.2118 -0.2106  0.3257
12171TIP3    H157928   1.586   0.430   4.772  1.6026 -2.9326  1.8694
12171TIP3    H257929   1.510   0.307   4.817 -3.6562 -0.1548  1.3848
12172TIP3   OH257930   1.493   6.065  12.783  0.0716 -0.7852  0.4147
12172TIP3    H157931   1.429   6.001  12.815  0.0064 -0.0605  1.8311
12172TIP3    H257932   1.522   6.112  12.862  1.3884 -0.2190 -0.3605
12173TIP3   OH257933   3.103   1.288   4.885  0.2143  0.3325  0.1956
12173TIP3    H157934   3.108   1.278   4.790 -0.4566 -2.6935  0.3790
12173TIP3    H257935   3.186   1.328   4.910  0.7714  0.3426 -1.5649
12174TIP3   OH257936   2.760   3.010  15.442  0.1295 -0.5549  0.0920
12174TIP3    H157937   2.683   3.041  15.489  0.1337  1.1332 -0.9142
12174TIP3    H257938   2.728   2.942  15.384 -0.2493 -1.1549  0.9850
12175TIP3   OH257939   5.739   5.837   1.505  0.1461 -0.0149 -0.1900
12175TIP3    H157940   5.646   5.860   1.503 -0.5421 -2.5520 -0.7966
12175TIP3    H257941   5.747   5.774   1.576  1.0597 -1.0856 -1.1965
12176TIP3   OH257942   6.341   3.785  15.540 -0.0170 -0.2689 -0.6763
12176TIP3    H157943   6.364   3.860  15.486  0.0629  0.7938  0.7777
12176TIP3    H257944   6.421   3.764  15.589 -0.2199 -0.8862 -0.5867
12177TIP3   OH257945   6.560   4.190   0.879 -0.4862 -0.3381  0.0015
12177TIP3    H157946   6.512   4.168   0.958  0.3349  1.0951  0.9374
12177TIP3    H257947   6.585   4.282   0.890 -0.7990  0.0714 -2.1586
12178TIP3   OH257948   0.125   0.221  15.805 -0.2175  0.1220 -0.1776
12178TIP3    H157949   0.180   0.156  15.762  0.6958  0.8280 -0.0906
12178TIP3    H257950   0.122   0.294  15.744  1.0276  1.1035  0.8958
12179TIP3   OH257951   5.191   2.677  15.700 -0.0957 -0.1474  0.2481
12179TIP3    H157952   5.282   2.705  15.693 -0.0676  0.7636  3.0627
12179TIP3    H257953   5.184   2.603  15.639  2.2484  0.3395 -0.7143
12180TIP3   OH257954   1.590   2.304   5.082  0.4129  0.7611  0.6743
12180TIP3    H157955   1.581   2.367   5.154 -1.2698 -0.5298  1.6973
12180TIP3    H257956   1.502   2.267   5.073  0.6689  0.6402 -1.8644
12181TIP3   OH257957   5.962   5.325  14.315 -0.1280  0.3954  0.0852
12181TIP3    H157958   5.961   5.387  14.243 -0.2603  0.0781 -0.1899
12181TIP3    H257959   6.029   5.358  14.375  0.1425  0.5350 -0.2942
12182TIP3   OH257960   1.498   6.607   4.967 -0.3386  0.2901  0.1483
12182TIP3    H157961   1.522   6.634   5.055 -0.6635  0.9793  0.0278
12182TIP3    H257962   1.579   6.613   4.917 -0.8381  3.5911 -0.5072
12183TIP3   OH257963   1.588   2.837  13.700  0.0280 -0.0939 -0.1962
12183TIP3    H157964   1.683   2.842  13.687  0.1375 -0.7117  0.2927
12183TIP3    H257965   1.552   2.902  13.640  0.7301 -0.2202 -0.7746
12184TIP3   OH257966   3.128   4.254  16.470 -0.2148  0.5341 -0.1368
12184TIP3    H157967   3.174   4.320  16.418 -0.7016  0.3902 -0.7525
12184TIP3    H257968   3.042   4.293  16.488 -1.1086 -0.5448 -1.8502
12185TIP3   OH257969   0.097   3.166   0.462  0.1596 -0.2082  0.7609
12185TIP3    H157970   0.020   3.108   0.465 -0.9186  1.0299 -1.2351
12185TIP3    H257971   0.153   3.129   0.394 -0.2515  0.7017 -0.1005
12186TIP3   OH257972   0.337   4.304  16.679 -0.6207  0.4186  0.4740
12186TIP3    H157973   0.419   4.342  16.649  0.2339 -1.3174  0.4761
12186TIP3    H257974   0.283   4.296  16.600 -0.2275  0.2524  0.2200
12187TIP3   OH257975   0.336   5.662   3.336  0.3027  0.4700  0.1804
12187TIP3    H157976   0.337   5.746   3.381  1.7555  1.0021 -0.7635
12187TIP3    H257977   0.407   5.612   3.376 -0.3448 -0.2016  0.5141
12188TIP3   OH257978   5.321   1.743  14.417  0.0619  0.9860 -0.2343
12188TIP3    H157979   5.416   1.744  14.416  0.0952 -0.1692 -0.2648
12188TIP3    H257980   5.295   1.757  14.326  0.3238 -1.8136 -0.8481
12189TIP3   OH257981   3.231   3.442   1.799  0.8882  0.2077  0.4314
12189TIP3    H157982   3.158   3.502   1.812  0.4551  0.0130 -0.9521
12189TIP3    H257983   3.197   3.374   1.741  2.5132  0.8260 -1.3517
12190TIP3   OH257984   4.288   5.373  12.999  0.0912 -0.1372  0.0695
12190TIP3    H157985   4.307   5.322  13.078 -2.0233 -0.4445  0.4620
12190TIP3    H257986   4.194   5.358  12.983  0.1032  1.1907 -1.5925
12191TIP3   OH257987   5.050   1.483  13.304  0.3851  0.4115 -0.3097
12191TIP3    H157988   5.042   1.532  13.386 -0.7055  0.8693 -0.6645
12191TIP3    H257989   5.080   1.396  13.331  2.2308  1.1895  0.3481
12192TIP3   OH257990   1.095   1.948   3.463 -0.0240 -0.2692  0.1099
12192TIP3    H157991   1.123   1.938   3.554  2.1298  2.0278 -0.1746
12192TIP3    H257992   1.145   1.882   3.415  1.4266  0.6712  0.2486
12193TIP3   OH257993   6.037   5.346   2.112  0.5880  0.0399 -0.0849
12193TIP3    H157994   6.081   5.423   2.077  1.0648  0.1460  0.7100
12193TIP3    H257995   6.004   5.375   2.198 -3.1564  0.7159 -1.5468
12194TIP3   OH257996   1.712   0.691  14.329  0.1339 -0.1069  0.0977
12194TIP3    H157997   1.626   0.663  14.298 -0.5073  3.1504 -1.5081
12194TIP3    H257998   1.773   0.626  14.295 -1.2373  0.1078 -3.1157
12195TIP3   OH257999   0.342   0.529  16.094 -0.6142  0.1663  0.3012
12195TIP3    H158000   0.303   0.444  16.113  0.4991  0.0450  2.3315
12195TIP3    H258001   0.436   0.516  16.103 -0.4607  1.7634  1.5184
12196TIP3   OH258002   0.240   2.996   6.433 -0.3075  0.6265  0.0325
12196TIP3    H158003   0.316   2.990   6.490 -0.9062 -2.4912  0.6489
12196TIP3    H258004   0.166   2.971   6.488 -1.5454  1.7036 -1.0609
12197TIP3   OH258005   4.186   0.512  14.092  0.3045 -0.5651 -0.2532
12197TIP3    H158006   4.155   0.597  14.122  0.7924 -0.3827 -0.2629
12197TIP3    H258007   4.232   0.530  14.011  1.4226 -0.6713  0.3441
12198TIP3   OH258008   4.357   4.838   2.233  0.1813  0.5129  0.0530
12198TIP3    H158009   4.312   4.907   2.282  0.0580  1.1739 -0.9473
12198TIP3    H258010   4.338   4.758   2.281  0.1283  1.1398  1.1154
12199TIP3   OH258011   1.915   0.511  13.036 -0.3527  0.1614  0.1781
12199TIP3    H158012   1.937   0.425  13.001 -1.2678 -0.5181  1.2266
12199TIP3    H258013   1.857   0.550  12.970  0.0556 -0.0178 -0.2912
12200TIP3   OH258014   5.732   3.872   1.392  0.0485 -0.1724 -0.4038
12200TIP3    H158015   5.817   3.854   1.351  0.6016  0.2198  0.5514
12200TIP3    H258016   5.743   3.957   1.434 -0.8353 -0.0990 -0.3114
12201TIP3   OH258017   5.873   5.103   5.136  0.4503 -0.4735 -0.4511
12201TIP3    H158018   5.881   5.187   5.181  1.0377 -1.4155  1.3044
12201TIP3    H258019   5.840   5.043   5.203 -1.1859 -1.4037 -1.9893
12202TIP3   OH258020   1.224   4.609  16.860 -0.7955  0.6056  0.0462
12202TIP3    H158021   1.277   4.562  16.795 -1.7599  0.5599 -0.7363
12202TIP3    H258022   1.141   4.563  16.861 -1.3013  1.4973  0.2349
12203TIP3   OH258023   3.172   0.874   6.147  0.6357 -0.4791 -0.3853
12203TIP3    H158024   3.114   0.808   6.109  0.2804 -1.2576  1.4113
12203TIP3    H258025   3.197   0.838   6.232  0.4739  1.6640  0.6331
12204TIP3   OH258026   5.674   1.791  16.177 -0.3098  0.4571  0.1968
12204TIP3    H158027   5.615   1.779  16.252 -1.7736 -0.0050 -0.9932
12204TIP3    H258028   5.710   1.704  16.161  1.8197  0.9660  1.7411
12205TIP3   OH258029   0.080   6.093  13.309  0.1287 -0.3648  0.4728
12205TIP3    H158030   0.159   6.109  13.257  0.5714 -1.2032  0.8879
12205TIP3    H258031   0.109   6.040  13.382 -0.8660 -0.8937  0.4953
12206TIP3   OH258032   3.638   4.829  11.590 -1.0944 -0.2518 -0.2644
12206TIP3    H158033   3.555   4.808  11.633 -1.9458  1.3463 -1.0535
12206TIP3    H258034   3.612   4.874  11.509  0.5436  1.0000 -0.1293
12207TIP3   OH258035   3.866   3.877   4.403 -0.0197  0.4363 -0.0158
12207TIP3    H158036   3.916   3.955   4.379  2.3516 -1.5389 -2.0143
12207TIP3    H258037   3.929   3.821   4.448 -1.3445 -0.8498  0.2936
12208TIP3   OH258038   0.441   5.027  17.001 -0.3214 -0.0973  0.4806
12208TIP3    H158039   0.508   4.969  16.964 -0.3341 -0.9500  1.7618
12208TIP3    H258040   0.413   5.081  16.926  0.6566 -0.8020 -0.4272
12209TIP3   OH258041   0.667   3.639   3.285 -0.7462  0.0095 -0.2529
12209TIP3    H158042   0.620   3.708   3.332 -2.8639 -1.1874 -0.4880
12209TIP3    H258043   0.702   3.583   3.354 -2.6273 -0.9428  0.0086
12210TIP3   OH258044   5.649   5.716   0.193 -0.5917 -0.0436 -0.2133
12210TIP3    H158045   5.580   5.768   0.235 -0.7187  0.5325 -1.1028
12210TIP3    H258046   5.659   5.640   0.250  1.6112  2.2249  2.8100
12211TIP3   OH258047   5.096   3.094   4.052 -0.1114  0.0838 -0.2420
12211TIP3    H158048   5.169   3.094   3.989 -1.5329  1.2131 -2.0198
12211TIP3    H258049   5.132   3.054   4.131  2.8732  1.8690 -0.5237
12212TIP3   OH258050   5.514   0.448   3.474  0.3936  0.2810 -0.4662
12212TIP3    H158051   5.589   0.433   3.417  1.8858  0.2049  1.3931
12212TIP3    H258052   5.516   0.374   3.535  0.4464  1.6611  1.2790
12213TIP3   OH258053   1.591   2.904  11.113 -0.3100  0.5643  0.2406
12213TIP3    H158054   1.585   2.997  11.135  1.8187  0.9981 -0.7034
12213TIP3    H258055   1.517   2.889  11.053 -0.3450  1.8181 -0.0623
12214TIP3   OH258056   2.951   2.568   3.428  0.0782 -0.0676 -0.7561
12214TIP3    H158057   3.029   2.532   3.470 -1.1528 -0.7771  1.0431
12214TIP3    H258058   2.973   2.660   3.413  0.7498  0.1430  1.1651
12215TIP3   OH258059   6.549   3.079  14.084  0.8133 -0.2303 -0.4362
12215TIP3    H158060   6.536   3.143  14.014  1.1109  0.6489  0.2924
12215TIP3    H258061   6.588   3.004  14.041  0.1320 -0.0662 -1.3735
12216TIP3   OH258062   1.772   1.545   0.589  0.2725  0.0088 -0.6297
12216TIP3    H158063   1.765   1.463   0.638 -0.4189 -0.5478 -1.6291
12216TIP3    H258064   1.810   1.608   0.652 -1.3023 -0.4659  0.8496
12217TIP3   OH258065   5.304   1.180   4.966 -0.2151  0.4374  0.2687
12217TIP3    H158066   5.245   1.159   4.894 -1.0261 -0.7955  1.2516
12217TIP3    H258067   5.391   1.159   4.932 -0.3690  1.7417 -1.0053
12218TIP3   OH258068   1.512   2.107  12.803 -0.2870 -0.4898  0.1716
12218TIP3    H158069   1.417   2.105  12.796 -0.1807 -0.5940 -1.5018
12218TIP3    H258070   1.543   2.136  12.717  1.2252 -1.3193  0.3854
12219TIP3   OH258071   3.716   0.498  15.435  0.3802  0.6594 -0.5223
12219TIP3    H158072   3.796   0.536  15.469  1.1959  1.1935 -2.8697
12219TIP3    H258073   3.650   0.567  15.447  0.4613  0.5494  0.6141
12220TIP3   OH258074   0.097   1.247   1.187  0.5113  0.5923 -0.4898
12220TIP3    H158075   0.059   1.168   1.225  3.5836 -1.2721 -0.9303
12220TIP3    H258076   0.060   1.252   1.099  1.6670 -1.5711 -1.1721
12221TIP3   OH258077   5.824   4.261   0.005  0.0518 -0.3163  0.4038
12221TIP3    H158078   5.838   4.253  -0.089 -0.9356 -0.9685  0.2901
12221TIP3    H258079   5.867   4.184   0.043  1.9948  0.8597  0.6915
12222TIP3   OH258080   3.211   2.940   5.055 -0.6445  0.0950 -0.3371
12222TIP3    H158081   3.209   2.846   5.069 -2.6097  0.1879  0.2528
12222TIP3    H258082   3.218   2.977   5.143 -0.9525  0.5061 -0.4814
12223TIP3   OH258083   6.424   3.082  11.663 -0.6145 -0.3078 -0.0072
12223TIP3    H158084   6.517   3.099  11.649 -0.5508 -0.2474  0.4755
12223TIP3    H258085   6.385   3.088  11.576 -0.2423  0.1287 -0.1482
12224TIP3   OH258086   3.960   1.187  16.145  0.4984  0.5240  0.0918
12224TIP3    H158087   3.966   1.098  16.110 -0.3609  0.2522  0.5980
12224TIP3    H258088   3.965   1.244  16.068  3.7159  0.1947 -0.0483
12225TIP3   OH258089   4.484   4.567  14.055  0.3632 -0.1389  0.6737
12225TIP3    H158090   4.515   4.477  14.042  0.4654 -0.3381  2.0652
12225TIP3    H258091   4.439   4.589  13.974  0.4996 -1.3835  0.2319
12226TIP3   OH258092   1.715   5.512  13.459 -0.3973  0.8895  0.2037
12226TIP3    H158093   1.766   5.439  13.493 -0.7522  0.2079 -0.6922
12226TIP3    H258094   1.706   5.494  13.366 -1.3076  1.5743  0.1438
12227TIP3   OH258095   1.606   1.503  16.232  1.0523 -0.2128 -0.6663
12227TIP3    H158096   1.557   1.485  16.152  1.0905 -0.0669 -0.7221
12227TIP3    H258097   1.543   1.489  16.303  0.8785  0.1558 -0.7483
12228TIP3   OH258098   2.974   4.760   2.695  0.0760 -0.3420 -0.3583
12228TIP3    H158099   2.982   4.845   2.738 -2.6307 -0.0088 -0.3549
12228TIP3    H258100   2.925   4.707   2.757 -2.2883 -0.4374 -2.1865
12229TIP3   OH258101   1.420   5.980   5.734 -0.0764  0.1758 -0.3815
12229TIP3    H158102   1.388   6.070   5.722  0.7409  0.4243 -0.7700
12229TIP3    H258103   1.403   5.961   5.826 -0.5888  0.5919 -0.3814
12230TIP3   OH258104   3.014   5.970  16.549  0.4608 -0.2909  0.4476
12230TIP3    H158105   2.999   5.899  16.486 -0.4157  0.3198 -0.0621
12230TIP3    H258106   3.067   6.034  16.501 -2.2525  1.3370 -0.6129
12231TIP3   OH258107   2.707   0.053   2.123 -0.1512 -0.1114 -0.0100
12231TIP3    H158108   2.664  -0.031   2.140 -0.2439  0.2430  1.6997
12231TIP3    H258109   2.635   0.113   2.105 -0.1161 -0.2951 -0.7743
12232TIP3   OH258110   1.939   1.920   3.938  0.1754 -0.1857  0.8261
12232TIP3    H158111   1.883   1.853   3.900 -0.2988  0.8042 -0.2553
12232TIP3    H258112   2.007   1.935   3.872 -0.1549  0.9257  0.7220
12233TIP3   OH258113   2.331   4.368   2.456 -0.4176 -0.1948  0.8221
12233TIP3    H158114   2.329   4.307   2.382 -1.3103  0.7686  0.0185
12233TIP3    H258115   2.240   4.398   2.465  0.3731  2.9838 -0.5060
12234TIP3   OH258116   2.025   4.391   5.604  0.6254  0.7551 -0.5321
12234TIP3    H158117   2.034   4.300   5.575 -1.6188  0.1831  0.3321
12234TIP3    H258118   1.932   4.411   5.592  0.8095  2.4995  0.5441
12235TIP3   OH258119   3.030   1.700  13.068 -0.4412 -0.0715 -0.2093
12235TIP3    H158120   3.063   1.777  13.023 -0.8384  0.9371  1.1575
12235TIP3    H258121   2.958   1.733  13.122 -0.9257 -1.4846  0.0533
12236TIP3   OH258122   0.067   5.515   2.723  0.0932  0.2640  0.1478
12236TIP3    H158123   0.155   5.535   2.693  0.3488 -1.4102 -0.3305
12236TIP3    H258124   0.012   5.527   2.645  0.2502 -0.7940 -0.1460
12237TIP3   OH258125   2.397   3.040   3.028 -0.3844  0.6017  0.3706
12237TIP3    H158126   2.322   3.082   3.071  0.5181  0.3037  2.3638
12237TIP3    H258127   2.397   3.075   2.939 -2.4054  1.2176  0.5614
12238TIP3   OH258128   5.774   5.207   6.147  0.0994  0.1853  0.1044
12238TIP3    H158129   5.852   5.170   6.189 -0.9684  0.2219  2.2286
12238TIP3    H258130   5.774   5.299   6.174  1.4910  1.3619 -3.2749
12239TIP3   OH258131   2.380   6.239   3.058 -0.0464 -0.1250 -0.9248
12239TIP3    H158132   2.390   6.330   3.028  1.9611 -0.0176 -0.0449
12239TIP3    H258133   2.322   6.245   3.134 -1.9855  0.0649 -2.3426
12240TIP3   OH258134   4.916   0.362   4.609  0.1863 -0.3429  0.2135
12240TIP3    H158135   4.946   0.389   4.522  2.3613  0.2994  1.0905
12240TIP3    H258136   4.822   0.382   4.609  0.3647  0.7570 -1.5646
12241TIP3   OH258137   5.547   1.523  16.004  0.0183  0.2771 -0.6779
12241TIP3    H158138   5.637   1.519  16.036  0.1058 -1.3836 -1.0082
12241TIP3    H258139   5.496   1.480  16.073  0.0017 -1.9338 -1.9696
12242TIP3   OH258140   6.391   0.345  15.257 -0.3983  0.3083  0.4876
12242TIP3    H158141   6.472   0.307  15.292 -0.2853 -0.7296 -0.8233
12242TIP3    H258142   6.323   0.281  15.279 -0.3372 -0.3309 -1.0603
12243TIP3   OH258143   0.359   0.041   5.468 -0.3298  0.2082  0.5698
12243TIP3    H158144   0.343   0.120   5.520 -1.0192 -0.6960  1.7590
12243TIP3    H258145   0.273   0.016   5.435 -0.3068 -0.7317  1.2082
12244TIP3   OH258146   6.771   4.233   2.768 -0.0397 -0.3704  0.1456
12244TIP3    H158147   6.790   4.142   2.789 -0.4972 -0.3301  0.7559
12244TIP3    H258148   6.828   4.284   2.825 -0.4576 -0.2676  0.4718
12245TIP3   OH258149   1.667   1.353  15.442 -0.1160  0.3453  0.5766
12245TIP3    H158150   1.606   1.311  15.503  0.7571 -0.5174  0.8674
12245TIP3    H258151   1.673   1.292  15.368 -0.1894  0.7888  0.2005
12246TIP3   OH258152   6.357   5.722  11.253  0.5086  0.8206  0.2930
12246TIP3    H158153   6.419   5.700  11.183 -1.0161 -0.0808 -0.8217
12246TIP3    H258154   6.301   5.790  11.216 -0.3377  0.3149  0.6202
12247TIP3   OH258155   2.967   2.582   4.026  0.0642  0.0820 -0.3041
12247TIP3    H158156   2.944   2.655   3.968 -1.3399  0.0686  0.2023
12247TIP3    H258157   2.927   2.604   4.110 -0.7636 -1.4651 -0.2599
12248TIP3   OH258158   6.142   4.162   0.553  0.1989 -0.2506 -0.0670
12248TIP3    H158159   6.237   4.157   0.541  0.1861  0.7046 -0.6684
12248TIP3    H258160   6.106   4.118   0.476  0.1162 -3.1843  1.5046
12249TIP3   OH258161   5.050   5.538   4.033  0.7122  0.1785  0.5417
12249TIP3    H158162   4.968   5.548   3.985  0.6519  1.4836  0.8661
12249TIP3    H258163   5.081   5.450   4.011 -1.0801 -0.5930  0.8862
12250TIP3   OH258164   1.013   5.660   3.094 -0.1156 -0.1844 -0.4384
12250TIP3    H158165   1.107   5.675   3.081  0.0745  0.1082  1.1239
12250TIP3    H258166   0.973   5.746   3.077 -0.0922 -0.2687 -0.9369
12251TIP3   OH258167   4.754   5.595   1.495  0.0716 -0.5969 -0.7628
12251TIP3    H158168   4.842   5.618   1.525  0.3791 -1.2433 -1.1312
12251TIP3    H258169   4.767   5.563   1.406 -0.7403  0.6924 -1.3684
12252TIP3   OH258170   0.797   3.181  11.782 -0.4513 -0.0255  0.0473
12252TIP3    H158171   0.886   3.178  11.815  0.2717 -0.1960 -1.7855
12252TIP3    H258172   0.803   3.146  11.693 -2.4640 -0.6872  0.1199
12253TIP3   OH258173   0.084   5.586  13.827  0.1096 -0.1184 -0.4148
12253TIP3    H158174   0.107   5.679  13.824  1.3982 -0.4267 -0.3994
12253TIP3    H258175   0.118   5.555  13.911 -2.3254 -0.1310  0.6775
12254TIP3   OH258176   3.458   2.964   4.256  0.1185 -0.1094  0.6489
12254TIP3    H158177   3.419   3.009   4.181  1.4959  0.1889  0.0608
12254TIP3    H258178   3.439   2.871   4.242  0.4220 -0.0643 -0.1367
12255TIP3   OH258179   5.454   5.979  16.637 -0.5550 -0.4602  0.0405
12255TIP3    H158180   5.367   5.947  16.659 -0.7122  0.3134  0.5893
12255TIP3    H258181   5.445   6.074  16.636  0.3383 -0.3633  0.3389
12256TIP3   OH258182   0.487   5.810   0.141 -0.5571 -0.2878 -0.1328
12256TIP3    H158183   0.551   5.858   0.089  0.1229 -0.2652  0.6905
12256TIP3    H258184   0.494   5.719   0.112  4.0877 -1.5781  3.6839
12257TIP3   OH258185   2.774   0.521   3.614 -0.0862 -0.2107  0.1969
12257TIP3    H158186   2.841   0.479   3.668  1.2410 -0.6778 -1.7140
12257TIP3    H258187   2.766   0.610   3.649  0.8246 -0.4533  1.0530
12258TIP3   OH258188   6.111   2.847  16.371  0.3539  0.0508  0.2278
12258TIP3    H158189   6.077   2.762  16.400 -0.3276  0.7147  1.4597
12258TIP3    H258190   6.206   2.840  16.383  0.7426 -1.6181 -2.6968
12259TIP3   OH258191   1.102   4.511   4.026  0.6543 -0.3883  0.1157
12259TIP3    H158192   1.190   4.522   4.061  1.8065 -3.3521 -1.5448
12259TIP3    H258193   1.111   4.529   3.932 -0.7477  0.2399  0.0762
12260TIP3   OH258194   4.016   5.794  15.147 -0.6546  0.4763 -0.4740
12260TIP3    H158195   4.077   5.858  15.112 -0.8780  0.1098 -1.5908
12260TIP3    H258196   3.964   5.842  15.212  0.6423  0.8422  0.3246
12261TIP3   OH258197   6.012   0.732  16.073  0.1058  0.1000  0.2577
12261TIP3    H158198   6.038   0.778  16.153 -0.4574 -2.0691  1.7729
12261TIP3    H258199   6.075   0.661  16.063 -1.1669 -1.0540  0.1060
12262TIP3   OH258200   3.664   1.340   1.571 -0.4000  0.1247  0.1175
12262TIP3    H158201   3.673   1.251   1.536 -0.4777  0.3150 -0.3924
12262TIP3    H258202   3.746   1.356   1.618  1.2961  1.1491 -2.9020
12263TIP3   OH258203   6.529   5.389   0.902 -0.5459 -0.3536 -0.0950
12263TIP3    H158204   6.586   5.461   0.875  0.4732 -0.8584  0.6764
12263TIP3    H258205   6.588   5.322   0.937 -1.6292 -0.5997  1.3828
12264TIP3   OH258206   1.998   3.620   3.169  0.2658  0.2274 -0.1218
12264TIP3    H158207   2.048   3.539   3.164  1.3570  0.9206 -0.9683
12264TIP3    H258208   2.006   3.659   3.082 -1.2079  0.6966 -0.0819
12265TIP3   OH258209   1.966   3.423  16.900  0.0025  0.3300  0.4879
12265TIP3    H158210   2.032   3.491  16.914  0.9900 -0.3999 -0.4687
12265TIP3    H258211   1.946   3.428  16.807  0.7190 -1.2444  0.2283
12266TIP3   OH258212   4.543   5.131   4.960  0.1596  0.2577  0.2881
12266TIP3    H158213   4.535   5.090   5.046  0.8704  0.7201  0.5847
12266TIP3    H258214   4.575   5.219   4.978 -0.0351  0.4809 -0.4314
12267TIP3   OH258215   3.384   0.168   1.300 -0.5062 -0.2301  0.5536
12267TIP3    H158216   3.329   0.098   1.335  0.0285 -1.0242 -0.1331
12267TIP3    H258217   3.337   0.249   1.320 -1.9876 -0.8846 -0.1270
12268TIP3   OH258218   2.523   6.261  11.807  0.0306 -0.0220 -0.5434
12268TIP3    H158219   2.434   6.230  11.822 -0.3755  1.5265  0.5082
12268TIP3    H258220   2.556   6.283  11.894  0.7474  1.2082 -1.0958
12269TIP3   OH258221   1.826   2.913  14.212 -0.8755  0.3495  0.5263
12269TIP3    H158222   1.759   2.847  14.196 -0.8230  0.6363 -1.1662
12269TIP3    H258223   1.867   2.926  14.126  1.8864 -0.3584  1.6278
12270TIP3   OH258224   1.085   2.665   0.513 -0.4457 -0.2707  0.7513
12270TIP3    H158225   1.063   2.620   0.595 -1.0180  1.7642  1.7949
12270TIP3    H258226   1.181   2.666   0.512 -0.4097 -1.5653  0.6275
12271TIP3   OH258227   1.127   5.552  11.685 -0.4141  0.0876  0.2193
12271TIP3    H158228   1.087   5.603  11.756  0.1029 -0.3972  0.8674
12271TIP3    H258229   1.171   5.479  11.729 -1.1458 -0.9415 -0.6801
12272TIP3   OH258230   4.109   0.122   2.598  0.5365 -0.4733 -0.8056
12272TIP3    H158231   4.079   0.031   2.609  0.8428 -0.4230  0.6310
12272TIP3    H258232   4.195   0.114   2.557  2.4971 -1.1484  3.0104
12273TIP3   OH258233   3.402   2.741  10.741  0.0614  0.3372  0.1152
12273TIP3    H158234   3.371   2.655  10.769 -2.0152  0.7928 -0.5614
12273TIP3    H258235   3.471   2.763  10.803  0.2302 -1.5394  0.6730
12274TIP3   OH258236   5.334   0.347  12.061 -0.2054  0.0227  0.1531
12274TIP3    H158237   5.264   0.401  12.098  0.7371  1.6173 -0.2615
12274TIP3    H258238   5.369   0.400  11.989  0.8418 -1.1145 -0.2074
12275TIP3   OH258239   4.055   4.231  11.512  0.0946  0.2390 -0.1415
12275TIP3    H158240   4.018   4.304  11.462  1.3751 -0.4506 -2.2212
12275TIP3    H258241   4.118   4.191  11.452  0.4126 -1.7523  1.4311
12276TIP3   OH258242   2.305   0.281  11.549 -0.1043 -0.9495 -0.0936
12276TIP3    H158243   2.269   0.349  11.606  1.2869  0.9904 -1.3903
12276TIP3    H258244   2.400   0.293  11.554  0.0771 -0.9547 -2.4493
12277TIP3   OH258245   6.351   2.781  14.561  0.0006  0.1702  0.1346
12277TIP3    H158246   6.261   2.750  14.573  0.4187 -1.2140 -0.1299
12277TIP3    H258247   6.369   2.769  14.468  0.2150  1.1433  0.0442
12278TIP3   OH258248   5.430   1.911   3.793  0.7246 -0.0130 -0.0657
12278TIP3    H158249   5.514   1.953   3.812  0.1430 -0.0199  3.1549
12278TIP3    H258250   5.375   1.934   3.867 -1.4998 -1.6717 -1.0921
12279TIP3   OH258251   1.153   5.394  13.239 -0.3758  0.3642 -0.1058
12279TIP3    H158252   1.090   5.389  13.312 -0.6834 -3.5492 -0.4255
12279TIP3    H258253   1.102   5.432  13.167 -1.2863  0.5650  0.6181
12280TIP3   OH258254   3.073   5.148   3.532 -0.1913  0.9649 -0.3787
12280TIP3    H158255   2.984   5.180   3.520 -0.1672  1.8210  1.3517
12280TIP3    H258256   3.103   5.127   3.444 -1.8807  1.2244 -1.0660
12281TIP3   OH258257   2.925   2.224  12.510  0.1615 -0.3553  0.0020
12281TIP3    H158258   2.914   2.303  12.563  0.3345 -0.5005  0.2575
12281TIP3    H258259   2.886   2.246  12.425 -1.1164 -0.4767  0.5288
12282TIP3   OH258260   6.685   5.038  15.614 -0.1233  0.4902  0.3529
12282TIP3    H158261   6.597   5.071  15.628 -0.5537  0.0511 -1.1304
12282TIP3    H258262   6.742   5.104  15.655 -1.1094  0.9241  1.0636
12283TIP3   OH258263   5.964   5.836   2.293  0.0587  0.5954 -0.7000
12283TIP3    H158264   6.005   5.877   2.217  0.7994  1.9405  0.3854
12283TIP3    H258265   5.949   5.908   2.355  2.3245 -0.8011  1.7016
12284TIP3   OH258266   0.155   3.406  17.087  0.5345 -0.2430 -0.2105
12284TIP3    H158267   0.207   3.329  17.110 -0.9186 -1.7685 -1.7017
12284TIP3    H258268   0.216   3.462  17.039  1.3263 -1.0401 -0.1584
12285TIP3   OH258269   1.415   0.737  12.338 -0.6778  0.3573  0.3559
12285TIP3    H158270   1.424   0.675  12.265 -2.7636  1.8352 -1.2647
12285TIP3    H258271   1.338   0.790  12.316 -1.3383  0.9531  3.6194
12286TIP3   OH258272   1.419   4.799   4.997  0.0799  0.5043  0.0273
12286TIP3    H158273   1.495   4.788   5.055 -0.3143  0.5287  0.5532
12286TIP3    H258274   1.353   4.741   5.034  0.0177  0.0707 -0.7504
12287TIP3   OH258275   0.245   5.237  12.517 -0.1389  0.4436 -0.4616
12287TIP3    H158276   0.337   5.240  12.543 -0.3955  0.7990  0.4364
12287TIP3    H258277   0.241   5.169  12.450  0.3487 -1.3751  1.2755
12288TIP3   OH258278   6.490   1.508   4.384  0.5665 -0.0200  0.1061
12288TIP3    H158279   6.418   1.498   4.446 -0.3940  1.2576 -0.7465
12288TIP3    H258280   6.461   1.464   4.305  1.2187 -0.4769  0.1088
12289TIP3   OH258281   3.283   3.630  14.865 -0.8406  0.0237 -0.1012
12289TIP3    H158282   3.231   3.553  14.840  0.5631 -0.3243 -2.2889
12289TIP3    H258283   3.235   3.704  14.827 -0.5046 -0.1483 -0.8848
12290TIP3   OH258284   2.276   0.728  11.886 -0.0699  0.0510  0.7452
12290TIP3    H158285   2.221   0.756  11.813  0.6862 -1.2888 -0.4048
12290TIP3    H258286   2.287   0.806  11.940  1.4162  1.8015 -1.8981
12291TIP3   OH258287   2.817   2.230   2.066 -0.4051 -0.6579  0.0329
12291TIP3    H158288   2.844   2.160   2.006  0.2981 -0.6945  0.3917
12291TIP3    H258289   2.881   2.229   2.136 -1.1089 -0.4774  0.6986
12292TIP3   OH258290   3.057   3.744  16.266 -0.1618  0.0450 -0.1412
12292TIP3    H158291   2.978   3.697  16.241 -0.2041 -0.4444  0.8458
12292TIP3    H258292   3.037   3.836  16.248 -0.4249 -0.2148 -1.2170
12293TIP3   OH258293   2.182   4.018   0.310  0.0154 -0.5225 -0.2176
12293TIP3    H158294   2.180   4.111   0.332  1.7206 -0.8901  1.8639
12293TIP3    H258295   2.115   3.979   0.366  1.5606 -0.9219  1.4431
12294TIP3   OH258296   5.792   3.316   2.142 -0.1046  0.0056  0.7134
12294TIP3    H158297   5.809   3.232   2.101 -1.1607  1.0270 -2.0673
12294TIP3    H258298   5.844   3.379   2.091 -0.3322  1.2064  1.8893
12295TIP3   OH258299   1.866   5.574  16.344 -0.0720  0.0850 -0.2166
12295TIP3    H158300   1.855   5.625  16.424  0.3710  0.1874 -0.2189
12295TIP3    H258301   1.788   5.595  16.292  1.4654  3.2163 -1.5537
12296TIP3   OH258302   1.953   3.962   1.872  0.1780  0.0684  0.0336
12296TIP3    H158303   1.859   3.948   1.860 -0.0883  0.5831  1.3291
12296TIP3    H258304   1.973   3.919   1.955  0.3708  2.7327  1.4635
12297TIP3   OH258305   1.895   2.833  12.152  0.7154 -0.5384 -0.0787
12297TIP3    H158306   1.952   2.768  12.194 -0.4016 -0.5084  1.6102
12297TIP3    H258307   1.881   2.899  12.220 -2.4246 -1.2586  0.1331
12298TIP3   OH258308   6.086   6.654   5.174  0.3010 -0.6687 -0.1958
12298TIP3    H158309   6.160   6.715   5.179  0.2065 -0.6366  2.4453
12298TIP3    H258310   6.121   6.573   5.212 -1.0849 -0.5139  1.5288
12299TIP3   OH258311   4.056   3.621  17.294  1.0931 -0.5662  0.5271
12299TIP3    H158312   4.022   3.710  17.307  0.2481 -0.7252 -0.4914
12299TIP3    H258313   4.048   3.606  17.200  0.2167 -2.1266  0.8225
12300TIP3   OH258314   1.257   2.235   2.327 -0.0279 -0.0551  0.1176
12300TIP3    H158315   1.332   2.244   2.268  1.8941 -0.8676  2.2944
12300TIP3    H258316   1.250   2.320   2.370 -0.1046 -0.0986  0.1916
12301TIP3   OH258317   1.515   0.569  17.099  0.0142 -0.1198 -0.4355
12301TIP3    H158318   1.447   0.511  17.065  0.5834  0.3965 -2.6064
12301TIP3    H258319   1.478   0.657  17.089 -1.0113  0.0200  3.2107
12302TIP3   OH258320   5.691   0.315   5.466 -0.8588  0.8466  0.1116
12302TIP3    H158321   5.626   0.357   5.522 -0.8979 -0.3106  0.9837
12302TIP3    H258322   5.722   0.240   5.517  0.6556  0.9685 -0.5722
12303TIP3   OH258323   2.042   0.032  14.487 -0.0857  0.5047 -0.2925
12303TIP3    H158324   2.126   0.032  14.533 -0.6654  1.7129  0.8162
12303TIP3    H258325   2.056   0.088  14.411  0.0384  0.9021  0.0215
12304TIP3   OH258326   3.154   3.332   0.677 -0.1453  0.2345 -0.1485
12304TIP3    H158327   3.176   3.338   0.770  0.5551 -0.1079 -0.2857
12304TIP3    H258328   3.075   3.278   0.675 -0.3771  0.5496  0.2716
12305TIP3   OH258329   0.059   0.138  13.619  0.3022  0.3329 -0.2434
12305TIP3    H158330   0.126   0.072  13.636 -0.3584 -0.4507 -0.6108
12305TIP3    H258331   0.098   0.220  13.651  1.3656 -0.1227 -0.3134
12306TIP3   OH258332   0.216   4.240  16.909  0.4757  0.9071 -0.1001
12306TIP3    H158333   0.296   4.246  16.960  0.3878  1.0713  0.0170
12306TIP3    H258334   0.239   4.279  16.824  0.3360  1.5321  0.1497
12307TIP3   OH258335   5.159   1.038   2.315  0.0305  0.0098  0.0432
12307TIP3    H158336   5.080   1.066   2.269 -1.1091 -1.1260  1.2304
12307TIP3    H258337   5.224   1.106   2.295 -1.4966  1.4318 -0.2815
12308TIP3   OH258338   5.278   0.283  16.203  0.4251  0.0005 -0.1713
12308TIP3    H158339   5.219   0.331  16.261  1.7014  2.0056 -0.4401
12308TIP3    H258340   5.240   0.293  16.116 -0.8684 -2.0440  0.0742
12309TIP3   OH258341   0.010   0.528  15.748 -0.1233  0.1674 -0.0269
12309TIP3    H158342  -0.065   0.484  15.708  0.7972 -1.3216 -0.2189
12309TIP3    H258343  -0.027   0.604  15.792 -1.8172 -0.7566  0.2435
12310TIP3   OH258344   1.896   5.672  14.597  0.3540 -0.1622 -0.4917
12310TIP3    H158345   1.951   5.595  14.586  0.7028 -0.0489  0.3354
12310TIP3    H258346   1.952   5.735  14.644 -0.3279  0.1159 -0.0299
12311TIP3   OH258347   4.454   5.249  11.586  0.1276 -0.1961  0.2917
12311TIP3    H158348   4.501   5.182  11.535  0.6453 -0.6861  1.3739
12311TIP3    H258349   4.366   5.251  11.548  0.9687  0.7375 -1.7952
12312TIP3   OH258350   3.714   2.943   4.089 -0.0552  0.4343 -0.2286
12312TIP3    H158351   3.731   2.948   4.184 -0.1057  0.0865 -0.2009
12312TIP3    H258352   3.651   3.014   4.073  1.2793  1.6493 -0.3077
12313TIP3   OH258353   5.702   4.560   0.890  0.1511  0.1913 -0.3912
12313TIP3    H158354   5.616   4.518   0.897  1.1205 -2.3576 -2.2393
12313TIP3    H258355   5.693   4.641   0.940 -3.2651 -0.0434 -0.3647
12314TIP3   OH258356   2.256   2.110  14.910  0.2109  0.4712  0.0540
12314TIP3    H158357   2.312   2.117  14.833 -0.8270  0.0383 -0.7522
12314TIP3    H258358   2.179   2.163  14.889  0.2438  0.9615  1.1025
12315TIP3   OH258359   2.089   3.375  13.313 -0.0018  0.2333 -0.1940
12315TIP3    H158360   2.055   3.434  13.381  0.9963  0.5684  0.0403
12315TIP3    H258361   2.054   3.409  13.231 -0.3860  0.4469  0.0552
12316TIP3   OH258362   3.508   0.920  12.452  0.0733 -0.5186 -0.4959
12316TIP3    H158363   3.563   0.967  12.515 -1.4050 -1.7742  1.9047
12316TIP3    H258364   3.425   0.967  12.452  0.2983 -0.0540 -2.2201
12317TIP3   OH258365   5.735   1.201   1.244  0.2229 -0.2544  0.2597
12317TIP3    H158366   5.803   1.226   1.307  0.6607  0.2123 -0.3797
12317TIP3    H258367   5.782   1.150   1.178 -0.0157  0.2069 -0.2709
12318TIP3   OH258368   4.399   3.244  12.325 -0.2293 -0.3783 -0.9134
12318TIP3    H158369   4.341   3.174  12.295 -0.6077  0.4703 -2.2692
12318TIP3    H258370   4.487   3.212  12.306 -0.0711 -2.1532  2.1690
12319TIP3   OH258371   6.254   6.690  16.698  0.3062 -0.1268  0.2135
12319TIP3    H158372   6.209   6.613  16.732  1.5887 -1.5760 -1.1937
12319TIP3    H258373   6.204   6.715  16.621 -0.7439  1.1912  1.2644
12320TIP3   OH258374   3.192   5.575   2.456  0.4718  0.1601  0.0693
12320TIP3    H158375   3.246   5.537   2.388  0.1923  1.1842 -0.7622
12320TIP3    H258376   3.249   5.582   2.532  1.3958  0.8548 -0.6715
12321TIP3   OH258377   5.632   0.271  12.716  0.5577 -0.4868  0.3634
12321TIP3    H158378   5.662   0.188  12.678  1.7202  0.0159  0.1357
12321TIP3    H258379   5.537   0.262  12.722  0.8017 -2.7342  2.4694
12322TIP3   OH258380   5.382   0.340   3.854 -0.4438 -0.1499 -0.0583
12322TIP3    H158381   5.378   0.430   3.824  0.5233 -0.1220 -0.1365
12322TIP3    H258382   5.412   0.290   3.778 -1.7986 -0.6794 -0.2711
12323TIP3   OH258383   0.016   4.841   0.705 -0.0668 -0.3058 -0.3658
12323TIP3    H158384  -0.021   4.907   0.647 -1.4726  0.4539  1.2927
12323TIP3    H258385   0.111   4.846   0.690 -0.2709  0.9725 -1.4185
12324TIP3   OH258386   3.048   6.639  11.693 -0.0972  0.1880 -0.1015
12324TIP3    H158387   3.098   6.675  11.621  0.2735 -2.1929 -1.1435
12324TIP3    H258388   3.054   6.544  11.681 -1.1344 -0.2618  2.3135
12325TIP3   OH258389   2.101   2.219   3.827  0.3315 -0.1785 -0.0232
12325TIP3    H158390   2.062   2.239   3.912 -0.3018  0.8764 -0.5453
12325TIP3    H258391   2.169   2.285   3.815 -0.4102  0.4540 -0.8662
12326TIP3   OH258392   1.471   3.816   3.160 -1.0270  0.1045 -0.2972
12326TIP3    H158393   1.413   3.809   3.236 -1.5251  0.8047 -0.5948
12326TIP3    H258394   1.411   3.832   3.087 -0.4376  1.1121 -0.5710
12327TIP3   OH258395   1.016   5.517  15.321  0.1228  0.1849 -0.5899
12327TIP3    H158396   1.103   5.503  15.282  1.2897  0.1280  1.8298
12327TIP3    H258397   1.031   5.509  15.415 -3.0151 -2.5141 -0.1537
12328TIP3   OH258398   0.051   0.200  11.076 -0.3499 -0.3529 -0.2148
12328TIP3    H158399   0.027   0.182  11.167 -0.8532  0.5228 -0.1590
12328TIP3    H258400   0.119   0.136  11.056  0.6643  0.2170  1.1804
12329TIP3   OH258401   5.312   4.534  12.123  0.3511  0.4969 -0.2495
12329TIP3    H158402   5.286   4.591  12.195 -0.2122 -0.3690  0.2553
12329TIP3    H258403   5.288   4.583  12.044  1.7213  1.8088  0.0938
12330TIP3   OH258404   3.402   2.331  17.254  0.3646  0.4598  0.0699
12330TIP3    H158405   3.406   2.311  17.347  0.2521 -2.8992 -0.5499
12330TIP3    H258406   3.310   2.322  17.230  0.1087  2.8511 -0.1702
12331TIP3   OH258407   1.165   0.223  12.615  0.6827  0.0909  0.7893
12331TIP3    H158408   1.213   0.278  12.677  2.5864 -0.4840 -0.0935
12331TIP3    H258409   1.191   0.134  12.636 -1.4083 -0.4183  1.3962
12332TIP3   OH258410   1.095   3.546  14.369  0.4571 -0.1898 -0.3408
12332TIP3    H158411   1.189   3.527  14.365  0.3968 -0.4052 -0.9984
12332TIP3    H258412   1.062   3.488  14.437  1.0388  0.9843  0.9791
12333TIP3   OH258413   1.859   5.810  15.820 -0.6347  0.1684 -0.1685
12333TIP3    H158414   1.776   5.765  15.833  0.6407 -2.0811  0.7478
12333TIP3    H258415   1.838   5.903  15.835 -2.6319 -0.5003  1.8674
12334TIP3   OH258416   1.324   2.666  15.917  0.0265  0.2982 -0.2273
12334TIP3    H158417   1.325   2.735  15.850  0.4233  0.1126 -0.4100
12334TIP3    H258418   1.310   2.714  15.999  0.0801  0.5782 -0.3780
12335TIP3   OH258419   2.343   0.726  15.905  0.1054  0.0635 -0.9314
12335TIP3    H158420   2.330   0.672  15.983  0.5141 -0.7774 -1.4311
12335TIP3    H258421   2.353   0.663  15.834 -1.1864  0.8233 -1.8219
12336TIP3   OH258422   4.882   5.422  15.604  0.7024  0.4513 -0.5876
12336TIP3    H158423   4.959   5.366  15.618  1.2032  0.9821 -1.1614
12336TIP3    H258424   4.886   5.486  15.675 -0.8813 -1.2816  1.1727
12337TIP3   OH258425   1.308   3.594  11.671  0.0401  0.2860 -0.0680
12337TIP3    H158426   1.358   3.600  11.753  2.3953  2.3637 -1.4800
12337TIP3    H258427   1.233   3.652  11.685 -1.0597 -1.4052  1.4494
12338TIP3   OH258428   5.215   0.915   2.566  1.3611 -0.3186 -1.3136
12338TIP3    H158429   5.185   0.856   2.497  0.3353  1.0423 -2.1071
12338TIP3    H258430   5.187   1.002   2.536 -0.2398  0.2132  1.3612
12339TIP3   OH258431   3.976   2.074   6.247  0.1461 -0.2945  0.7542
12339TIP3    H158432   4.019   2.059   6.331 -0.4248 -0.8690  0.9552
12339TIP3    H258433   3.987   2.167   6.231 -0.6727  0.0469  2.0042
12340TIP3   OH258434   0.305   0.540   6.465  0.7901 -0.5858 -0.3241
12340TIP3    H158435   0.215   0.550   6.434  0.9977  2.7498 -0.1929
12340TIP3    H258436   0.357   0.594   6.405  2.1914  0.2776  1.5709
12341TIP3   OH258437   5.199   1.790   4.744  0.1634  0.1004  0.6865
12341TIP3    H158438   5.152   1.718   4.787  0.6901 -0.6210  0.0887
12341TIP3    H258439   5.145   1.812   4.668  0.3541 -0.1520  0.4748
12342TIP3   OH258440   3.432   5.129   2.390  0.3197  0.4268  0.1873
12342TIP3    H158441   3.513   5.124   2.440 -0.6779 -0.4572  1.8087
12342TIP3    H258442   3.458   5.110   2.300  2.1333  1.7757  0.3781
12343TIP3   OH258443   5.578   5.324   5.318  0.1096 -0.4226 -0.0996
12343TIP3    H158444   5.502   5.378   5.337  0.1159 -0.0962 -0.9526
12343TIP3    H258445   5.549   5.235   5.334  0.0533 -0.1940  1.1842
12344TIP3   OH258446   6.531   1.999   0.896 -0.0156 -0.5764  0.0564
12344TIP3    H158447   6.623   2.022   0.884 -0.0552 -0.1710  0.4991
12344TIP3    H258448   6.506   2.041   0.979 -0.6160 -0.6256 -0.0940
12345TIP3   OH258449   1.328   5.972   2.288 -0.0866  0.2038  0.4971
12345TIP3    H158450   1.353   6.042   2.349  0.4818  1.2950 -0.9378
12345TIP3    H258451   1.410   5.932   2.261  0.0163  1.7828 -1.8720
12346TIP3   OH258452   2.552   2.640   4.437  0.2609 -0.1525 -0.0429
12346TIP3    H158453   2.498   2.599   4.370  0.5491 -0.7845  0.1057
12346TIP3    H258454   2.490   2.680   4.497  0.0138  1.9068 -1.5774
12347TIP3   OH258455   5.687   1.039  14.303  0.0099  0.4545  0.1068
12347TIP3    H158456   5.647   0.963  14.261  0.6835  0.5714 -0.7838
12347TIP3    H258457   5.707   1.010  14.392  1.2960 -0.8057 -0.5489
12348TIP3   OH258458   4.816   0.929  17.248 -0.1571 -0.4401 -0.1692
12348TIP3    H158459   4.777   0.932  17.160  1.6936  1.4269 -1.0170
12348TIP3    H258460   4.882   0.861  17.243 -1.2660 -1.5976  0.3843
12349TIP3   OH258461   5.078   3.946  11.346  0.0643  0.0300  0.3337
12349TIP3    H158462   5.173   3.942  11.340  0.1732  2.7178 -1.2341
12349TIP3    H258463   5.055   3.878  11.409  3.0752 -0.1389  1.3982
12350TIP3   OH258464   2.001   1.096   1.538 -0.7243  0.4681 -0.5007
12350TIP3    H158465   2.051   1.046   1.473 -0.9621 -0.6214  0.1294
12350TIP3    H258466   2.056   1.094   1.616 -0.1526  2.2976 -0.8020
12351TIP3   OH258467   3.201   5.951  12.659  0.3780 -0.0138 -0.3710
12351TIP3    H158468   3.293   5.935  12.635  0.5533 -0.0115  0.2833
12351TIP3    H258469   3.201   6.038  12.697  0.5077 -0.8249  1.6025
12352TIP3   OH258470   1.942   1.022   1.057  0.8280  0.2180 -0.1768
12352TIP3    H158471   1.961   1.001   0.966  2.5088 -1.2746  0.4765
12352TIP3    H258472   1.915   0.940   1.097 -2.1435  1.2564  0.2258
12353TIP3   OH258473   6.730   1.781  14.246  0.1379  0.3930  0.5839
12353TIP3    H158474   6.702   1.831  14.322 -0.7605  0.1801  0.4019
12353TIP3    H258475   6.713   1.690  14.269 -1.1309  0.3905 -0.2506
12354TIP3   OH258476   4.770   5.978  16.318 -0.1778  0.0367 -0.2495
12354TIP3    H158477   4.702   6.045  16.326 -0.7618 -0.6627  0.7867
12354TIP3    H258478   4.832   5.998  16.388 -0.8885 -1.0799  0.7413
12355TIP3   OH258479   5.217   5.904   0.241  0.1870 -0.4495 -0.0192
12355TIP3    H158480   5.193   5.875   0.329 -3.2383  0.2289 -0.5947
12355TIP3    H258481   5.186   5.834   0.183 -0.3283  0.4462 -0.8554
12356TIP3   OH258482   5.566   3.632  11.594 -0.5507 -0.2086  1.1930
12356TIP3    H158483   5.500   3.563  11.597 -1.4639  0.6651  2.9507
12356TIP3    H258484   5.517   3.713  11.606  0.5874  0.7064  0.0145
12357TIP3   OH258485   4.913   0.980  15.702 -0.0686 -0.5863  0.8477
12357TIP3    H158486   4.994   1.031  15.699 -0.4481 -0.0101 -0.0875
12357TIP3    H258487   4.854   1.032  15.757 -0.3638 -0.1296  0.1188
12358TIP3   OH258488   1.559   4.421  15.764 -0.5758  0.4537  0.1096
12358TIP3    H158489   1.623   4.360  15.728 -0.3039  1.0053 -0.3450
12358TIP3    H258490   1.493   4.364  15.805  0.3255 -0.1208  0.8207
12359TIP3   OH258491   4.718   6.262   3.898 -0.2026 -0.1626  0.0219
12359TIP3    H158492   4.776   6.288   3.969  0.2987  0.8952 -0.7443
12359TIP3    H258493   4.642   6.319   3.906  0.9689  1.8209 -1.7570
12360TIP3   OH258494   2.969   5.525  16.372  0.6027 -0.4437 -0.4034
12360TIP3    H158495   3.004   5.440  16.398 -0.8811 -0.6918  0.9791
12360TIP3    H258496   2.943   5.514  16.281 -0.5370 -1.8623  0.0439
12361TIP3   OH258497   5.176   1.300  17.118  0.2061 -0.3261 -0.4990
12361TIP3    H158498   5.118   1.285  17.193 -1.7826  1.1425 -1.6233
12361TIP3    H258499   5.264   1.298  17.154 -0.7194  2.1829  2.2778
12362TIP3   OH258500   2.777   3.252   4.827  0.2675 -0.4298 -0.3184
12362TIP3    H158501   2.863   3.291   4.839 -0.3862  2.2638 -3.0565
12362TIP3    H258502   2.716   3.318   4.860 -0.8309 -1.9179  0.7644
12363TIP3   OH258503   0.373   1.436  10.996 -0.2619 -0.1689 -0.0378
12363TIP3    H158504   0.337   1.438  10.907 -0.4989  0.6559  0.0680
12363TIP3    H258505   0.465   1.414  10.984 -0.1943  0.3445 -0.5301
12364TIP3   OH258506   4.834   3.589  14.489 -0.1240 -0.6183 -0.6660
12364TIP3    H158507   4.761   3.603  14.430 -0.4425 -0.8427 -0.3295
12364TIP3    H258508   4.794   3.585  14.576  0.2792 -0.8041 -0.4855
12365TIP3   OH258509   2.925   2.865  14.615 -0.2636 -0.2864  0.3037
12365TIP3    H158510   2.904   2.842  14.705  0.3149 -1.7995  0.0788
12365TIP3    H258511   3.019   2.848  14.607 -0.6909 -2.3188 -1.1574
12366TIP3   OH258512   2.823   1.514   5.449 -0.7573 -0.2046  0.0628
12366TIP3    H158513   2.871   1.496   5.369 -2.1082 -0.4441 -0.7221
12366TIP3    H258514   2.851   1.601   5.476  1.1391 -0.8787  0.4162
12367TIP3   OH258515   1.019   0.343   1.642 -0.4522  0.3937  0.2526
12367TIP3    H158516   1.008   0.275   1.708  0.2274  0.2560  0.2294
12367TIP3    H258517   1.000   0.425   1.689  0.3722  0.3313  0.7227
12368TIP3   OH258518   0.043   4.014   5.755 -0.2763 -0.3219 -0.1065
12368TIP3    H158519   0.080   4.097   5.726 -0.4689  0.1594  0.9608
12368TIP3    H258520   0.099   3.987   5.828 -1.5345  0.0400  1.0392
12369TIP3   OH258521   4.553   5.884   4.217 -0.4149 -0.0866 -0.3630
12369TIP3    H158522   4.468   5.890   4.261  0.2989  0.6767  0.9724
12369TIP3    H258523   4.539   5.925   4.132 -1.3048  0.3082 -0.0400
12370TIP3   OH258524   2.776   0.131   3.622  0.8345 -0.0328  0.1016
12370TIP3    H158525   2.720   0.208   3.626  0.9836  0.0178  1.5130
12370TIP3    H258526   2.770   0.092   3.709  1.0059 -1.4489 -0.4916
12371TIP3   OH258527   4.260   4.744  11.683  0.6381 -0.2563 -0.2935
12371TIP3    H158528   4.219   4.684  11.745  1.0731  0.5915  0.8580
12371TIP3    H258529   4.186   4.790  11.643  0.3668 -0.3233  0.1177
12372TIP3   OH258530   0.611   1.922   1.901  0.3122 -0.5926  0.0313
12372TIP3    H158531   0.600   2.010   1.865  0.0793 -0.2918  0.8261
12372TIP3    H258532   0.695   1.925   1.947 -1.4321  0.4370  3.4407
12373TIP3   OH258533   3.669   4.152   3.767  0.4728  0.3875 -0.1088
12373TIP3    H158534   3.589   4.100   3.761  1.2245 -0.9569  0.9469
12373TIP3    H258535   3.738   4.093   3.735  1.1357  1.3052 -0.4136
12374TIP3   OH258536   0.862   0.543   4.044 -0.6627 -0.6503  0.1712
12374TIP3    H158537   0.771   0.519   4.026 -0.7081 -0.9382  0.7534
12374TIP3    H258538   0.896   0.470   4.096 -0.9499  0.7354  2.4432
12375TIP3   OH258539   4.252   0.039  14.644 -0.3743 -0.1989  0.1730
12375TIP3    H158540   4.263   0.018  14.737 -0.9262 -0.0712  0.2692
12375TIP3    H258541   4.283   0.129  14.636 -1.4941  0.2388  0.4889
12376TIP3   OH258542   2.869   0.317   1.056 -0.0567  0.8002 -0.2348
12376TIP3    H158543   2.917   0.269   0.989 -0.6488 -0.2827  0.0852
12376TIP3    H258544   2.926   0.314   1.133 -0.4632 -0.1968  0.0468
12377TIP3   OH258545   6.487   2.335   3.926 -0.3825  0.2750  0.0168
12377TIP3    H158546   6.458   2.366   4.011 -0.3411  0.0346  0.1202
12377TIP3    H258547   6.415   2.282   3.893  0.7587 -2.2897  1.2998
12378TIP3   OH258548   1.440   0.132   2.786 -0.0921 -0.3426  0.1064
12378TIP3    H158549   1.411   0.138   2.695  0.8420 -0.7517 -0.2244
12378TIP3    H258550   1.372   0.178   2.835  0.6564  2.2235 -1.0570
12379TIP3   OH258551   1.667   2.763  15.177 -0.1208  0.0306  0.1545
12379TIP3    H158552   1.680   2.669  15.194  1.7029  0.3746  0.9077
12379TIP3    H258553   1.755   2.796  15.159 -0.7875  1.5513 -0.4616
12380TIP3   OH258554   5.692   2.742   2.047  0.5424 -0.2010 -0.2710
12380TIP3    H158555   5.777   2.765   2.009 -0.4460  0.8786 -1.9773
12380TIP3    H258556   5.654   2.826   2.073  0.5397 -0.7951  1.7898
12381TIP3   OH258557   2.288   2.881  16.909 -0.2259 -0.2187 -0.3677
12381TIP3    H158558   2.323   2.968  16.888  1.1098 -0.7790 -0.6242
12381TIP3    H258559   2.305   2.829  16.830  1.3779 -1.3690  0.6597
12382TIP3   OH258560   1.824   1.080  16.221 -0.4051  0.6518 -0.4752
12382TIP3    H158561   1.862   1.005  16.174  2.3553  1.9248 -0.4612
12382TIP3    H258562   1.843   1.062  16.314 -1.5903  0.4124 -0.2661
12383TIP3   OH258563   5.957   0.365  11.501  0.1806 -0.7256  0.4567
12383TIP3    H158564   5.910   0.407  11.430 -0.5543 -0.3219  1.1604
12383TIP3    H258565   5.907   0.285  11.519  0.9473 -1.3622 -0.1442
12384TIP3   OH258566   6.438   6.282   3.497  0.2269 -0.5478 -0.0741
12384TIP3    H158567   6.389   6.207   3.531  0.4144  0.4107  2.5120
12384TIP3    H258568   6.371   6.343   3.466  0.0565 -1.4999 -1.6635
12385TIP3   OH258569   2.236   2.717   1.683  0.1262  0.2066 -0.3736
12385TIP3    H158570   2.145   2.704   1.710  0.0856 -0.2483 -0.7229
12385TIP3    H258571   2.273   2.772   1.752 -0.0960 -0.5567  0.3703
12386TIP3   OH258572   0.468   4.435   1.686 -0.3359 -0.2087  0.1154
12386TIP3    H158573   0.513   4.519   1.698 -0.0861 -0.4575  1.0613
12386TIP3    H258574   0.483   4.388   1.769  0.1884 -1.4981 -0.6729
12387TIP3   OH258575   4.691   3.861  11.154  0.2407 -0.4623 -0.0415
12387TIP3    H158576   4.691   3.824  11.066  0.8814  1.4856 -0.9415
12387TIP3    H258577   4.632   3.805  11.205  0.9742 -2.4904 -1.3080
12388TIP3   OH258578   4.642   1.141  12.263  0.4953 -0.1610 -0.3502
12388TIP3    H158579   4.669   1.083  12.335 -1.0342 -0.7841 -0.2535
12388TIP3    H258580   4.695   1.112  12.188  0.7303 -0.7639  0.0433
12389TIP3   OH258581   5.384   0.126  15.680 -0.3167  0.0454  0.4737
12389TIP3    H158582   5.442   0.128  15.756 -1.7219  0.1946  1.5938
12389TIP3    H258583   5.335   0.045  15.689 -2.0525  1.0881  0.9992
12390TIP3   OH258584   5.908   0.080   3.691 -0.0126  0.3297 -0.1661
12390TIP3    H158585   5.909   0.167   3.731  0.6858  0.1185  0.2924
12390TIP3    H258586   5.830   0.081   3.635 -0.2040  1.1288  0.0903
12391TIP3   OH258587   4.399   4.056   5.403 -0.1485 -0.1399  0.4920
12391TIP3    H158588   4.450   4.020   5.476 -0.2430  0.3222  0.7936
12391TIP3    H258589   4.331   3.991   5.387 -1.0194  0.4182  1.7982
12392TIP3   OH258590   1.148   1.237  11.556  0.5124 -0.7242 -0.6779
12392TIP3    H158591   1.196   1.165  11.515  0.7713 -1.2438  0.4945
12392TIP3    H258592   1.188   1.316  11.520  1.7960 -1.1558 -0.2541
12393TIP3   OH258593   6.039   3.036  15.889  0.4416  0.2411  0.0146
12393TIP3    H158594   5.967   3.076  15.938  0.4523 -0.3409  0.5153
12393TIP3    H258595   6.031   2.942  15.905  1.8226  0.2222  0.8242
12394TIP3   OH258596   2.719   3.123   0.534  0.2379 -0.3068 -0.0050
12394TIP3    H158597   2.632   3.159   0.518 -0.8463 -2.5224  0.4806
12394TIP3    H258598   2.725   3.047   0.476  0.6348 -1.9352  2.0713
12395TIP3   OH258599   2.812   3.712   0.998 -0.5978 -0.0677  0.0412
12395TIP3    H158600   2.823   3.618   1.011 -1.9844 -0.2945 -0.2089
12395TIP3    H258601   2.900   3.745   0.983  0.3676 -0.7959  3.3044
12396TIP3   OH258602   2.784   2.559  17.102  0.4422  0.0949 -0.7868
12396TIP3    H158603   2.829   2.533  17.021 -1.0119 -2.0896 -0.9843
12396TIP3    H258604   2.702   2.599  17.072 -1.4703 -3.3064 -0.5345
12397TIP3   OH258605   4.754   2.267  12.349 -0.1475 -0.6307 -0.5424
12397TIP3    H158606   4.705   2.187  12.366  0.7660 -0.6934  2.3810
12397TIP3    H258607   4.743   2.320  12.428  2.2667  0.5184 -0.8498
12398TIP3   OH258608   3.524   6.308  16.339 -0.5491  0.0189 -0.0131
12398TIP3    H158609   3.478   6.226  16.362 -2.0813  0.3627 -1.6623
12398TIP3    H258610   3.556   6.341  16.423  1.1058 -2.8124  0.5941
12399TIP3   OH258611   4.533   0.055   5.121 -0.5746  0.7010 -0.8257
12399TIP3    H158612   4.608   0.102   5.086 -0.7868  2.2584  0.6960
12399TIP3    H258613   4.562  -0.036   5.126  0.6093  1.0030 -1.8333
12400TIP3   OH258614   2.844   3.920   0.587  0.1802  0.2714 -0.0580
12400TIP3    H158615   2.822   3.834   0.552 -1.2365  0.7627 -0.4341
12400TIP3    H258616   2.905   3.957   0.523  0.2974 -0.1895 -0.2165
12401TIP3   OH258617   6.650   4.485  13.940 -0.2958 -0.2528  0.1516
12401TIP3    H158618   6.691   4.501  13.855  0.2905 -1.5784  0.1724
12401TIP3    H258619   6.567   4.443  13.918 -1.1553  1.3514  0.1670
12402TIP3   OH258620   0.344   1.154  11.373  0.1758  1.2317 -0.3823
12402TIP3    H158621   0.389   1.231  11.337 -0.3739  1.9234  0.3644
12402TIP3    H258622   0.258   1.186  11.398  0.4121  0.7352  1.2238
12403TIP3   OH258623   2.546   5.483  17.203  0.7180  0.3079  0.0738
12403TIP3    H158624   2.509   5.498  17.290 -0.9314  0.8759 -0.6702
12403TIP3    H258625   2.582   5.567  17.177 -0.0948  0.5345 -0.3522
12404TIP3   OH258626   1.545   0.829  14.798  0.3092 -0.0632  0.0993
12404TIP3    H158627   1.639   0.811  14.801  0.5426  1.1041  0.4605
12404TIP3    H258628   1.531   0.866  14.711  0.1253 -0.5152 -0.0652
12405TIP3   OH258629   4.103   5.014   3.925  0.3741 -0.1130  0.1720
12405TIP3    H158630   4.084   5.010   4.019 -0.2965  1.0462  0.1088
12405TIP3    H258631   4.111   5.108   3.906  0.6796 -0.3379 -0.8996
12406TIP3   OH258632   5.319   0.740   2.237  0.1414 -0.1468 -0.5450
12406TIP3    H158633   5.306   0.796   2.313 -0.5977 -0.9826 -0.0310
12406TIP3    H258634   5.283   0.790   2.164 -1.8179 -0.4691  0.1197
12407TIP3   OH258635   5.262   0.965   5.179 -0.4068  0.1228  0.2891
12407TIP3    H158636   5.274   1.057   5.203  1.4805 -0.5804  2.3910
12407TIP3    H258637   5.313   0.954   5.099  1.1754  0.4856  1.2044
12408TIP3   OH258638   3.436   1.725   2.518 -0.0058 -0.1622  0.1049
12408TIP3    H158639   3.393   1.685   2.593  1.0229 -1.8124 -0.1505
12408TIP3    H258640   3.524   1.688   2.517  0.5709  1.1345 -0.9221
12409TIP3   OH258641   5.773   5.085  16.683 -0.0015 -0.6527  0.1429
12409TIP3    H158642   5.702   5.146  16.665  1.2039  0.2603 -1.9957
12409TIP3    H258643   5.780   5.031  16.604  0.5780 -1.8940  1.0003
12410TIP3   OH258644   5.941   2.964  14.698  0.4412 -0.0139 -0.3103
12410TIP3    H158645   5.976   2.964  14.788  1.6956  0.0663 -0.7814
12410TIP3    H258646   5.908   3.053  14.685 -1.7376 -0.5864  0.7840
12411TIP3   OH258647   0.412   5.021   6.295 -0.1895  0.1936  0.4083
12411TIP3    H158648   0.438   4.933   6.322 -1.0334 -0.6199 -1.2638
12411TIP3    H258649   0.325   5.033   6.333 -0.6351 -0.2446 -0.4537
12412TIP3   OH258650   0.068   3.872   3.412 -0.0199 -0.8612  0.0171
12412TIP3    H158651   0.030   3.786   3.393 -2.6321  0.1097  0.5275
12412TIP3    H258652  -0.004   3.934   3.401  0.9553  0.9225  2.7314
12413TIP3   OH258653   4.340   2.299  16.369  0.1815 -0.0453 -0.4145
12413TIP3    H158654   4.410   2.269  16.311 -0.9347 -1.8629 -0.8922
12413TIP3    H258655   4.268   2.239  16.352 -0.8756  0.6415  1.4192
12414TIP3   OH258656   2.837   4.870  13.773 -0.1907  0.1911 -0.2877
12414TIP3    H158657   2.886   4.920  13.707  1.4691 -0.6269  0.2888
12414TIP3    H258658   2.765   4.829  13.724 -0.9249  2.1678 -0.9757
12415TIP3   OH258659   1.358   0.917   3.174 -0.2838 -0.6392  0.1680
12415TIP3    H158660   1.392   0.988   3.228  1.0984 -1.3594  0.2864
12415TIP3    H258661   1.414   0.842   3.194 -0.8026 -1.3805 -1.0141
12416TIP3   OH258662   6.433   2.409   0.025 -0.6825 -0.2159 -0.3919
12416TIP3    H158663   6.478   2.488   0.055  1.9258 -1.5576 -0.5713
12416TIP3    H258664   6.450   2.345   0.094 -3.2831 -0.5425  0.0548
12417TIP3   OH258665   2.666   4.034   0.359  0.2186 -0.0916  0.2920
12417TIP3    H158666   2.592   4.016   0.301  1.3222 -0.2576 -1.1104
12417TIP3    H258667   2.736   3.977   0.329  1.0817  0.3884  1.2931
12418TIP3   OH258668   5.657   3.164   0.811 -0.0883 -0.5646 -0.7554
12418TIP3    H158669   5.723   3.220   0.853 -0.1778 -0.1544 -1.1474
12418TIP3    H258670   5.632   3.101   0.879  0.5408 -0.5830 -0.5335
12419TIP3   OH258671   2.779   2.395   2.942 -0.0601 -0.2059  0.1452
12419TIP3    H158672   2.712   2.463   2.949  0.3198  0.1713  0.2095
12419TIP3    H258673   2.848   2.424   3.003  0.2434 -0.4867 -0.0619
12420TIP3   OH258674   4.098   4.897  10.757 -0.4086 -0.1492 -0.2449
12420TIP3    H158675   4.129   4.948  10.682 -1.5958  0.1806 -0.5411
12420TIP3    H258676   4.063   4.962  10.817  0.7734 -0.3927  0.7413
12421TIP3   OH258677   5.401   1.976  14.100  0.2272  0.0852  0.2397
12421TIP3    H158678   5.447   1.916  14.041  0.4074 -0.2332  0.7042
12421TIP3    H258679   5.457   2.053  14.103  0.8602 -0.3925  0.9915
12422TIP3   OH258680   1.683   6.633   1.463 -0.0941  0.3095 -0.4654
12422TIP3    H158681   1.642   6.671   1.541 -0.3101  2.2669 -1.4442
12422TIP3    H258682   1.661   6.540   1.466 -0.2543  0.3696  1.6800
12423TIP3   OH258683   3.561   5.002  14.163  0.1559  0.2924 -0.3744
12423TIP3    H158684   3.559   4.927  14.222  2.4613 -0.3768 -1.0329
12423TIP3    H258685   3.654   5.026  14.158 -0.3284  2.1351 -1.5046
12424TIP3   OH258686   5.694   3.308   2.777  0.2637 -0.2661  0.1257
12424TIP3    H158687   5.711   3.219   2.809 -0.7739  0.6302  3.5271
12424TIP3    H258688   5.774   3.356   2.797  0.1553 -0.0266 -0.0136
12425TIP3   OH258689   0.759   2.618   7.208  0.2336 -0.5587 -0.5521
12425TIP3    H158690   0.850   2.639   7.186  1.0226 -1.0474  1.9397
12425TIP3    H258691   0.757   2.522   7.210 -0.5818 -0.5740 -1.4123
12426TIP3   OH258692   3.994   5.358  17.007  0.0767  0.5861 -0.0299
12426TIP3    H158693   3.940   5.306  17.067 -0.3156  1.2457  0.2078
12426TIP3    H258694   3.976   5.322  16.921  1.8707 -1.4351  0.3809
12427TIP3   OH258695   1.482   5.309   0.589 -0.8385 -0.1610 -0.4904
12427TIP3    H158696   1.513   5.336   0.675 -0.6048 -2.0939  0.0843
12427TIP3    H258697   1.526   5.367   0.528  1.8659 -1.0569  0.4820
12428TIP3   OH258698   0.867   2.788  17.141 -0.6020  0.5645  0.3264
12428TIP3    H158699   0.910   2.817  17.061  0.8397 -0.6240  0.6258
12428TIP3    H258700   0.915   2.831  17.212 -1.2502  0.8510  0.6024
12429TIP3   OH258701   3.151   6.411   3.529 -0.2870  0.4733 -0.5580
12429TIP3    H158702   3.229   6.435   3.480  0.1281 -0.2219 -0.2426
12429TIP3    H258703   3.160   6.318   3.546 -0.1627  0.7638  1.2668
12430TIP3   OH258704   1.335   0.324   6.258  0.0260  0.1056 -0.2938
12430TIP3    H158705   1.303   0.414   6.251  0.5277  0.7807  3.5497
12430TIP3    H258706   1.428   0.329   6.237  0.8188  1.3032  2.9376
12431TIP3   OH258707   3.958   6.006   5.192 -0.5083 -0.6770  0.2422
12431TIP3    H158708   3.890   6.046   5.138 -1.2388 -1.0632  0.8542
12431TIP3    H258709   4.038   6.052   5.169 -0.6175 -1.4361 -1.8465
12432TIP3   OH258710   2.067   5.329  13.664 -0.0952  0.6735 -0.0403
12432TIP3    H158711   1.975   5.308  13.680  0.2295  0.2018  1.3565
12432TIP3    H258712   2.066   5.387  13.587 -1.4744  0.0100 -0.5532
12433TIP3   OH258713   1.903   6.731  12.957 -0.1987  0.1348  0.2026
12433TIP3    H158714   1.866   6.755  13.042 -1.0198  0.4769 -0.2420
12433TIP3    H258715   1.831   6.743  12.895  1.1409  2.7587 -1.0051
12434TIP3   OH258716   5.847   4.339   0.876 -0.1136  0.1298 -0.4054
12434TIP3    H158717   5.893   4.360   0.795 -1.9563 -1.4537 -1.9512
12434TIP3    H258718   5.778   4.406   0.882  0.1078  0.3315 -0.0354
12435TIP3   OH258719   1.095   6.581  16.101  0.5918 -0.4104 -0.1388
12435TIP3    H158720   1.174   6.526  16.102 -0.9389 -2.8387  2.1696
12435TIP3    H258721   1.028   6.526  16.141 -2.1965  1.7286 -1.5554
12436TIP3   OH258722   4.554   2.804  15.275 -0.2750  0.5561  0.4738
12436TIP3    H158723   4.611   2.732  15.248 -0.8918  0.2922 -0.1397
12436TIP3    H258724   4.552   2.862  15.199 -1.4791  0.1515  0.1854
12437TIP3   OH258725   0.876   3.198  12.208  0.0425 -0.3650  0.2298
12437TIP3    H158726   0.821   3.140  12.156  0.9825  0.0572 -1.2785
12437TIP3    H258727   0.951   3.217  12.153  0.8209  0.5484  1.5351
12438TIP3   OH258728   3.584   2.353   5.125  0.6210 -0.4583  0.2169
12438TIP3    H158729   3.614   2.300   5.052 -2.8406 -2.0646 -0.2687
12438TIP3    H258730   3.531   2.422   5.084 -0.8939 -1.0513  1.0723
12439TIP3   OH258731   0.073   5.900  15.516 -0.2568 -0.5543 -0.1174
12439TIP3    H158732   0.064   5.877  15.608 -0.0057 -1.0720 -0.2114
12439TIP3    H258733   0.029   5.829  15.469 -0.3597 -0.3097 -0.3964
12440TIP3   OH258734   5.567   3.440  17.129 -0.4273 -0.1760 -0.1782
12440TIP3    H158735   5.605   3.488  17.203 -1.1264  0.6839 -0.3756
12440TIP3    H258736   5.511   3.374  17.170 -1.5505  0.8960  0.0770
12441TIP3   OH258737   0.294   5.997  11.071 -0.1148 -0.5463  0.4602
12441TIP3    H158738   0.303   6.021  11.163  1.3314 -2.7183  0.9532
12441TIP3    H258739   0.321   5.906  11.067 -0.1213 -0.5122 -2.1512
12442TIP3   OH258740   5.215   0.214  10.575  0.1693  0.5384  0.0432
12442TIP3    H158741   5.219   0.307  10.553 -0.8372  0.7738  0.7717
12442TIP3    H258742   5.192   0.213  10.668 -2.4952 -0.4356 -0.5546
12443TIP3   OH258743   0.396   5.236   1.877  0.1710 -0.4220 -0.2502
12443TIP3    H158744   0.335   5.182   1.827  0.0799  0.8275 -1.5395
12443TIP3    H258745   0.360   5.324   1.872  0.5372 -0.1488  1.4738
12444TIP3   OH258746   5.436   3.961  14.772  0.0061  0.1821  0.2097
12444TIP3    H158747   5.367   4.021  14.800 -0.6032  0.0252 -0.8838
12444TIP3    H258748   5.393   3.904  14.708  1.0786 -0.1253 -0.2605
12445TIP3   OH258749   3.635   5.436  15.642 -0.2131 -0.1465  0.0264
12445TIP3    H158750   3.638   5.457  15.735 -0.8561  0.8663 -0.1614
12445TIP3    H258751   3.703   5.491  15.602 -0.4045 -0.0585 -0.1860
12446TIP3   OH258752   4.783   6.318  17.092  0.4025 -0.3053 -0.0052
12446TIP3    H158753   4.706   6.271  17.124  1.3711 -1.3999  0.8562
12446TIP3    H258754   4.756   6.354  17.007 -0.7037 -1.6176 -0.2556
12447TIP3   OH258755   0.903   5.098   2.652  0.0840  0.0656 -0.1601
12447TIP3    H158756   0.880   5.156   2.725  0.4814 -0.0203  0.0352
12447TIP3    H258757   0.915   5.012   2.693  1.0657  0.1680 -0.1976
12448TIP3   OH258758   1.649   5.644   0.205  0.2485 -0.4233  0.1849
12448TIP3    H158759   1.679   5.724   0.248  1.2553 -1.5079  1.5874
12448TIP3    H258760   1.607   5.674   0.124  0.9240  1.4763  0.5018
12449TIP3   OH258761   0.392   2.278  15.636 -0.1167 -0.4186 -0.7284
12449TIP3    H158762   0.468   2.316  15.680 -1.2249 -1.4987  2.4120
12449TIP3    H258763   0.427   2.201  15.591  1.4205  1.8585 -3.7972
12450TIP3   OH258764   0.328   4.926  12.173 -0.0834  0.3493  1.0766
12450TIP3    H158765   0.390   4.997  12.187  0.1702  0.6017 -1.0376
12450TIP3    H258766   0.244   4.969  12.161 -0.1224  0.2133  0.8576
12451TIP3   OH258767   2.235   1.050  10.911  0.3180  0.3367  0.1946
12451TIP3    H158768   2.198   1.009  10.833 -1.1577 -1.9954  1.9687
12451TIP3    H258769   2.300   0.987  10.942 -0.6291  0.1697  1.9607
12452TIP3   OH258770   0.851   4.983   5.411  0.0298 -0.4260 -0.3461
12452TIP3    H158771   0.925   5.043   5.402  0.3319 -0.6151  0.7010
12452TIP3    H258772   0.891   4.896   5.407  0.2204 -0.5584  2.2449
12453TIP3   OH258773   4.587   5.331  13.006 -0.0216  0.2048  0.4064
12453TIP3    H158774   4.497   5.299  13.007 -0.3568  1.0619 -0.5345
12453TIP3    H258775   4.612   5.330  12.914  0.6445  0.7583  0.5712
12454TIP3   OH258776   0.071   2.986  11.049 -0.0953  0.2131  0.4574
12454TIP3    H158777   0.031   3.048  11.109 -0.7185  0.4574 -0.1917
12454TIP3    H258778   0.046   2.900  11.083 -1.7506  0.3649 -0.2824
12455TIP3   OH258779   3.546   3.419  15.226  0.2373  0.5020 -0.2505
12455TIP3    H158780   3.450   3.410  15.232  0.0741  0.4533 -2.3491
12455TIP3    H258781   3.566   3.407  15.134  2.4727 -1.0454  0.3531
12456TIP3   OH258782   0.046   2.731  14.610 -0.2368  0.1344 -0.5417
12456TIP3    H158783   0.111   2.662  14.597  0.8821  0.3446  2.8950
12456TIP3    H258784  -0.029   2.686  14.648  0.0592  0.5879  0.6294
12457TIP3   OH258785   5.774   2.914   1.033 -0.3603  0.0842  0.1673
12457TIP3    H158786   5.690   2.883   1.070  0.2078 -1.5623  0.1774
12457TIP3    H258787   5.837   2.846   1.058  0.7758  0.7758 -0.7376
12458TIP3   OH258788   4.985   2.749   0.161  0.5022 -0.0091 -0.1481
12458TIP3    H158789   4.931   2.731   0.238  0.8619 -0.0807  0.0889
12458TIP3    H258790   5.063   2.694   0.173 -0.9337 -2.7793 -2.2656
12459TIP3   OH258791   6.605   3.465  11.056  0.2017  0.4472  0.1261
12459TIP3    H158792   6.569   3.469  10.968  0.7350 -1.4928 -0.2259
12459TIP3    H258793   6.529   3.474  11.114  0.0040  3.3919 -0.4124
12460TIP3   OH258794   4.201   5.397  16.436 -0.2146 -0.1404 -0.8746
12460TIP3    H158795   4.114   5.358  16.427 -0.6141  0.7595 -1.0095
12460TIP3    H258796   4.225   5.420  16.347  0.1473 -0.3395 -0.8298
12461TIP3   OH258797   4.355   6.271  15.786 -0.3372 -0.0303 -0.8725
12461TIP3    H158798   4.307   6.351  15.810 -1.0226 -0.8721  0.7524
12461TIP3    H258799   4.292   6.220  15.736 -0.4083 -0.1981 -0.6125
12462TIP3   OH258800   3.681   1.220  16.729  0.8546 -0.2262 -0.4744
12462TIP3    H158801   3.673   1.150  16.665 -0.7898 -0.8730  0.3798
12462TIP3    H258802   3.675   1.300  16.678 -2.2913 -0.7030 -1.0468
12463TIP3   OH258803   6.746   2.903   6.002  0.0073 -0.2017  0.0004
12463TIP3    H158804   6.695   2.906   6.083 -1.2575 -1.6224 -0.6938
12463TIP3    H258805   6.823   2.849   6.025 -0.4529 -0.7804  0.2147
12464TIP3   OH258806   0.253   1.684   2.499 -0.5895 -0.4948 -0.0864
12464TIP3    H158807   0.326   1.673   2.437 -0.8937 -3.2209 -0.0989
12464TIP3    H258808   0.268   1.769   2.539  0.4530  0.7276 -2.8258
12465TIP3   OH258809   2.421   3.805   2.970  0.1251  0.0536 -0.5399
12465TIP3    H158810   2.336   3.804   2.925 -0.4979  0.8008  0.5800
12465TIP3    H258811   2.481   3.845   2.907 -0.0509 -1.5958 -1.8150
12466TIP3   OH258812   4.471   6.510  14.967  0.0866  0.0985 -0.2198
12466TIP3    H158813   4.395   6.476  15.015  2.0962 -0.2589  3.0409
12466TIP3    H258814   4.517   6.431  14.937  1.3129  0.0713  1.5832
12467TIP3   OH258815   1.171   2.402   2.506 -0.4774  0.2228  0.6996
12467TIP3    H158816   1.080   2.383   2.483 -0.3760 -0.3196  0.7224
12467TIP3    H258817   1.192   2.338   2.574  0.1554 -0.1469  0.1661
12468TIP3   OH258818   3.937   2.309   4.442  0.0901 -0.1380  0.0601
12468TIP3    H158819   3.982   2.253   4.505  1.0017 -0.1354 -0.5798
12468TIP3    H258820   3.888   2.371   4.497  0.5605 -0.3725  0.7656
12469TIP3   OH258821   1.465   1.026  11.563  0.2676  0.1570  0.1335
12469TIP3    H158822   1.437   1.116  11.577 -0.5901 -0.4884  3.1468
12469TIP3    H258823   1.418   0.998  11.485  0.1889  2.1293 -0.5755
12470TIP3   OH258824   4.800   5.494   5.824 -0.1249  0.1746  0.0233
12470TIP3    H158825   4.814   5.400   5.829 -0.4451  0.0381 -1.2749
12470TIP3    H258826   4.738   5.513   5.895 -0.6174 -0.7129 -0.1587
12471TIP3   OH258827   5.270   3.989   1.392  0.7791  0.6267 -0.5375
12471TIP3    H158828   5.184   4.024   1.367  0.1627 -0.1351  0.4396
12471TIP3    H258829   5.270   3.992   1.488  0.9879 -1.2840 -0.4318
12472TIP3   OH258830   0.679   2.646   4.591  0.0735  0.2896  0.0242
12472TIP3    H158831   0.647   2.735   4.608 -1.1896 -0.2615  0.6990
12472TIP3    H258832   0.639   2.593   4.660 -2.0978 -1.4106 -2.3555
12473TIP3   OH258833   4.328   1.974  13.876  0.2781 -0.1469 -0.0138
12473TIP3    H158834   4.292   1.975  13.965  0.8066  1.8196  0.2320
12473TIP3    H258835   4.288   2.050  13.833  1.0733 -0.2745 -1.0174
12474TIP3   OH258836   0.492   2.199   4.051  0.0496 -0.7960 -0.1700
12474TIP3    H158837   0.403   2.169   4.032  0.0508 -0.9572  0.0797
12474TIP3    H258838   0.491   2.217   4.145  0.4077 -1.2073 -0.0891
12475TIP3   OH258839   1.872   2.327   1.794 -0.4039 -0.1402  0.6994
12475TIP3    H158840   1.885   2.233   1.778 -0.1410 -0.1617  1.0320
12475TIP3    H258841   1.836   2.360   1.712 -2.2063 -0.8684  1.1306
12476TIP3   OH258842   3.378   4.975  13.270 -0.0728 -0.1445  0.0459
12476TIP3    H158843   3.468   4.999  13.291  0.0112  0.5410 -1.0472
12476TIP3    H258844   3.379   4.879  13.266  0.0730 -0.2900  2.3105
12477TIP3   OH258845   5.497   4.356  14.667  0.2325 -0.1757 -0.0721
12477TIP3    H158846   5.516   4.411  14.591 -1.0230 -0.2276 -0.4503
12477TIP3    H258847   5.580   4.312  14.686  0.5206 -0.2970 -1.5196
12478TIP3   OH258848   1.681   0.171  13.159 -0.4428 -0.3165  0.1799
12478TIP3    H158849   1.745   0.238  13.182  0.1310 -0.8194  0.0550
12478TIP3    H258850   1.721   0.088  13.186 -0.1095 -0.8551 -1.8340
12479TIP3   OH258851   1.446   6.006  14.763  0.1104 -0.0862 -0.0401
12479TIP3    H158852   1.383   5.959  14.708 -1.5100  1.6495  0.2394
12479TIP3    H258853   1.530   5.963  14.745 -1.2063 -2.9462  0.0771
12480TIP3   OH258854   2.461   2.249   1.356  0.2869  0.3719 -0.1075
12480TIP3    H158855   2.457   2.282   1.446  0.7022  0.6545 -0.1909
12480TIP3    H258856   2.424   2.320   1.303 -0.6093 -0.0699 -0.0975
12481TIP3   OH258857   3.116   2.011  11.934  0.0825  0.5297  0.2754
12481TIP3    H158858   3.109   2.098  11.973  1.1339  0.1097  1.4991
12481TIP3    H258859   3.210   1.990  11.940 -0.3612 -1.4116  1.7494
12482TIP3   OH258860   3.521   0.437  14.121 -0.2281  0.4391  0.0203
12482TIP3    H158861   3.542   0.509  14.062 -1.0037  0.8831  0.2778
12482TIP3    H258862   3.448   0.469  14.174 -0.4168 -0.4429  0.3135
12483TIP3   OH258863   5.801   0.786   5.316  0.0824  0.4460 -0.3093
12483TIP3    H158864   5.761   0.857   5.368  2.5011  0.9421  1.0330
12483TIP3    H258865   5.745   0.710   5.332 -0.2699  1.0504  1.6163
12484TIP3   OH258866   3.364   4.424  12.592  0.1960  0.3913 -0.4535
12484TIP3    H158867   3.369   4.481  12.516  2.0362  0.7799 -0.0889
12484TIP3    H258868   3.357   4.336  12.555  1.3224  0.5551 -1.1098
12485TIP3   OH258869   2.032   2.847  15.308  0.1182 -0.5803 -0.3905
12485TIP3    H158870   2.028   2.931  15.354  0.4358 -1.1948  0.7983
12485TIP3    H258871   1.982   2.861  15.227  0.1288  0.7281 -0.1903
12486TIP3   OH258872   1.535   6.305  12.128 -0.0983  0.5224 -0.2780
12486TIP3    H158873   1.470   6.243  12.162  1.0060  0.0161  1.0082
12486TIP3    H258874   1.491   6.348  12.054 -2.0226  0.4597  0.7566
12487TIP3   OH258875   6.735   1.732   4.179 -0.0514  0.1254 -0.0905
12487TIP3    H158876   6.649   1.698   4.157 -0.5622  2.0794 -1.3021
12487TIP3    H258877   6.737   1.734   4.275  0.0859 -3.2980  0.0954
12488TIP3   OH258878   1.662   0.862  10.777 -0.3354 -0.3805  0.2313
12488TIP3    H158879   1.731   0.889  10.716 -0.0430  1.8836  1.4368
12488TIP3    H258880   1.707   0.809  10.842  0.4359  1.3352  1.1858
12489TIP3   OH258881   0.005   5.461  13.049 -0.6067  0.1459  0.8545
12489TIP3    H158882  -0.074   5.471  13.102 -0.2475  2.1576  1.1113
12489TIP3    H258883   0.077   5.466  13.113 -0.2221  0.6633  0.3926
12490TIP3   OH258884   6.087   5.833   3.131 -0.1751  0.0630 -0.2511
12490TIP3    H158885   6.084   5.773   3.057 -0.8122 -0.1499 -0.0625
12490TIP3    H258886   6.095   5.777   3.208 -2.0136  0.1119  0.0251
12491TIP3   OH258887   5.291   4.169  16.097 -0.0347 -0.4952 -0.1965
12491TIP3    H158888   5.253   4.254  16.118  1.1044  0.4991 -1.9488
12491TIP3    H258889   5.227   4.105  16.128 -1.0223  0.9851  0.9377
12492TIP3   OH258890   1.197   1.121  10.601  0.3495  0.1784 -0.6298
12492TIP3    H158891   1.169   1.063  10.531  0.8580  0.1650 -0.8225
12492TIP3    H258892   1.275   1.080  10.638 -0.5897 -0.4467  0.7593
12493TIP3   OH258893   3.947   2.066  17.153 -0.3008  0.5046 -0.5507
12493TIP3    H158894   3.911   1.984  17.118  1.3997 -0.6439  0.2804
12493TIP3    H258895   3.917   2.069  17.244 -1.2276  1.3714 -0.8626
12494TIP3   OH258896   5.028   5.008  13.755 -0.5563 -0.1612 -0.2501
12494TIP3    H158897   4.936   5.007  13.727 -0.2418  0.6954 -1.4046
12494TIP3    H258898   5.047   5.101  13.769  0.8770  0.0076 -2.7403
12495TIP3   OH258899   3.999   3.457   1.548  0.2963  0.3567  0.5797
12495TIP3    H158900   4.036   3.509   1.618  0.5723 -0.4458  1.0475
12495TIP3    H258901   3.964   3.379   1.592  2.0312 -1.0052 -0.3275
12496TIP3   OH258902   1.754   3.156   1.554 -0.0459 -0.2171 -0.4394
12496TIP3    H158903   1.749   3.074   1.604 -0.2565 -1.0664 -1.8033
12496TIP3    H258904   1.663   3.176   1.532 -0.1149  1.0125  0.8120
12497TIP3   OH258905   0.504   5.532   3.935  0.0546 -0.0033  0.2109
12497TIP3    H158906   0.584   5.481   3.951 -0.2959 -0.2720  1.2099
12497TIP3    H258907   0.458   5.532   4.020  0.0588  2.0214  0.2629
12498TIP3   OH258908   0.243   3.523   6.455  0.3757 -0.1316  0.5398
12498TIP3    H158909   0.243   3.595   6.519  0.3888  0.1055  0.2735
12498TIP3    H258910   0.311   3.547   6.392  0.5122 -0.4735  0.5533
12499TIP3   OH258911   5.123   1.213   4.705  0.4643  0.5039  0.5136
12499TIP3    H158912   5.038   1.232   4.666  0.7086 -1.4664 -1.1362
12499TIP3    H258913   5.161   1.299   4.722 -1.8002  1.4308  1.2453
12500TIP3   OH258914   6.629   2.708   1.081  0.2327 -0.3239  0.2642
12500TIP3    H158915   6.612   2.667   0.996  2.0876  0.6791 -0.6630
12500TIP3    H258916   6.578   2.790   1.078 -0.4527 -0.7332  0.5314
12501TIP3   OH258917   5.895   1.094  13.838  0.3597  0.1696  0.2035
12501TIP3    H158918   5.865   1.165  13.781 -0.2003 -0.1717  0.0651
12501TIP3    H258919   5.882   1.127  13.927  0.9955  0.6037  0.1453
12502TIP3   OH258920   4.630   4.198   6.368 -0.6652 -0.1969  1.0002
12502TIP3    H158921   4.535   4.201   6.359 -0.7386 -1.5665  1.0916
12502TIP3    H258922   4.652   4.280   6.413 -1.4327  1.5724 -1.6038
12503TIP3   OH258923   3.608   4.093   1.964  0.2667 -0.1247 -0.0913
12503TIP3    H158924   3.580   4.180   1.992 -1.9936 -1.3948  1.8900
12503TIP3    H258925   3.529   4.053   1.927  1.2945 -1.3371 -1.0651
12504TIP3   OH258926   6.759   6.084   1.764 -0.4396  0.2947  0.2617
12504TIP3    H158927   6.739   6.155   1.824  0.0003  0.7184 -0.0834
12504TIP3    H258928   6.682   6.079   1.707 -0.3206  0.7371  0.0591
12505TIP3   OH258929   3.943   4.929   3.062  0.7418  0.2739 -0.2098
12505TIP3    H158930   3.932   4.940   3.157  0.6177 -2.8290  0.2410
12505TIP3    H258931   3.860   4.891   3.034  1.3429 -0.2875 -1.2658
12506TIP3   OH258932   6.556   1.013   3.907 -0.0354 -0.0665 -0.8778
12506TIP3    H158933   6.484   1.069   3.877 -1.0525 -0.5244  0.6240
12506TIP3    H258934   6.528   0.924   3.886 -1.3691 -0.5427  2.3182
12507TIP3   OH258935   3.514   4.331   2.048  0.0243 -0.1176  0.1379
12507TIP3    H158936   3.600   4.368   2.067  0.2871 -0.8088  0.3232
12507TIP3    H258937   3.461   4.406   2.022  0.8739  0.2144 -0.6776
12508TIP3   OH258938   2.467   3.502   4.661  0.3031  0.0914  0.6285
12508TIP3    H158939   2.428   3.417   4.643  0.0055  0.7335 -2.3523
12508TIP3    H258940   2.484   3.540   4.574 -1.8760  4.1020  1.6862
12509TIP3   OH258941   0.501   3.986  13.418 -0.2651 -0.1241  0.5912
12509TIP3    H158942   0.559   3.995  13.342 -0.9471  1.9539  0.2520
12509TIP3    H258943   0.466   3.897  13.410  2.0821 -1.1075  0.2841
12510TIP3   OH258944   6.374   2.720   5.717 -0.0890  0.4861 -0.2076
12510TIP3    H158945   6.467   2.738   5.736 -0.3662  1.1701  0.5475
12510TIP3    H258946   6.337   2.696   5.801 -0.7934  1.0493 -0.3567
12511TIP3   OH258947   2.717   2.845  13.661  0.0144  0.9941  0.0804
12511TIP3    H158948   2.638   2.895  13.685  0.2482  1.0846  0.6649
12511TIP3    H258949   2.718   2.772  13.722 -0.5689 -0.0084 -1.0488
12512TIP3   OH258950   5.121   5.947  15.949  0.3609  0.2165 -0.2175
12512TIP3    H158951   5.145   5.866  15.905  1.4694  0.8127 -0.7538
12512TIP3    H258952   5.109   6.011  15.879  0.1357  0.6707  0.2260
12513TIP3   OH258953   5.045   0.774  13.852  0.0445  0.9202 -0.8960
12513TIP3    H158954   5.124   0.813  13.816  0.6433  1.6695  1.0928
12513TIP3    H258955   5.075   0.723  13.927 -1.3353  1.1863 -0.1160
12514TIP3   OH258956   2.783   6.174  12.456 -0.2995 -0.2226  0.0187
12514TIP3    H158957   2.789   6.251  12.399 -1.2310  0.1226  0.3670
12514TIP3    H258958   2.748   6.208  12.538 -0.4522 -0.9821  0.2726
12515TIP3   OH258959   6.077   2.498   3.435 -0.1339  0.5713  0.4632
12515TIP3    H158960   6.006   2.466   3.491 -1.0251 -0.5867 -1.2163
12515TIP3    H258961   6.036   2.565   3.380  0.4459  0.9482  0.4913
12516TIP3   OH258962   5.711   0.393   2.594 -0.1801  0.0216 -0.2184
12516TIP3    H158963   5.773   0.380   2.522  0.2002  0.1918  0.0730
12516TIP3    H258964   5.630   0.419   2.552 -0.1183 -0.4256 -0.6230
12517TIP3   OH258965   5.260   0.875   1.719 -0.3849 -0.2089  0.2161
12517TIP3    H158966   5.252   0.866   1.624  0.1525  0.4160  0.1116
12517TIP3    H258967   5.169   0.876   1.750 -0.5554 -1.2914 -0.1978
12518TIP3   OH258968   5.740   5.686   2.564  0.4762 -0.5210 -0.8948
12518TIP3    H158969   5.718   5.769   2.521 -1.9178  0.0133  1.0807
12518TIP3    H258970   5.705   5.619   2.505  0.7622 -0.0449 -1.6249
12519TIP3   OH258971   0.459   6.689   3.619  0.2740 -0.7615  0.2916
12519TIP3    H158972   0.534   6.633   3.640  1.5266  0.0048 -1.8172
12519TIP3    H258973   0.460   6.695   3.524 -1.6480  0.4378  0.2916
12520TIP3   OH258974   0.435   6.009  14.642  0.2893  0.1803 -0.0459
12520TIP3    H158975   0.351   6.047  14.615  0.9311  1.1465 -0.7558
12520TIP3    H258976   0.440   5.926  14.595 -0.1200  0.2791 -0.2690
12521TIP3   OH258977   2.815   1.255   6.347  0.1945  0.3060 -0.2769
12521TIP3    H158978   2.890   1.304   6.379 -0.7879  1.4278  0.3880
12521TIP3    H258979   2.804   1.184   6.411  1.2215 -0.4441 -0.8895
12522TIP3   OH258980   2.965   1.114   5.291  0.3511 -0.7318  0.4783
12522TIP3    H158981   2.994   1.174   5.360  0.0194 -0.8463  0.7189
12522TIP3    H258982   2.884   1.154   5.257  0.6354 -0.5586  0.0029
12523TIP3   OH258983   6.564   6.051  15.440  0.0357 -0.5052 -0.4422
12523TIP3    H158984   6.616   5.975  15.412 -0.6105 -1.0807 -0.1091
12523TIP3    H258985   6.574   6.052  15.536 -0.9142 -0.8942 -0.3251
12524TIP3   OH258986   0.743   5.241   1.353  0.5939 -0.0174 -0.2401
12524TIP3    H158987   0.758   5.329   1.389  3.1610  0.1725 -1.5351
12524TIP3    H258988   0.683   5.255   1.280  1.1957  0.7307 -0.6072
12525TIP3   OH258989   5.298   5.866  16.342  0.9122 -0.1287 -0.8777
12525TIP3    H158990   5.225   5.912  16.300  0.3546 -0.9122 -0.7801
12525TIP3    H258991   5.275   5.863  16.434 -0.0561 -2.3573 -1.1377
12526TIP3   OH258992   4.465   0.667   0.281  0.3012 -0.0810 -0.1371
12526TIP3    H158993   4.397   0.726   0.313 -0.7724 -0.8480 -0.9387
12526TIP3    H258994   4.545   0.719   0.287 -0.3047  0.7733  1.0134
12527TIP3   OH258995   0.423   1.169   4.377 -0.1539  0.2502  0.9484
12527TIP3    H158996   0.428   1.254   4.333 -0.0566 -0.8370 -1.2798
12527TIP3    H258997   0.476   1.180   4.456 -0.1054  2.2292  0.6966
12528TIP3   OH258998   0.488   6.261   5.944  0.2011  0.0317 -0.5019
12528TIP3    H158999   0.545   6.325   5.901  0.7007 -0.0600  0.0213
12528TIP3    H259000   0.514   6.262   6.036  0.3280 -1.0434 -0.5099
12529TIP3   OH259001   5.830   1.156  12.499  0.3091 -0.1455  0.0296
12529TIP3    H159002   5.891   1.228  12.484 -0.5947  0.4885 -0.7108
12529TIP3    H259003   5.785   1.144  12.415 -1.6172  0.4094  0.9247
12530TIP3   OH259004   6.128   0.225   0.475  0.6217  0.0236  0.1419
12530TIP3    H159005   6.159   0.138   0.502  0.3090  0.0914  0.7573
12530TIP3    H259006   6.109   0.269   0.558 -1.6234 -0.2122 -0.1892
12531TIP3   OH259007   6.036   4.109  13.080  0.0099  0.2706  0.4155
12531TIP3    H159008   6.113   4.136  13.130  0.8797  0.8188 -1.1522
12531TIP3    H259009   5.973   4.180  13.094  1.4630  2.2014 -1.8289
12532TIP3   OH259010   6.271   4.035  15.013  0.3641 -0.1796 -0.0189
12532TIP3    H159011   6.224   4.118  15.005 -0.0473 -0.4393 -0.3902
12532TIP3    H259012   6.207   3.975  15.052  0.5590 -0.3954 -0.0270
12533TIP3   OH259013   2.157   0.288   4.306  0.8504  0.5897 -0.2362
12533TIP3    H159014   2.139   0.378   4.278 -1.7931 -0.0959 -1.0617
12533TIP3    H259015   2.234   0.262   4.257  0.7852  1.9520 -1.0989
12534TIP3   OH259016   4.269   5.768   6.230 -1.0878 -0.2809  0.7878
12534TIP3    H159017   4.359   5.756   6.198 -0.6787 -0.2315  1.8486
12534TIP3    H259018   4.253   5.692   6.285 -1.1860  0.3761  1.6910
12535TIP3   OH259019   4.615   4.156   4.968  0.3173 -0.5115 -0.1571
12535TIP3    H159020   4.571   4.079   4.934  1.4837 -1.2586 -0.0382
12535TIP3    H259021   4.580   4.167   5.056 -1.0889  0.1201 -0.7701
12536TIP3   OH259022   0.753   4.390  13.508 -0.0543 -0.2442 -0.3512
12536TIP3    H159023   0.773   4.431  13.592  1.0246 -0.4287 -0.5029
12536TIP3    H259024   0.729   4.300  13.529  1.2082 -0.5827 -0.3100
12537TIP3   OH259025   2.309   3.728   3.306 -0.0313 -0.2665  0.2528
12537TIP3    H159026   2.380   3.784   3.273 -0.5924 -0.6050 -1.6235
12537TIP3    H259027   2.341   3.639   3.291  0.3971 -0.4916  2.2307
12538TIP3   OH259028   5.473   2.758  15.628 -0.2830 -0.0832  0.4141
12538TIP3    H159029   5.477   2.852  15.647  1.0208 -0.3682  1.7732
12538TIP3    H259030   5.554   2.723  15.664 -0.6077 -1.6978 -0.3417
12539TIP3   OH259031   3.921   2.498   5.997 -0.3766  0.2047 -0.0425
12539TIP3    H159032   3.963   2.530   5.917  1.0718 -1.6010 -0.0962
12539TIP3    H259033   3.828   2.498   5.977 -0.0728  0.1078 -1.6328
12540TIP3   OH259034   2.493   4.584   5.159 -0.3905  0.0575  0.2381
12540TIP3    H159035   2.427   4.515   5.163 -1.6164  1.0457 -1.2106
12540TIP3    H259036   2.528   4.579   5.070  0.4767  0.4385  0.5473
12541TIP3   OH259037   0.655   3.015   1.125 -0.0389 -0.4116  0.2382
12541TIP3    H159038   0.595   3.089   1.133  0.8171  0.2783  0.3822
12541TIP3    H259039   0.738   3.047   1.162  0.5990 -1.1393 -0.5347
12542TIP3   OH259040   2.260   2.679   3.650  0.2314 -0.0808 -0.5122
12542TIP3    H159041   2.299   2.694   3.564 -2.3013  0.5341 -1.6518
12542TIP3    H259042   2.192   2.746   3.658 -1.1987 -1.5854  0.9030
12543TIP3   OH259043   4.141   2.240  12.284  0.3069 -0.0024  0.1658
12543TIP3    H159044   4.165   2.329  12.309 -1.9245  0.4399  0.9605
12543TIP3    H259045   4.167   2.232  12.192  1.7790  0.9771  0.4830
12544TIP3   OH259046   3.265   5.482  11.619 -0.0752  0.4534 -0.7559
12544TIP3    H159047   3.347   5.469  11.666 -0.7067  0.1970  0.3040
12544TIP3    H259048   3.277   5.566  11.574  0.2088  1.2050  0.6414
12545TIP3   OH259049   3.406   2.332  14.256 -0.9140  0.6353 -0.8442
12545TIP3    H159050   3.331   2.281  14.225 -0.4943 -1.6171  1.4568
12545TIP3    H259051   3.436   2.285  14.334  2.0984  2.1797 -0.9179
12546TIP3   OH259052   0.018   4.767  15.667 -0.2639  0.2377  0.0529
12546TIP3    H159053  -0.034   4.843  15.640 -0.4323  0.7159  1.6098
12546TIP3    H259054  -0.047   4.698  15.683 -0.3368  0.4805  0.8591
12547TIP3   OH259055   5.877   2.097  16.000  0.1975 -0.8527 -0.2394
12547TIP3    H159056   5.894   2.143  16.082  1.0431 -0.6194 -0.5281
12547TIP3    H259057   5.946   2.031  15.995 -0.0421 -1.0792 -0.6079
12548TIP3   OH259058   5.420   4.336   6.426 -0.0897 -0.3796  0.1117
12548TIP3    H159059   5.495   4.382   6.389  0.0179 -0.2026  0.5456
12548TIP3    H259060   5.457   4.275   6.489 -0.3069 -0.2892  0.3310
12549TIP3   OH259061   0.028   3.061   2.612  0.4391  0.8040 -0.4041
12549TIP3    H159062  -0.045   3.121   2.626 -0.4893 -0.5946  1.1168
12549TIP3    H259063   0.095   3.090   2.675 -0.3681 -0.2456  0.9968
12550TIP3   OH259064   1.989   1.181  10.741  0.2674 -0.0928 -0.1529
12550TIP3    H159065   1.973   1.244  10.670 -3.0031  0.8979  1.2520
12550TIP3    H259066   2.077   1.201  10.771  0.7172  1.2926 -2.1632
12551TIP3   OH259067   1.938   5.687  12.714  0.6075 -0.0399  0.3554
12551TIP3    H159068   1.891   5.761  12.750  1.6373  0.5899  0.4509
12551TIP3    H259069   1.871   5.633  12.672  0.1485  2.4025 -2.3170
12552TIP3   OH259070   0.078   3.401  13.915 -0.0752  0.4145 -0.5566
12552TIP3    H159071   0.066   3.341  13.842  0.0949  0.6482 -0.7804
12552TIP3    H259072   0.124   3.350  13.981 -1.0841 -0.0873 -0.2252
12553TIP3   OH259073   2.503   3.034   3.299  0.3736  0.0727 -0.2841
12553TIP3    H159074   2.417   3.063   3.330  0.3210  0.4056 -0.7208
12553TIP3    H259075   2.497   3.041   3.203  1.0936  0.6889 -0.2939
12554TIP3   OH259076   0.556   5.423  13.631 -0.5483  0.3754 -0.6941
12554TIP3    H159077   0.587   5.514  13.637 -1.8324  0.8687 -1.1454
12554TIP3    H259078   0.590   5.381  13.709  0.4320  1.1315 -0.6943
12555TIP3   OH259079   5.120   5.078   5.886  0.0245 -0.0973 -0.0419
12555TIP3    H159080   5.143   4.986   5.872 -0.6579 -0.0918 -1.4535
12555TIP3    H259081   5.194   5.127   5.851 -0.0864 -0.1055 -0.2892
12556TIP3   OH259082   0.127   3.960  13.979  0.2379  0.8193 -0.2152
12556TIP3    H159083   0.033   3.960  14.000  0.2776 -0.2821  0.0246
12556TIP3    H259084   0.155   4.050  13.994 -0.3577  0.7225  1.7773
12557TIP3   OH259085   4.018   2.486   1.412 -0.3981 -0.4391  0.6381
12557TIP3    H159086   4.064   2.541   1.475  0.1521  0.3707 -0.4377
12557TIP3    H259087   3.925   2.502   1.430 -0.2582 -0.5869  1.5405
12558TIP3   OH259088   5.598   2.939  15.230 -0.0379  0.7840  0.3122
12558TIP3    H159089   5.568   3.021  15.271 -0.9417  1.1246 -0.9394
12558TIP3    H259090   5.570   2.948  15.139  0.5192 -0.6137 -0.0064
12559TIP3   OH259091   5.463   3.261  11.975  0.3120  0.3149 -0.6955
12559TIP3    H159092   5.505   3.253  12.060  1.2398  2.7508 -0.8537
12559TIP3    H259093   5.372   3.284  11.994  0.4693  0.6572 -0.3495
12560TIP3   OH259094   5.048   5.394   0.329 -0.3116  0.3086  0.5820
12560TIP3    H159095   5.117   5.428   0.274  0.8828 -0.3379  1.6255
12560TIP3    H259096   4.970   5.443   0.303  1.1087  3.2958  1.4571
12561TIP3   OH259097   3.827   0.944   6.225 -0.2041 -0.2180 -0.2791
12561TIP3    H159098   3.782   0.916   6.305 -1.8128 -1.3956 -1.5344
12561TIP3    H259099   3.857   1.032   6.245 -0.7585 -0.3944  1.5526
12562TIP3   OH259100   6.418   6.017  15.200 -0.0778  0.1249  0.2849
12562TIP3    H159101   6.500   5.979  15.170  0.7947  1.8293  0.4109
12562TIP3    H259102   6.426   6.020  15.296 -0.7677 -0.6925  0.3864
12563TIP3   OH259103   6.215   6.715  17.315 -0.2824 -0.0798 -0.1137
12563TIP3    H159104   6.282   6.747  17.254  1.2368 -1.0245  0.9981
12563TIP3    H259105   6.145   6.683  17.259  0.3172  0.6580 -1.3289
12564TIP3   OH259106   5.743   2.007  14.011  0.3596 -0.2088  0.2983
12564TIP3    H159107   5.670   1.978  13.956  1.5579 -0.4356 -1.2385
12564TIP3    H259108   5.743   1.947  14.085 -0.4473 -0.7819 -0.1498
12565TIP3   OH259109   3.746   0.312   3.116 -0.2032  0.7725  1.1534
12565TIP3    H159110   3.743   0.220   3.142 -1.1465  0.9369  1.6606
12565TIP3    H259111   3.654   0.338   3.105  0.0723  1.4709  0.3445
12566TIP3   OH259112   3.648   5.243   5.671  0.3050 -0.1636  0.0876
12566TIP3    H159113   3.705   5.175   5.634 -1.0729 -0.8193 -0.9270
12566TIP3    H259114   3.704   5.320   5.679  1.3065 -0.7504 -1.0088
12567TIP3   OH259115   2.685   2.063  11.698  0.3011  0.0694 -0.0286
12567TIP3    H159116   2.597   2.096  11.715  0.0200 -0.3163 -0.6925
12567TIP3    H259117   2.718   2.116  11.626  0.6262  0.2316  0.2368
12568TIP3   OH259118   1.324   4.374  14.026 -0.4307  0.1400  0.4292
12568TIP3    H159119   1.417   4.356  14.041 -0.2271  1.0867  0.3623
12568TIP3    H259120   1.290   4.398  14.112 -0.0700  2.0624  0.0837
12569TIP3   OH259121   4.632   1.511  13.878 -0.1801  0.5489 -1.0860
12569TIP3    H159122   4.684   1.510  13.798  0.3143  0.9522 -0.7771
12569TIP3    H259123   4.550   1.553  13.852  0.2702  1.3821 -1.2173
12570TIP3   OH259124   5.374   0.236  12.868  0.1618 -0.4927 -0.3672
12570TIP3    H159125   5.340   0.266  12.953  0.6996 -0.4567 -0.1586
12570TIP3    H259126   5.355   0.143  12.866 -2.6471  0.0140 -1.5493
12571TIP3   OH259127   5.561   6.502   1.390  0.2920  0.2502 -0.3352
12571TIP3    H159128   5.627   6.433   1.381 -0.5761 -0.7480  0.6076
12571TIP3    H259129   5.484   6.457   1.424 -0.5815  1.5579 -0.4980
12572TIP3   OH259130   4.324   5.871  15.392 -0.0279  0.6144  0.6095
12572TIP3    H159131   4.408   5.881  15.346  0.0866  0.9273  0.8851
12572TIP3    H259132   4.314   5.952  15.442 -0.4322  0.5212  0.6843
12573TIP3   OH259133   1.397   0.679  11.042 -0.0306 -0.2182  0.4605
12573TIP3    H159134   1.410   0.616  10.971 -0.4953 -0.2315  0.3851
12573TIP3    H259135   1.309   0.713  11.029 -1.2511 -2.2121  2.5562
12574TIP3   OH259136   6.593   1.001   4.177 -0.0808  0.1646  0.4516
12574TIP3    H159137   6.570   1.029   4.088 -1.0483  0.5344  0.8118
12574TIP3    H259138   6.673   0.949   4.165 -1.2359 -1.4069 -0.8904
12575TIP3   OH259139   3.319   4.975  11.895 -0.1936  0.1571  0.0216
12575TIP3    H159140   3.314   4.984  11.991 -0.9778  0.8524 -0.0697
12575TIP3    H259141   3.283   5.057  11.862 -0.0358 -0.1318 -0.8747
12576TIP3   OH259142   2.056   3.445  15.724  0.4057  0.4621 -0.0255
12576TIP3    H159143   2.081   3.478  15.638  1.8606 -0.4604  0.0059
12576TIP3    H259144   1.969   3.483  15.740 -0.4574 -0.3373 -2.4012
12577TIP3   OH259145   4.161   3.564   6.399  0.1763  0.2947 -0.2763
12577TIP3    H159146   4.223   3.539   6.467 -0.9848  1.3196  1.2160
12577TIP3    H259147   4.075   3.550   6.438 -0.5263  0.8996 -1.5382
12578TIP3   OH259148   5.152   1.874   5.717 -0.2986 -0.6087 -0.2655
12578TIP3    H159149   5.195   1.896   5.634 -0.6290 -2.0261 -0.8477
12578TIP3    H259150   5.080   1.937   5.724  0.5122  0.3642 -0.3793
12579TIP3   OH259151   5.475   3.859   5.931  0.1121 -0.0971  0.0506
12579TIP3    H159152   5.555   3.810   5.910 -0.3895 -0.3729 -1.3761
12579TIP3    H259153   5.478   3.935   5.872 -0.6636 -0.1001  0.0007
12580TIP3   OH259154   2.584   6.534   2.726  0.0004 -0.6619  0.2142
12580TIP3    H159155   2.641   6.482   2.781 -0.7227 -1.7582 -0.0418
12580TIP3    H259156   2.617   6.624   2.735  1.6436 -1.2331  0.1943
12581TIP3   OH259157   0.487   4.684   4.986  0.4003  0.4950 -0.1147
12581TIP3    H159158   0.409   4.710   5.036  0.3817  1.0734 -0.4406
12581TIP3    H259159   0.466   4.707   4.896 -0.0766 -1.7066 -0.6139
12582TIP3   OH259160   0.966   4.670   4.362  0.2140 -0.3772 -0.2415
12582TIP3    H159161   0.937   4.622   4.439  0.0835 -0.9484 -0.6468
12582TIP3    H259162   1.043   4.623   4.331 -0.3880 -0.8086 -1.1113
12583TIP3   OH259163   0.669   2.402  12.928  0.1486  0.1434 -0.1288
12583TIP3    H159164   0.601   2.455  12.885  0.7956  1.4762  0.4237
12583TIP3    H259165   0.751   2.439  12.897  0.6315 -1.0532 -0.3079
12584TIP3   OH259166   5.576   4.830  12.291 -0.9742  0.6723  0.0475
12584TIP3    H159167   5.598   4.863  12.205 -0.3696  3.2465  1.0979
12584TIP3    H259168   5.652   4.778  12.318 -0.3667  1.3840 -0.2615
12585TIP3   OH259169   2.436   2.107  11.073  0.3030  0.0097  0.4687
12585TIP3    H159170   2.528   2.116  11.095  0.3285 -1.7934  1.2974
12585TIP3    H259171   2.414   2.017  11.099 -1.2254 -0.2080 -1.3771
12586TIP3   OH259172   2.927   0.833  16.048  0.7143 -0.1244  0.4195
12586TIP3    H159173   2.868   0.759  16.036  1.0482 -0.2734 -0.3433
12586TIP3    H259174   2.926   0.878  15.964  1.2382  0.2006  0.5832
12587TIP3   OH259175   2.651   1.309  13.892 -0.2172 -0.1600 -0.3386
12587TIP3    H159176   2.696   1.385  13.928  1.3800  0.0443 -2.5904
12587TIP3    H259177   2.627   1.335  13.803 -0.9822 -1.7704 -0.6416
12588TIP3   OH259178   0.459   2.161  16.821  0.3106 -0.0093 -0.7513
12588TIP3    H159179   0.493   2.088  16.873  0.7153  0.4317 -0.3772
12588TIP3    H259180   0.498   2.239  16.862  0.0419  0.3990 -1.2640
12589TIP3   OH259181   0.895   2.618  13.272  0.4728  0.3596 -0.1449
12589TIP3    H159182   0.881   2.625  13.366  0.3196 -0.2643 -0.1163
12589TIP3    H259183   0.881   2.525  13.252 -0.0558  0.5843 -0.8725
12590TIP3   OH259184   5.762   3.234   4.368 -0.2168 -0.0890  0.3194
12590TIP3    H159185   5.686   3.273   4.325 -0.0503 -0.4174 -0.2848
12590TIP3    H259186   5.737   3.143   4.381  0.4378 -0.4477 -0.7931
12591TIP3   OH259187   3.973   0.225  16.636 -0.1800  0.1813  0.0053
12591TIP3    H159188   3.882   0.238  16.608 -1.1668 -2.3854  1.6415
12591TIP3    H259189   4.002   0.147  16.589  1.1539  0.8847 -0.3806
12592TIP3   OH259190   5.700   3.267   3.219  0.1919 -0.0345  0.0550
12592TIP3    H159191   5.760   3.232   3.154  0.2553 -0.3562  0.2859
12592TIP3    H259192   5.634   3.315   3.168  0.2553 -0.2650 -0.2426
12593TIP3   OH259193   1.105   0.356  14.778 -0.4433  0.3892  0.3564
12593TIP3    H159194   1.178   0.340  14.837  1.0831 -0.5547 -1.6814
12593TIP3    H259195   1.114   0.291  14.709 -2.1938  1.3832 -0.9082
12594TIP3   OH259196   3.612   2.460  11.907 -0.5153  0.2989 -0.3434
12594TIP3    H159197   3.657   2.431  11.987  1.4006 -1.8880 -2.0670
12594TIP3    H259198   3.679   2.505  11.857 -1.7423  1.8062 -0.7121
12595TIP3   OH259199   0.211   0.615   6.102  0.2927 -0.2016  0.6430
12595TIP3    H159200   0.147   0.645   6.037 -0.4889 -1.8076  0.6187
12595TIP3    H259201   0.158   0.585   6.176  1.0436 -0.9507  0.8929
12596TIP3   OH259202   4.183   3.737  13.724  0.0435 -0.4175 -0.0624
12596TIP3    H159203   4.121   3.674  13.761  0.5122 -0.4613  0.6601
12596TIP3    H259204   4.143   3.763  13.641 -0.1266 -1.7041 -0.4090
12597TIP3   OH259205   3.854   4.054  16.632  0.1014  0.8270  0.2751
12597TIP3    H159206   3.796   4.049  16.556  0.8974  2.8813 -0.5380
12597TIP3    H259207   3.796   4.039  16.707 -0.8044 -0.6639 -0.6546
12598TIP3   OH259208   0.353   5.009  17.256  0.4991  0.5007  0.2381
12598TIP3    H159209   0.301   4.937  17.221  0.1791  0.5256  0.6538
12598TIP3    H259210   0.376   5.062  17.179  1.2979 -0.3908 -0.1606
12599TIP3   OH259211   4.305   2.701  14.432  0.1060 -0.9053 -0.5517
12599TIP3    H159212   4.313   2.653  14.514 -1.1562 -1.1195 -0.5385
12599TIP3    H259213   4.234   2.657  14.385  0.7645 -0.7489 -1.7432
12600TIP3   OH259214   1.302   1.756  14.802  0.2363  0.4299 -0.0647
12600TIP3    H159215   1.255   1.696  14.860 -0.3458  0.4641 -0.4916
12600TIP3    H259216   1.259   1.746  14.717 -0.4405  2.0930  0.0515
12601TIP3   OH259217   5.051   1.952   1.876  0.0586 -0.5216  0.3186
12601TIP3    H159218   5.092   2.038   1.882  0.7722 -0.9170  1.4193
12601TIP3    H259219   5.120   1.894   1.844  0.5501 -1.2721  2.5813
12602TIP3   OH259220   1.602   3.512  12.222  0.5336 -0.2369  0.3112
12602TIP3    H159221   1.538   3.581  12.204  0.0760 -0.8949 -0.7063
12602TIP3    H259222   1.555   3.449  12.278  0.4780 -0.4173  0.0663
12603TIP3   OH259223   4.079   0.573  11.884  0.4592 -0.3813 -0.0569
12603TIP3    H159224   4.125   0.630  11.823 -0.4385 -0.6432 -1.0045
12603TIP3    H259225   4.082   0.486  11.843 -0.7465 -0.4264 -0.0939
12604TIP3   OH259226   6.325   0.472   2.251 -0.1410  0.7035 -0.1581
12604TIP3    H159227   6.302   0.390   2.208 -2.6535  0.7799  0.8772
12604TIP3    H259228   6.294   0.540   2.190 -1.2209  0.8331  0.5205
12605TIP3   OH259229   6.111   3.160   5.070  0.1373 -0.6366  0.6773
12605TIP3    H159230   6.115   3.162   5.165 -1.0249 -0.6261  0.7324
12605TIP3    H259231   6.018   3.169   5.049  0.1887 -2.2827 -0.4094
12606TIP3   OH259232   1.449   2.279   2.817  0.3806 -0.6477  0.6557
12606TIP3    H159233   1.381   2.234   2.867  0.4754  0.5124  1.8696
12606TIP3    H259234   1.470   2.357   2.868  1.6748 -0.2753 -0.3712
12607TIP3   OH259235   5.166   2.725  15.418 -0.7946  0.1162 -0.3562
12607TIP3    H159236   5.259   2.745  15.403 -0.8923 -0.0058 -1.1266
12607TIP3    H259237   5.127   2.810  15.439 -0.6474  0.2854 -0.7491
12608TIP3   OH259238   5.775   0.741  16.363 -0.1511  0.4412 -0.0019
12608TIP3    H159239   5.785   0.833  16.385 -2.3686  0.8058 -0.2681
12608TIP3    H259240   5.752   0.740  16.270  0.8163 -0.4724 -0.2545
12609TIP3   OH259241   5.912   5.814  12.335 -0.1082  0.6850  0.2032
12609TIP3    H159242   5.827   5.816  12.378 -0.7755 -1.6706 -0.8688
12609TIP3    H259243   5.905   5.744  12.270  1.4952  2.7025 -2.3634
12610TIP3   OH259244   1.716   0.922  14.122  0.3944 -0.1388 -0.3080
12610TIP3    H159245   1.802   0.889  14.099  0.1128 -1.5984  0.6013
12610TIP3    H259246   1.656   0.848  14.108 -0.6978  0.8039 -0.8132
12611TIP3   OH259247   1.013   4.011   1.214 -0.3742 -0.3026  0.0530
12611TIP3    H159248   0.983   4.101   1.209  1.6052  0.3276 -1.2309
12611TIP3    H259249   1.057   4.005   1.299 -0.3365 -0.0092  0.0547
12612TIP3   OH259250   4.062   3.736  10.689 -0.5060 -0.2368  0.1371
12612TIP3    H159251   4.103   3.821  10.673 -0.0486 -0.2788  1.0092
12612TIP3    H259252   4.135   3.675  10.691 -0.9008 -0.7798 -1.2313
12613TIP3   OH259253   4.568   1.777  17.301  0.1569 -0.4550 -0.4418
12613TIP3    H159254   4.626   1.851  17.281  0.0505 -0.0874  0.5591
12613TIP3    H259255   4.586   1.757  17.393 -1.3986 -0.2503 -0.0787
12614TIP3   OH259256   2.956   5.430   2.974 -0.2506 -0.0743  0.3573
12614TIP3    H159257   3.007   5.510   2.962 -0.2397 -0.1708 -0.2966
12614TIP3    H259258   3.014   5.360   2.942  0.2889 -0.5305  2.2064
12615TIP3   OH259259   2.894   5.649  11.160 -0.6091 -0.6705 -0.2697
12615TIP3    H159260   2.938   5.669  11.242 -1.9762 -1.3105  0.6440
12615TIP3    H259261   2.897   5.732  11.111 -2.3902  0.6356  1.6702
12616TIP3   OH259262   3.869   3.140   5.093  0.0875 -0.2329  0.3571
12616TIP3    H159263   3.956   3.103   5.078  0.0551 -0.1271 -0.1100
12616TIP3    H259264   3.813   3.097   5.028  0.0599  0.6843 -0.2360
12617TIP3   OH259265   3.941   3.727   5.005  0.3184  0.2782 -0.2686
12617TIP3    H159266   3.887   3.773   4.941  1.4517  1.9183 -0.1231
12617TIP3    H259267   3.904   3.751   5.090  0.5113  0.4105 -0.2199
12618TIP3   OH259268   2.461   0.403   1.491  0.7112  0.4172 -0.6538
12618TIP3    H159269   2.400   0.415   1.418 -1.8888 -2.4224  0.8111
12618TIP3    H259270   2.418   0.447   1.565  2.2305  1.3980 -0.3237
12619TIP3   OH259271   2.890   3.185   2.683 -0.0866  0.4620  0.2264
12619TIP3    H159272   2.964   3.176   2.742  0.2701  1.6002 -0.0114
12619TIP3    H259273   2.888   3.278   2.661 -0.7844  0.2259 -0.8154
12620TIP3   OH259274   4.069   2.812   4.223 -0.1855 -0.0893 -0.2175
12620TIP3    H159275   4.037   2.793   4.311  3.2758  0.0409  1.2395
12620TIP3    H259276   4.072   2.908   4.219 -2.3364 -0.0198 -1.3703
12621TIP3   OH259277   1.936   5.176   2.131 -0.3066 -0.6563  0.1821
12621TIP3    H159278   1.935   5.089   2.090  0.7156 -0.5405 -0.0986
12621TIP3    H259279   1.881   5.166   2.209  0.0002 -1.6247  0.2851
12622TIP3   OH259280   1.057   1.715  12.135 -0.0552 -0.3809  0.2898
12622TIP3    H159281   1.125   1.656  12.102 -0.1526 -0.8544  0.9221
12622TIP3    H259282   1.104   1.777  12.191 -0.1370 -0.7050  0.7233
12623TIP3   OH259283   6.082   5.069   4.699  0.6204  0.4398 -0.3735
12623TIP3    H159284   6.064   5.139   4.761  0.3952  0.6639 -0.6925
12623TIP3    H259285   6.007   5.068   4.640 -0.0011 -0.9189  0.4020
12624TIP3   OH259286   2.569   0.611   1.226  0.0178 -0.3364 -0.0009
12624TIP3    H159287   2.566   0.706   1.219  1.0470 -0.3237 -0.4014
12624TIP3    H259288   2.488   0.588   1.273 -0.8987  0.6103 -1.0519
12625TIP3   OH259289   3.266   0.618  15.887  0.1721  0.1657  0.3593
12625TIP3    H159290   3.251   0.680  15.959  0.2487  0.2875  0.2715
12625TIP3    H259291   3.201   0.549  15.901  1.0286 -0.4822  1.2940
12626TIP3   OH259292   4.609   2.154   2.079  0.0066 -0.1666 -0.0587
12626TIP3    H159293   4.572   2.242   2.083 -0.7481 -0.4704 -0.2768
12626TIP3    H259294   4.701   2.168   2.056  0.0979  0.6061  0.7115
12627TIP3   OH259295   5.356   1.672   5.413 -0.3719  0.1225 -0.0233
12627TIP3    H159296   5.433   1.641   5.367  0.3518 -0.4065  1.4762
12627TIP3    H259297   5.391   1.718   5.490 -1.5216  1.2104 -0.1160
12628TIP3   OH259298   6.525   4.687   6.059 -0.3177  0.3378  0.2690
12628TIP3    H159299   6.550   4.728   6.142  0.9301 -0.0180  0.0985
12628TIP3    H259300   6.544   4.753   5.992 -0.1022  0.1661  0.1591
12629TIP3   OH259301   4.478   4.352   1.152  0.8764 -0.1291 -0.1182
12629TIP3    H159302   4.423   4.354   1.074  1.6754  0.0109 -0.6862
12629TIP3    H259303   4.473   4.441   1.187  0.5439 -0.1843 -0.0198
12630TIP3   OH259304   3.280   3.768  15.609 -0.5364 -0.4540 -0.2761
12630TIP3    H159305   3.330   3.734  15.683 -0.1897 -0.5861 -0.5677
12630TIP3    H259306   3.342   3.767  15.536 -0.7962 -0.0675 -0.5044
12631TIP3   OH259307   5.472   1.736  17.015  0.0170 -0.3400  0.3063
12631TIP3    H159308   5.498   1.807  17.074 -1.4547 -0.7500  1.5189
12631TIP3    H259309   5.385   1.710  17.046 -0.5818 -0.9485 -1.7211
12632TIP3   OH259310   2.562   6.709  16.457  0.1500 -0.6669  0.1969
12632TIP3    H159311   2.650   6.709  16.420 -0.5068  0.6860 -1.5626
12632TIP3    H259312   2.546   6.619  16.484  1.3428 -1.3675 -1.3082
12633TIP3   OH259313   6.587   3.799  15.179  0.3893 -0.0232 -0.4747
12633TIP3    H159314   6.569   3.852  15.101 -0.2908  0.5219  0.0450
12633TIP3    H259315   6.502   3.787  15.220  0.8980  0.8051  0.8899
12634TIP3   OH259316   5.375   4.308   2.873 -0.6957 -0.4648 -0.3637
12634TIP3    H159317   5.462   4.346   2.860 -1.2078  1.3043  0.8774
12634TIP3    H259318   5.338   4.302   2.785  0.7284 -1.4295 -0.9295
12635TIP3   OH259319   6.589   5.522   2.332 -0.3574  0.3112  0.8807
12635TIP3    H159320   6.611   5.601   2.382 -0.1382 -0.0797  1.4085
12635TIP3    H259321   6.667   5.467   2.339 -1.0356 -0.5633  1.7172
12636TIP3   OH259322   2.769   1.603  15.743  0.3816  0.3815  0.3330
12636TIP3    H159323   2.677   1.612  15.718  1.1416  1.0152 -2.6995
12636TIP3    H259324   2.800   1.694  15.751  0.8465  0.1795  0.8849
12637TIP3   OH259325   1.150   0.708   4.376  0.1521  0.2837 -0.3475
12637TIP3    H159326   1.236   0.682   4.410  0.0897  0.3317 -0.1518
12637TIP3    H259327   1.147   0.803   4.388  0.5253  0.4409 -1.3950
12638TIP3   OH259328   3.753   3.618  13.221  0.4511 -0.6365  0.1699
12638TIP3    H159329   3.846   3.620  13.198  0.6747  1.1124  0.9915
12638TIP3    H259330   3.752   3.597  13.315  0.0198 -0.7797  0.1346
12639TIP3   OH259331   1.275   3.146   2.426 -0.4064 -0.1002 -0.1944
12639TIP3    H159332   1.284   3.065   2.475  1.2035 -0.0200 -0.2982
12639TIP3    H259333   1.342   3.140   2.358 -1.0476  0.8082 -0.9339
12640TIP3   OH259334   4.936   1.473   3.528  0.5829 -0.5372  0.1713
12640TIP3    H159335   4.890   1.537   3.583  0.6948  0.3874 -0.7681
12640TIP3    H259336   4.870   1.444   3.465  0.9061 -0.2151 -0.3321
12641TIP3   OH259337   3.605   4.890  12.401  0.2416 -0.3246  0.4161
12641TIP3    H159338   3.669   4.819  12.409  0.4486 -0.2823 -0.6951
12641TIP3    H259339   3.575   4.906  12.491  0.3614 -1.6517  0.7056
12642TIP3   OH259340   5.569   6.749  12.753  0.8332 -0.1974  0.0734
12642TIP3    H159341   5.480   6.713  12.752 -0.4885  2.8065 -0.6628
12642TIP3    H259342   5.599   6.740  12.663  0.8010 -0.1008  0.0538
12643TIP3   OH259343   5.357   5.858   5.224  0.4587  0.0705  0.3956
12643TIP3    H159344   5.317   5.882   5.141 -1.6216 -1.8202  0.7457
12643TIP3    H259345   5.422   5.791   5.201 -0.1046 -0.4409  0.2690
12644TIP3   OH259346   3.481   6.007  17.149  0.2230  0.5472 -0.1496
12644TIP3    H159347   3.422   5.987  17.221  1.9444 -1.3167  0.8466
12644TIP3    H259348   3.440   5.969  17.072 -0.8240  1.0953  0.1263
12645TIP3   OH259349   4.131   6.570   0.360 -0.1572 -0.0418  0.0569
12645TIP3    H159350   4.076   6.509   0.409 -0.5781  0.1038 -0.2199
12645TIP3    H259351   4.092   6.572   0.272  1.6286 -1.6640 -0.8389
12646TIP3   OH259352   4.011   6.531   2.162 -0.8003 -0.1486  0.6867
12646TIP3    H159353   3.927   6.483   2.161 -1.6907  1.3462 -0.4641
12646TIP3    H259354   4.060   6.493   2.089 -0.9405 -0.2719  0.6546
12647TIP3   OH259355   2.664   3.967  15.496 -0.3794  0.3153 -0.0047
12647TIP3    H159356   2.731   3.961  15.428 -0.5981  0.2981 -0.2206
12647TIP3    H259357   2.710   4.002  15.572 -0.1418  0.3765 -0.1747
12648TIP3   OH259358   4.265   5.881   4.492 -0.0372 -0.8474  0.3687
12648TIP3    H159359   4.253   5.877   4.397  1.0324 -1.0261  0.2262
12648TIP3    H259360   4.270   5.974   4.512 -0.4588 -0.8049  0.2724
12649TIP3   OH259361   1.073   1.061  14.188 -0.7005  0.3263 -0.4938
12649TIP3    H159362   1.039   0.986  14.236 -0.3786  1.0085  0.8601
12649TIP3    H259363   1.128   1.023  14.120 -1.5774 -0.6896 -0.6436
12650TIP3   OH259364   0.402   3.036   1.471 -0.4988 -0.2692  0.1861
12650TIP3    H159365   0.349   3.021   1.393  1.0891 -1.0498 -0.8210
12650TIP3    H259366   0.376   3.122   1.503 -0.3763  0.6017 -1.9185
12651TIP3   OH259367   0.974   2.795  12.574  0.4113  0.7501  0.2977
12651TIP3    H159368   0.936   2.805  12.661  0.7421  1.1981  0.3959
12651TIP3    H259369   0.902   2.762  12.520  1.2774 -4.4636  1.7153
12652TIP3   OH259370   1.059   4.811   0.422  0.0320  0.5468  0.0178
12652TIP3    H159371   1.007   4.829   0.500  1.4493 -2.4089  1.8020
12652TIP3    H259372   1.086   4.720   0.431  1.6074  0.5542 -3.1759
12653TIP3   OH259373   5.068   2.719   4.271  0.0034  0.5973 -0.9819
12653TIP3    H159374   4.994   2.772   4.244  0.0251  3.1511  3.0864
12653TIP3    H259375   5.029   2.643   4.314 -0.2718  1.1786 -0.1808
12654TIP3   OH259376   0.678   5.600   5.149  0.2978  0.0520  0.3337
12654TIP3    H159377   0.756   5.603   5.093 -0.4356  2.0018 -0.6768
12654TIP3    H259378   0.637   5.517   5.129  1.3748 -0.3711 -0.1704
12655TIP3   OH259379   6.656   0.243   5.639  0.3890  0.3736  0.3585
12655TIP3    H159380   6.659   0.266   5.546  0.1548  1.0634  0.5201
12655TIP3    H259381   6.605   0.312   5.680 -0.1361 -0.3140  0.8974
12656TIP3   OH259382   2.064   0.517   4.164  0.0358  0.0433  1.0433
12656TIP3    H159383   2.049   0.449   4.098 -0.2562 -0.3643  1.5236
12656TIP3    H259384   1.978   0.531   4.204  0.3788 -0.3314  1.9341
12657TIP3   OH259385   5.709   3.753  17.108  0.9438 -1.0113  0.0564
12657TIP3    H159386   5.637   3.720  17.055  2.1707 -0.9023 -1.7521
12657TIP3    H259387   5.667   3.808  17.174 -0.7738 -2.6223  0.3928
12658TIP3   OH259388   3.049   0.536   4.274 -0.1387 -0.1782  0.0185
12658TIP3    H159389   3.121   0.489   4.317  0.6856  2.6897  2.0881
12658TIP3    H259390   2.971   0.506   4.321  0.2046 -0.4659  0.4236
12659TIP3   OH259391   3.794   5.217  17.135 -0.2319  0.1089 -0.7159
12659TIP3    H159392   3.721   5.278  17.122 -0.2109 -0.1221 -1.9865
12659TIP3    H259393   3.798   5.166  17.054  0.4888 -0.8000 -0.1258
12660TIP3   OH259394   0.651   0.708  15.490  1.1985 -0.0959  0.1450
12660TIP3    H159395   0.710   0.691  15.417  2.5284  1.4480  0.7963
12660TIP3    H259396   0.704   0.756  15.554 -0.6926  1.1918  0.8508
12661TIP3   OH259397   3.723   4.963  11.805 -0.1064  0.0731  0.2299
12661TIP3    H159398   3.739   4.904  11.732  0.4675  2.2323 -1.5156
12661TIP3    H259399   3.648   5.016  11.777  1.0826  1.9808  0.4775
12662TIP3   OH259400   6.563   5.160  11.225 -0.2313 -0.6710  0.0495
12662TIP3    H159401   6.522   5.220  11.163 -0.3457  0.4802  1.2011
12662TIP3    H259402   6.504   5.085  11.228 -0.5600 -0.4580 -0.7266
12663TIP3   OH259403   2.314   4.519   2.120  0.1403 -0.0472 -0.4591
12663TIP3    H159404   2.246   4.586   2.112  0.3151 -0.0484 -2.4365
12663TIP3    H259405   2.371   4.534   2.045  0.3671 -2.2165 -0.7776
12664TIP3   OH259406   0.005   6.597  13.926 -0.4026  0.5930 -0.2593
12664TIP3    H159407   0.067   6.525  13.935 -2.5192 -1.2351  0.8261
12664TIP3    H259408   0.059   6.675  13.916  2.0015 -1.0310 -0.6246
12665TIP3   OH259409   1.377   2.500   6.227 -0.3196 -0.3535 -0.2515
12665TIP3    H159410   1.360   2.486   6.320 -3.2166 -0.2480 -0.6802
12665TIP3    H259411   1.330   2.429   6.184  0.0111  0.2671 -1.6771
12666TIP3   OH259412   4.621   4.112  16.347  0.1069 -0.0626 -0.5025
12666TIP3    H159413   4.596   4.097  16.256  0.2058 -0.3883 -0.4752
12666TIP3    H259414   4.659   4.029  16.375  1.0780  0.3695 -0.5015
12667TIP3   OH259415   5.240   4.820   5.814  0.2911 -0.5930  0.2903
12667TIP3    H159416   5.221   4.732   5.848 -0.0525 -0.3754  0.6632
12667TIP3    H259417   5.324   4.810   5.768  2.0096 -0.4210  3.1461
12668TIP3   OH259418   3.443   5.946  11.405  0.6454  0.4090  0.1344
12668TIP3    H159419   3.447   6.014  11.338 -0.0733 -0.4931 -0.8697
12668TIP3    H259420   3.522   5.893  11.390 -0.5585 -1.0561 -1.4680
12669TIP3   OH259421   3.249   1.829  17.307  0.6491  0.1329 -0.0797
12669TIP3    H159422   3.193   1.784  17.370  1.0216  0.4551  0.4916
12669TIP3    H259423   3.337   1.825  17.346  1.3955 -1.9915 -1.8026
12670TIP3   OH259424   5.202   5.565  10.705  0.1549 -0.3985  0.7851
12670TIP3    H159425   5.108   5.553  10.720 -0.1715  0.0553 -0.7552
12670TIP3    H259426   5.218   5.524  10.620  1.2937 -0.1736  0.8781
12671TIP3   OH259427   1.590   1.939   1.693  0.2553  1.1904 -0.2577
12671TIP3    H159428   1.531   1.866   1.711 -0.2066  1.7011  0.3701
12671TIP3    H259429   1.668   1.899   1.656 -1.5525  0.6825 -4.0226
12672TIP3   OH259430   3.050   1.350  11.643 -0.5322  0.0660 -0.3916
12672TIP3    H159431   3.139   1.333  11.674 -0.3901  0.5708 -0.5055
12672TIP3    H259432   3.011   1.263  11.632 -0.3407 -0.1337  0.4800
12673TIP3   OH259433   3.404   5.617   6.063  0.1497  0.7357 -0.1233
12673TIP3    H159434   3.455   5.583   5.990  1.5704  1.3953  0.5349
12673TIP3    H259435   3.462   5.678   6.107 -0.8812  0.7895  1.2263
12674TIP3   OH259436   1.793   5.311  11.703 -0.2359 -0.3254 -0.2125
12674TIP3    H159437   1.879   5.293  11.666 -0.4988 -0.2486 -0.8837
12674TIP3    H259438   1.773   5.234  11.756  0.3052 -0.2801  0.0605
12675TIP3   OH259439   0.362   2.655  15.100  0.2796 -0.1142 -0.4526
12675TIP3    H159440   0.370   2.712  15.177 -0.0322  1.4068 -1.5014
12675TIP3    H259441   0.273   2.670  15.069 -0.8602 -3.3807  0.8463
12676TIP3   OH259442   4.268   5.095  14.322  0.2203  0.0358  0.4866
12676TIP3    H159443   4.279   5.179  14.276  1.3285 -0.8390 -0.9359
12676TIP3    H259444   4.278   5.029  14.253 -1.5744 -1.2779  1.3898
12677TIP3   OH259445   2.195   4.824  16.671 -0.3853  0.4453  0.0173
12677TIP3    H159446   2.220   4.851  16.583 -0.1762  0.6655  0.1384
12677TIP3    H259447   2.276   4.787  16.708 -0.0573  1.6920  0.6147
12678TIP3   OH259448   0.631   4.318   6.355 -0.0917 -0.1611 -0.1534
12678TIP3    H159449   0.560   4.275   6.308 -0.5231  0.3239  0.0359
12678TIP3    H259450   0.592   4.400   6.387  0.6222  0.2248 -0.2551
12679TIP3   OH259451   0.810   2.038   4.740  0.1196  0.0496 -1.0143
12679TIP3    H159452   0.863   1.959   4.741 -0.9878 -0.7185 -0.4667
12679TIP3    H259453   0.812   2.067   4.649 -1.6307 -2.1599 -1.8413
12680TIP3   OH259454   1.726   3.579   2.845 -0.1323  0.0037 -0.0256
12680TIP3    H159455   1.811   3.613   2.817 -0.5887  0.6513 -0.6885
12680TIP3    H259456   1.724   3.593   2.939  0.1491  0.8112 -0.1264
12681TIP3   OH259457   5.296   1.133   1.063 -0.5518 -0.7543 -0.1752
12681TIP3    H159458   5.238   1.058   1.068 -1.4089 -0.0936 -0.0660
12681TIP3    H259459   5.298   1.169   1.152 -0.5463 -0.3534 -0.3339
12682TIP3   OH259460   5.588   5.472  17.046  0.1564  0.2076 -0.2868
12682TIP3    H159461   5.539   5.394  17.022  0.2433  0.0914 -0.0865
12682TIP3    H259462   5.556   5.540  16.986  0.7476 -0.2042 -1.0912
12683TIP3   OH259463   5.371   3.542  10.659  0.2867 -0.2172 -0.0385
12683TIP3    H159464   5.379   3.637  10.658 -1.1820 -0.0603 -1.2898
12683TIP3    H259465   5.286   3.526  10.700  0.3004 -0.9770 -0.2964
12684TIP3   OH259466   0.487   4.630   4.351 -0.2050  0.1060 -0.2164
12684TIP3    H159467   0.530   4.674   4.424  1.2950 -1.3161 -0.1978
12684TIP3    H259468   0.544   4.556   4.330 -3.1242 -2.5932  0.5463
12685TIP3   OH259469   1.873   0.942  10.623 -0.8147  0.1039  0.1205
12685TIP3    H159470   1.873   0.936  10.527  0.3823  0.3372  0.0779
12685TIP3    H259471   1.905   1.031  10.640  1.1525 -0.6708  0.7200
12686TIP3   OH259472   0.325   6.681  16.719  0.3278 -0.0992 -0.2017
12686TIP3    H159473   0.408   6.635  16.707  1.0226  1.1659 -0.5217
12686TIP3    H259474   0.291   6.692  16.630  0.6629  0.8384 -0.2252
12687TIP3   OH259475   0.972   6.252   5.372  0.2700  0.3082  0.1532
12687TIP3    H159476   1.045   6.190   5.381  1.1073  1.1624 -0.5669
12687TIP3    H259477   0.915   6.213   5.307 -0.0619 -0.4826  0.8898
12688TIP3   OH259478   0.606   0.364  12.515  0.1989 -0.6003 -0.0910
12688TIP3    H159479   0.554   0.307  12.458 -1.1264  1.0775 -0.6204
12688TIP3    H259480   0.548   0.381  12.590  0.8478 -0.4830  0.3879
12689TIP3   OH259481   4.424   3.895   6.300 -0.9441 -0.3375 -0.4073
12689TIP3    H159482   4.515   3.872   6.318 -0.7571  0.0721 -0.8161
12689TIP3    H259483   4.428   3.949   6.222 -1.5582 -0.4458 -0.5185
12690TIP3   OH259484   6.141   4.419   3.567  1.1516  0.0040 -0.0590
12690TIP3    H159485   6.052   4.432   3.534  1.3253 -0.3286 -0.6589
12690TIP3    H259486   6.173   4.507   3.585  0.1683  0.0723  1.6094
12691TIP3   OH259487   2.375   4.062  15.177  0.4395  0.2360 -0.1924
12691TIP3    H159488   2.401   4.109  15.098 -0.8985  0.2603 -0.6392
12691TIP3    H259489   2.301   4.113  15.211 -1.2746 -1.6935 -0.8665
12692TIP3   OH259490   5.862   5.574  12.572  0.4339 -0.0145 -0.6847
12692TIP3    H159491   5.837   5.633  12.501 -0.0238 -0.1868 -0.6705
12692TIP3    H259492   5.896   5.631  12.641 -1.4744  0.4109 -0.0191
12693TIP3   OH259493   3.726   4.280  14.284  0.8466  0.8536  0.2547
12693TIP3    H159494   3.727   4.240  14.371  1.5977 -1.6474 -0.7936
12693TIP3    H259495   3.795   4.345  14.286  2.9890 -1.3017  0.7052
12694TIP3   OH259496   3.852   5.660   1.849  0.4848  0.3973  0.3540
12694TIP3    H159497   3.849   5.575   1.892  0.8655  1.4525  2.6207
12694TIP3    H259498   3.821   5.721   1.915  0.6336  2.0915 -1.0697
12695TIP3   OH259499   2.874   5.830   0.345 -0.4192  0.0223  1.4935
12695TIP3    H159500   2.790   5.818   0.301  0.2952 -2.1875  0.6100
12695TIP3    H259501   2.851   5.858   0.434 -1.9400  5.2900 -0.1396
12696TIP3   OH259502   2.224   4.110  11.486 -0.0380  0.3749  0.1637
12696TIP3    H159503   2.290   4.085  11.421 -0.8804 -1.4856 -0.0511
12696TIP3    H259504   2.155   4.045  11.476 -1.3129  1.4938  1.2858
12697TIP3   OH259505   6.040   3.870   3.196  0.3955 -0.1378 -0.4843
12697TIP3    H159506   6.040   3.872   3.292  0.7975  1.2107 -0.4955
12697TIP3    H259507   5.949   3.891   3.171  0.1668 -0.9917 -0.4120
12698TIP3   OH259508   3.576   4.441  11.173  0.2225 -0.3944  0.2956
12698TIP3    H159509   3.579   4.494  11.094 -0.9072 -0.5762  0.1045
12698TIP3    H259510   3.661   4.397  11.177  0.8704  0.7955  0.0307
12699TIP3   OH259511   3.095   3.872   6.521 -0.6479 -0.7146 -0.3805
12699TIP3    H159512   3.010   3.830   6.532  0.3700 -2.9783 -0.5819
12699TIP3    H259513   3.158   3.802   6.534  1.2978  1.2567  1.6529
12700TIP3   OH259514   4.982   6.231  15.788  0.2378 -0.0465 -0.0703
12700TIP3    H159515   4.963   6.309  15.840  1.3538 -0.3562  0.8568
12700TIP3    H259516   5.072   6.209  15.811 -0.4573 -2.3457  0.6827
12701TIP3   OH259517   0.967   5.097  15.245 -0.8624  0.0067  0.0345
12701TIP3    H159518   0.929   5.030  15.303 -0.6899  0.2878  0.4804
12701TIP3    H259519   1.021   5.150  15.303 -0.3660  0.0540 -0.4661
12702TIP3   OH259520   0.689   3.812   1.193  0.0032 -0.2424  0.3586
12702TIP3    H159521   0.705   3.882   1.129  2.9476  0.4449  1.6858
12702TIP3    H259522   0.733   3.736   1.156 -0.8667 -0.6756  0.1951
12703TIP3   OH259523   5.580   4.531  11.530  0.4069  0.4611  0.3171
12703TIP3    H159524   5.552   4.486  11.450 -1.8941 -0.2236  1.4046
12703TIP3    H259525   5.629   4.607  11.500  1.3686 -0.8752 -1.6663
12704TIP3   OH259526   4.790   5.617   0.263  0.4549  0.6240 -0.1011
12704TIP3    H159527   4.712   5.635   0.211  0.0181  0.4275  0.4707
12704TIP3    H259528   4.766   5.644   0.352 -0.0934 -2.2419  0.7449
12705TIP3   OH259529   4.805   2.159  13.082  0.1651 -0.2808 -0.0557
12705TIP3    H159530   4.882   2.113  13.049 -0.2736  0.2312 -1.8986
12705TIP3    H259531   4.836   2.205  13.160  2.2960  1.5480 -1.8391
12706TIP3   OH259532   3.760   2.923  15.988 -0.0798 -0.1278  0.2601
12706TIP3    H159533   3.750   2.930  16.084 -1.6111  0.0193  0.1235
12706TIP3    H259534   3.684   2.872  15.960 -0.7185  1.4678 -1.0693
12707TIP3   OH259535   4.556   4.989   2.108  0.3762  0.0919  0.1802
12707TIP3    H159536   4.629   4.928   2.120  0.2153 -0.0840  0.2704
12707TIP3    H259537   4.482   4.945   2.150  0.5141  0.8599  1.2668
12708TIP3   OH259538   6.586   5.399   1.357  0.4217 -0.9102 -0.0163
12708TIP3    H159539   6.511   5.371   1.306  1.2668 -0.8430 -1.3440
12708TIP3    H259540   6.579   5.351   1.439 -1.5066 -0.2846  0.2312
12709TIP3   OH259541   5.164   4.280  11.100  0.4673 -0.4302 -0.3165
12709TIP3    H159542   5.244   4.300  11.149 -0.7387  0.9303  1.2026
12709TIP3    H259543   5.135   4.365  11.066 -0.5794 -0.8295 -0.4419
12710TIP3   OH259544   4.404   6.192  12.957  0.5925 -0.4136 -0.2298
12710TIP3    H159545   4.365   6.191  13.044  0.9972 -0.3879 -0.0495
12710TIP3    H259546   4.335   6.156  12.900  1.2106 -2.9380  0.4797
12711TIP3   OH259547   2.090   3.911  11.254  0.7480  0.3867  0.3369
12711TIP3    H159548   2.164   3.964  11.225  0.0811  0.2283 -1.9015
12711TIP3    H259549   2.026   3.919  11.183 -0.6076 -0.9873  1.3312
12712TIP3   OH259550   6.716   2.369   3.024 -0.6387 -1.0430  0.3448
12712TIP3    H159551   6.736   2.397   2.935 -0.5153 -0.4491  0.5514
12712TIP3    H259552   6.735   2.446   3.078  0.5980 -1.8260  1.0489
12713TIP3   OH259553   2.859   2.558   6.212 -0.7875  0.5057  0.3905
12713TIP3    H159554   2.805   2.496   6.262 -1.5645  2.8015  2.5889
12713TIP3    H259555   2.824   2.554   6.124 -0.9703 -1.9464  0.4992
12714TIP3   OH259556   4.808   2.464  15.447  0.2248  0.2125 -0.1363
12714TIP3    H159557   4.784   2.444  15.356 -0.0887 -0.7901  0.1554
12714TIP3    H259558   4.799   2.381  15.493 -3.7155  1.3934  1.7391
12715TIP3   OH259559   1.309   4.642   4.145  0.0566  0.0756 -0.2427
12715TIP3    H159560   1.358   4.685   4.215 -0.3056  1.0348 -0.5540
12715TIP3    H259561   1.316   4.703   4.071  0.4233 -0.9061 -1.0402
12716TIP3   OH259562   3.489   4.820  13.834  0.4472  0.3694  0.1148
12716TIP3    H159563   3.422   4.755  13.853  0.2508  1.1412  2.2633
12716TIP3    H259564   3.572   4.772  13.844  0.2747 -0.1480 -0.8193
12717TIP3   OH259565   4.475   5.686   4.859 -0.0781  0.3647 -0.6834
12717TIP3    H159566   4.459   5.608   4.806  2.1780 -1.2274  0.8094
12717TIP3    H259567   4.491   5.755   4.794 -0.4818 -0.7875 -2.0633
12718TIP3   OH259568   5.981   6.305   2.014  0.5913 -0.4439  0.1317
12718TIP3    H159569   6.016   6.217   2.008  0.6558 -0.3039 -2.0761
12718TIP3    H259570   5.886   6.293   2.015  0.5208 -0.5090 -2.3071
12719TIP3   OH259571   2.270   1.753  14.085  0.3347 -0.3482 -0.1397
12719TIP3    H159572   2.299   1.820  14.148 -1.4261  0.4128 -0.0892
12719TIP3    H259573   2.254   1.676  14.139 -0.4232  0.0695  0.2541
12720TIP3   OH259574   1.804   0.614   5.435  0.2265 -0.5934  0.3362
12720TIP3    H159575   1.775   0.689   5.487  2.5363 -0.1171  1.0710
12720TIP3    H259576   1.900   0.615   5.444  0.5573 -1.7088 -2.3116
12721TIP3   OH259577   0.853   2.548  16.995 -0.1511  0.4691  0.1644
12721TIP3    H159578   0.937   2.536  16.951  0.5251  0.4342  1.4080
12721TIP3    H259579   0.867   2.625  17.051 -1.1055  0.7560  0.0242
12722TIP3   OH259580   6.400   3.299   2.141  0.1674  0.0958 -0.5185
12722TIP3    H159581   6.447   3.380   2.165  1.8172 -0.5442 -1.4559
12722TIP3    H259582   6.413   3.242   2.217 -1.4166  0.8313  0.3582
12723TIP3   OH259583   3.708   0.213  16.553 -0.7798  0.5464  0.0051
12723TIP3    H159584   3.661   0.278  16.500  1.3817  2.9003  0.7509
12723TIP3    H259585   3.664   0.214  16.637 -1.3754  0.2753 -0.2999
12724TIP3   OH259586   5.177   2.350   4.716  0.2829  0.2240 -0.8115
12724TIP3    H159587   5.182   2.258   4.743  4.0935 -0.2684 -2.5859
12724TIP3    H259588   5.202   2.399   4.794 -1.9815 -0.1013  0.2111
12725TIP3   OH259589   2.802   1.272   2.310  0.1369 -0.0010 -0.1726
12725TIP3    H159590   2.737   1.201   2.303 -2.3511  2.2104 -1.6481
12725TIP3    H259591   2.791   1.306   2.399 -0.8404  0.3704 -0.4153
12726TIP3   OH259592   5.910   2.504   2.800 -0.3533  0.5089 -0.4388
12726TIP3    H159593   5.952   2.418   2.796  0.0445  0.6972 -0.3917
12726TIP3    H259594   5.938   2.539   2.884  0.3401  1.1176 -0.9181
12727TIP3   OH259595   5.558   4.670   3.907  0.4073  0.0224  0.7155
12727TIP3    H159596   5.610   4.745   3.937 -0.7339  0.9162  0.5669
12727TIP3    H259597   5.552   4.613   3.983  1.5376 -0.0830  0.7504
12728TIP3   OH259598   2.564   5.430   4.970  0.2244 -0.0958 -0.4313
12728TIP3    H159599   2.501   5.365   4.938 -0.1806 -0.2773  0.6672
12728TIP3    H259600   2.518   5.513   4.962  0.1350 -0.1377 -0.3653
12729TIP3   OH259601   0.955   5.296   2.140  0.3985  0.2668  0.2419
12729TIP3    H159602   0.913   5.342   2.212  1.3160 -0.1797  1.0872
12729TIP3    H259603   1.048   5.320   2.147  0.4460  0.4940 -1.0045
12730TIP3   OH259604   0.971   0.988  12.358  0.2140  0.3626 -0.2182
12730TIP3    H159605   0.974   1.075  12.399 -1.3058 -0.5845  2.1481
12730TIP3    H259606   0.890   0.990  12.306 -0.4089  0.0703  0.7049
12731TIP3   OH259607   0.473   6.330   4.218 -0.0135  0.1520 -0.0501
12731TIP3    H159608   0.502   6.280   4.295 -1.3486 -1.4092 -0.5082
12731TIP3    H259609   0.540   6.311   4.152 -2.2224 -4.2103 -1.4116
12732TIP3   OH259610   6.532   4.831  13.868 -0.8289 -0.2551 -0.1767
12732TIP3    H159611   6.483   4.777  13.930  0.7474 -0.2149  1.1936
12732TIP3    H259612   6.624   4.816  13.891 -0.2267  0.6362 -1.8013
12733TIP3   OH259613   4.907   1.113  12.864  0.5219 -0.2520  0.2528
12733TIP3    H159614   4.979   1.160  12.906  0.6690 -1.2795  1.2079
12733TIP3    H259615   4.940   1.023  12.857 -1.8527 -1.6094  3.8515
12734TIP3   OH259616   2.746   3.586  15.861  0.1757  0.1976  0.0174
12734TIP3    H159617   2.790   3.643  15.798 -0.3190  1.2597  0.6082
12734TIP3    H259618   2.679   3.641  15.900 -1.4431 -1.2726 -0.5779
12735TIP3   OH259619   1.837   0.314   5.610  0.0734  0.0640 -0.3568
12735TIP3    H159620   1.818   0.364   5.530 -0.7725  1.4794  0.6888
12735TIP3    H259621   1.904   0.365   5.655  1.0953 -1.1149 -0.4702
12736TIP3   OH259622   1.143   2.287   1.250 -0.1813  0.2426  0.4264
12736TIP3    H159623   1.220   2.269   1.196  0.0279  0.3828  0.6784
12736TIP3    H259624   1.070   2.248   1.202  0.3698 -2.1629  1.3988
12737TIP3   OH259625   1.413   2.518  14.760 -0.0582  0.5264  0.5013
12737TIP3    H159626   1.474   2.581  14.798  0.3988 -0.0511  0.7260
12737TIP3    H259627   1.357   2.490  14.833  1.0305 -0.8305  0.8529
12738TIP3   OH259628   4.988   3.046  12.086 -0.1721 -0.0492  0.1800
12738TIP3    H159629   5.034   3.061  12.004 -0.5266 -0.6904 -0.1384
12738TIP3    H259630   4.974   3.134  12.122 -0.9065  0.3042 -0.9303
12739TIP3   OH259631   1.463   3.433   4.102  0.3847 -0.6436  0.5335
12739TIP3    H159632   1.432   3.425   4.011  0.8922 -2.7103  0.5013
12739TIP3    H259633   1.558   3.427   4.095  0.5695  1.1301  1.0635
12740TIP3   OH259634   6.027   5.540   2.339 -0.5487 -0.0167 -0.2225
12740TIP3    H159635   5.995   5.630   2.339 -0.3483  0.0861  1.4560
12740TIP3    H259636   6.122   5.547   2.343 -0.5008 -0.3115 -0.7438
12741TIP3   OH259637   5.821   3.913  14.389  0.6019  0.2389  0.4055
12741TIP3    H159638   5.747   3.954  14.345  0.2237 -0.5072  0.3339
12741TIP3    H259639   5.797   3.821  14.397  2.2394 -0.3985 -1.2039
12742TIP3   OH259640   2.184   6.157   3.931 -0.5598 -0.4421  0.7551
12742TIP3    H159641   2.141   6.093   3.875 -1.2594 -0.9584  1.8326
12742TIP3    H259642   2.132   6.237   3.920  1.3427  0.5344 -1.9304
12743TIP3   OH259643   2.281   6.733   5.250  0.1139  0.2613 -0.8120
12743TIP3    H159644   2.313   6.658   5.300 -1.0376 -0.4142 -1.0645
12743TIP3    H259645   2.223   6.779   5.311 -0.0153  0.3549 -1.0080
12744TIP3   OH259646   4.919   1.615  16.066 -0.5240 -0.3465 -0.4886
12744TIP3    H159647   4.852   1.561  16.108  1.7437 -1.5927  1.8970
12744TIP3    H259648   4.888   1.705  16.075 -0.9517 -0.6996  2.5569
12745TIP3   OH259649   6.591   3.854   2.124  0.3635 -0.1845  0.3955
12745TIP3    H159650   6.632   3.861   2.038 -2.3138  1.9319 -0.8713
12745TIP3    H259651   6.500   3.831   2.105 -0.4996  1.1722  2.5561
12746TIP3   OH259652   0.816   4.919   4.700 -0.5824 -0.1449 -0.6938
12746TIP3    H159653   0.814   4.847   4.763 -0.8121  1.1366  0.8193
12746TIP3    H259654   0.904   4.957   4.711 -0.5468 -0.0450 -1.3104
12747TIP3   OH259655   2.774   0.049   1.192  0.2149 -0.1238  0.2951
12747TIP3    H159656   2.756   0.142   1.200 -1.3163 -0.4631  1.1935
12747TIP3    H259657   2.803   0.022   1.279  2.2246 -0.2189 -0.3435
12748TIP3   OH259658   1.621   0.044   1.276  0.2121  0.2434 -0.3640
12748TIP3    H159659   1.586   0.107   1.339  0.6852  0.2979 -0.1516
12748TIP3    H259660   1.646  -0.031   1.329 -1.2464 -0.5334 -0.7267
12749TIP3   OH259661   0.087   1.652  15.173  0.2799 -0.3019  0.3567
12749TIP3    H159662   0.042   1.683  15.252 -2.2965  1.0193 -1.4866
12749TIP3    H259663   0.017   1.611  15.121  1.9014 -1.1802 -1.2238
12750TIP3   OH259664   4.243   6.540  13.688  0.1555  0.0702 -0.1166
12750TIP3    H159665   4.240   6.618  13.744 -1.9303 -0.2566  0.3239
12750TIP3    H259666   4.156   6.538  13.647  0.5819 -1.4069 -0.9957
12751TIP3   OH259667   3.753   2.552   2.520  0.6604  0.1512 -0.0415
12751TIP3    H159668   3.830   2.519   2.472  1.9167  1.0981  1.2246
12751TIP3    H259669   3.757   2.647   2.508 -0.9060  0.1586 -0.7524
12752TIP3   OH259670   0.371   6.040  12.163 -0.1937  0.4135 -0.1306
12752TIP3    H159671   0.377   6.127  12.201  0.4058  0.8774 -1.2292
12752TIP3    H259672   0.281   6.012  12.181 -0.0182  0.7143  1.3331
12753TIP3   OH259673   0.459   0.095  13.747 -0.0983 -0.1966 -0.1119
12753TIP3    H159674   0.547   0.100  13.784  0.5199  2.8306 -1.6207
12753TIP3    H259675   0.473   0.071  13.655 -0.7999  0.3650 -0.3821
12754TIP3   OH259676   2.763   1.092   1.788  0.5247 -0.3587  0.4292
12754TIP3    H159677   2.840   1.036   1.798  0.6025 -0.2038  0.7108
12754TIP3    H259678   2.771   1.127   1.699  0.8212 -0.2816  0.4829
12755TIP3   OH259679   2.983   3.941   5.748 -0.5897 -0.1718 -0.2270
12755TIP3    H159680   3.017   3.913   5.833  0.0048 -2.0448 -1.0353
12755TIP3    H259681   3.022   4.027   5.733 -0.6614  0.1649  1.3462
12756TIP3   OH259682   5.951   0.108   5.878 -0.2251  0.5788 -0.2819
12756TIP3    H159683   6.003   0.081   5.953  0.0033 -1.2385 -1.0460
12756TIP3    H259684   6.013   0.110   5.805 -1.1056 -1.5060 -1.1856
12757TIP3   OH259685   1.190   3.290   5.522 -0.6177 -0.0305 -0.0506
12757TIP3    H159686   1.262   3.352   5.522 -0.4107 -0.2137 -2.1943
12757TIP3    H259687   1.111   3.344   5.520 -0.4676  0.1722 -0.5232
12758TIP3   OH259688   3.252   2.743  16.151  0.3590 -0.3294 -0.4771
12758TIP3    H159689   3.241   2.805  16.224  0.3554 -0.6503 -0.2060
12758TIP3    H259690   3.163   2.726  16.121  0.2787 -1.0268  0.1375
12759TIP3   OH259691   3.837   1.239  16.967  0.0819  0.2141 -0.7450
12759TIP3    H159692   3.772   1.249  16.897 -1.4937  0.7342  0.7380
12759TIP3    H259693   3.873   1.327  16.978  1.3053 -0.1247 -1.7507
12760TIP3   OH259694   6.034   2.182  13.285 -0.0863 -0.1976 -0.7164
12760TIP3    H159695   6.130   2.182  13.279 -0.1161 -1.6521 -1.8108
12760TIP3    H259696   6.010   2.275  13.282  1.3412  0.3226  1.5262
12761TIP3   OH259697   1.122   4.320   5.095  0.3129 -0.0747  0.3074
12761TIP3    H159698   1.128   4.314   5.000  3.4069 -0.6306  0.4569
12761TIP3    H259699   1.039   4.365   5.111 -0.4953 -0.3652 -2.6096
12762TIP3   OH259700   0.640   5.467  13.052 -0.2047 -0.3052  0.4667
12762TIP3    H159701   0.574   5.479  13.119  0.4116 -0.4489  1.1074
12762TIP3    H259702   0.723   5.477  13.097  0.2395  1.8705 -0.6940
12763TIP3   OH259703   2.598   3.147  16.641 -0.0487  0.0617  0.0211
12763TIP3    H159704   2.529   3.190  16.591  1.4666  1.0802 -1.3046
12763TIP3    H259705   2.678   3.163  16.590  0.8183 -3.3028  0.0737
12764TIP3   OH259706   4.746   5.943  12.148 -0.0073 -0.3547  0.1326
12764TIP3    H159707   4.691   5.984  12.081  0.0152 -0.7204 -0.1120
12764TIP3    H259708   4.703   5.859  12.166  0.0954 -0.3446  0.4350
12765TIP3   OH259709   6.213   6.747  13.456 -0.0794  0.1077  0.0958
12765TIP3    H159710   6.263   6.823  13.486 -1.1008  1.2447 -0.9880
12765TIP3    H259711   6.279   6.681  13.435  1.0582  1.8362 -2.0893
12766TIP3   OH259712   3.230   5.732  17.282 -0.3937 -0.2965  0.3039
12766TIP3    H159713   3.201   5.640  17.284 -0.4038 -0.2856  0.6453
12766TIP3    H259714   3.219   5.758  17.190  0.1134 -0.8014  0.0882
12767TIP3   OH259715   1.224   6.751  16.466  0.1313 -0.7265 -0.0947
12767TIP3    H159716   1.294   6.816  16.476 -0.0532 -0.8829  3.4942
12767TIP3    H259717   1.270   6.668  16.455  0.3880 -0.3648 -2.1180
12768TIP3   OH259718   0.880   1.235  16.439  0.5100 -0.0885 -0.3516
12768TIP3    H159719   0.885   1.199  16.528  0.3953  1.3612  0.2810
12768TIP3    H259720   0.968   1.266  16.421  0.3823  0.1996 -0.4857
12769TIP3   OH259721   1.595   2.285  12.299  0.2531 -1.1804  0.2804
12769TIP3    H159722   1.648   2.343  12.244 -1.7149  0.3000 -0.1769
12769TIP3    H259723   1.574   2.211  12.243  0.5509 -1.0256 -0.0390
12770TIP3   OH259724   4.397   5.518  11.555  0.3085 -0.0319 -0.2825
12770TIP3    H159725   4.310   5.555  11.537  0.4392 -0.9270 -3.4178
12770TIP3    H259726   4.388   5.425  11.537  1.8061 -0.2243 -0.1585
12771TIP3   OH259727   3.728   0.260  15.573 -0.2839  0.6609 -0.4560
12771TIP3    H159728   3.647   0.260  15.625 -0.5108  2.4363 -0.7321
12771TIP3    H259729   3.716   0.332  15.511  1.5664  1.0386 -0.4349
12772TIP3   OH259730   5.150   5.604  13.979  0.4740 -0.1993  0.1234
12772TIP3    H159731   5.242   5.622  13.959  0.1613  0.2821 -0.9558
12772TIP3    H259732   5.127   5.532  13.920 -0.9718  2.4242 -2.8518
12773TIP3   OH259733   5.427   6.126  13.381 -0.2135  0.2469  0.5634
12773TIP3    H159734   5.367   6.174  13.437 -0.2961  0.8225 -0.0158
12773TIP3    H259735   5.399   6.146  13.291  0.0005 -0.5503  0.3061
12774TIP3   OH259736   4.720   5.703  16.309 -0.3130 -0.3816  0.6719
12774TIP3    H159737   4.625   5.689  16.314 -0.3617  0.2692  1.9647
12774TIP3    H259738   4.731   5.798  16.308  0.3766 -0.3536  3.3101
12775TIP3   OH259739   0.302   4.316  16.175 -0.3836  0.2851  0.4723
12775TIP3    H159740   0.304   4.356  16.088 -3.7703  1.8542  0.9492
12775TIP3    H259741   0.313   4.223  16.158 -1.8814  0.4270 -1.8051
12776TIP3   OH259742   6.344   6.592  12.764 -0.0231 -0.4215 -0.3362
12776TIP3    H159743   6.285   6.666  12.750 -0.5927 -0.9774 -0.9022
12776TIP3    H259744   6.334   6.570  12.857 -2.0127 -1.5814 -0.7648
12777TIP3   OH259745   4.188   1.038  11.693 -0.9926  0.5256  0.1397
12777TIP3    H159746   4.211   1.086  11.613 -4.1223  2.0882  0.0475
12777TIP3    H259747   4.254   1.066  11.757  0.2631  0.9458 -1.2934
12778TIP3   OH259748   5.520   6.146   2.232  0.2507  0.1075  0.0647
12778TIP3    H159749   5.427   6.150   2.256  0.2049  0.7226 -0.1883
12778TIP3    H259750   5.566   6.178   2.309  0.1280  1.6633 -0.4632
12779TIP3   OH259751   4.679   2.161   1.484  0.2434  0.1362  0.4230
12779TIP3    H159752   4.707   2.215   1.559  1.1342  0.3126 -0.0302
12779TIP3    H259753   4.759   2.119   1.453 -0.0188  0.4781 -0.7650
12780TIP3   OH259754   4.935   3.479   3.372 -0.1686  0.0981 -0.1968
12780TIP3    H159755   4.844   3.451   3.374 -0.0259 -0.3470  0.5151
12780TIP3    H259756   4.984   3.403   3.402  0.4977  0.1294 -1.1482
12781TIP3   OH259757   0.235   1.929  15.645  0.1850 -0.3094 -0.4831
12781TIP3    H159758   0.142   1.909  15.638 -0.3431  0.4480  2.9251
12781TIP3    H259759   0.273   1.854  15.691  0.7191  0.5354  0.4952
12782TIP3   OH259760   3.131   2.210   1.339  0.4936  0.8811  0.1936
12782TIP3    H159761   3.186   2.158   1.397 -0.8759  0.4357  1.1255
12782TIP3    H259762   3.100   2.282   1.394 -1.6879 -0.1278  0.3999
12783TIP3   OH259763   4.179   4.210  15.998  0.0667  0.0094  0.3860
12783TIP3    H159764   4.214   4.159  16.070 -1.1338 -0.9538  0.3255
12783TIP3    H259765   4.104   4.257  16.036  1.9443  2.8996  0.8043
12784TIP3   OH259766   0.565   2.897   2.664 -0.1433  0.4051 -0.6015
12784TIP3    H159767   0.507   2.882   2.590  0.5614 -1.9625 -0.7405
12784TIP3    H259768   0.522   2.853   2.738  1.3104 -1.2328 -0.6671
12785TIP3   OH259769   3.694   1.626   2.471  0.1531  0.0948 -0.2999
12785TIP3    H159770   3.769   1.669   2.513 -0.6719  0.5264  0.7913
12785TIP3    H259771   3.733   1.576   2.400  1.5759 -0.2897  0.6798
12786TIP3   OH259772   1.717   2.140   0.995 -0.2616 -0.1158  0.7453
12786TIP3    H159773   1.652   2.206   1.022 -0.5703 -0.4965  0.9458
12786TIP3    H259774   1.787   2.147   1.060 -1.0901 -1.1629  1.7886
12787TIP3   OH259775   2.958   1.951  11.206  0.0632  0.2769 -0.1527
12787TIP3    H159776   2.895   2.019  11.186 -0.4716  0.3120  1.4891
12787TIP3    H259777   2.990   1.921  11.121 -0.2100  2.0728 -0.9249
12788TIP3   OH259778   3.211   6.004  17.276  0.0561 -0.2595  0.2936
12788TIP3    H159779   3.210   5.911  17.299 -1.2728  0.0689  1.7279
12788TIP3    H259780   3.148   6.044  17.336  0.0716  1.4608 -0.7806
12789TIP3   OH259781   3.479   1.203  12.710  0.4409  0.4132  0.3661
12789TIP3    H159782   3.467   1.257  12.788 -1.2843  1.2907 -0.4665
12789TIP3    H259783   3.567   1.226  12.679  1.0263  0.2780  1.8477
12790TIP3   OH259784   1.830   0.920   2.534 -0.5148 -0.1957 -0.4286
12790TIP3    H159785   1.922   0.945   2.532 -0.3938 -0.6857 -1.3815
12790TIP3    H259786   1.831   0.828   2.559 -0.9482  0.5865  2.9212
12791TIP3   OH259787   1.491   3.943   6.692  0.2431  0.0062  0.2097
12791TIP3    H159788   1.470   3.850   6.693  0.7020 -0.1318 -1.0944
12791TIP3    H259789   1.409   3.987   6.716 -0.1417 -0.7072  0.2089
12792TIP3   OH259790   0.833   4.124   3.233  0.4322 -0.6061  0.0074
12792TIP3    H159791   0.833   4.060   3.304 -1.6465  0.3235  0.9290
12792TIP3    H259792   0.786   4.199   3.268  2.3045  1.2681 -1.2314
12793TIP3   OH259793   0.687   2.166   5.276  0.6362 -0.1540  0.8266
12793TIP3    H159794   0.637   2.194   5.200  0.5578  0.4458  1.0877
12793TIP3    H259795   0.624   2.118   5.330  0.2590  0.8367  1.2847
12794TIP3   OH259796   6.370   2.302   6.032 -0.7058  0.1894 -0.2410
12794TIP3    H159797   6.417   2.220   6.017 -1.4643 -0.5021  1.0777
12794TIP3    H259798   6.324   2.290   6.115 -1.5324  1.6323 -0.4470
12795TIP3   OH259799   4.286   6.200   2.724 -0.0945  0.0825 -0.1132
12795TIP3    H159800   4.305   6.205   2.630 -0.5963  3.2187 -0.1472
12795TIP3    H259801   4.194   6.173   2.728 -0.0019 -0.3037 -0.5099
12796TIP3   OH259802   6.717   4.152   1.723 -0.5936  0.5162 -0.5207
12796TIP3    H159803   6.809   4.140   1.744 -0.4361  0.3599 -1.2871
12796TIP3    H259804   6.672   4.082   1.770 -0.4076  0.9999  0.4045
12797TIP3   OH259805   4.628   0.327  16.367 -0.4911 -0.3957 -0.1549
12797TIP3    H159806   4.688   0.253  16.354 -1.3964 -0.8321 -2.1878
12797TIP3    H259807   4.542   0.287  16.378 -0.8806  0.3211 -0.4958
12798TIP3   OH259808   3.581   4.527  11.590 -0.5702 -0.2443  0.0954
12798TIP3    H159809   3.655   4.583  11.568  1.7146 -2.7856  0.7500
12798TIP3    H259810   3.548   4.562  11.672  2.4342 -1.1865  1.8602
12799TIP3   OH259811   2.554   3.246  15.295  1.3777 -0.0221  0.2375
12799TIP3    H159812   2.472   3.295  15.284  0.9538 -1.0685 -1.7021
12799TIP3    H259813   2.613   3.285  15.230  1.8442 -0.4443  0.4087
12800TIP3   OH259814   4.304   0.189  16.032 -0.2957  0.3212  0.2469
12800TIP3    H159815   4.261   0.267  16.068 -1.5915  0.2017 -0.9339
12800TIP3    H259816   4.265   0.116  16.080  0.7568  0.3493  1.1968
12801TIP3   OH259817   2.828   3.651   2.843 -0.3901 -0.1590 -0.1196
12801TIP3    H159818   2.919   3.665   2.817 -0.2759  1.2514  0.9527
12801TIP3    H259819   2.834   3.590   2.917 -0.1246  1.5065  1.2736
12802TIP3   OH259820   6.605   1.038  15.317 -0.3534 -0.3394  0.4818
12802TIP3    H159821   6.602   1.129  15.288  0.0299 -0.4289  0.1462
12802TIP3    H259822   6.603   1.043  15.412 -1.8527 -0.0443  0.4688
12803TIP3   OH259823   3.446   1.825  15.201  0.3374  0.2018  0.5767
12803TIP3    H159824   3.374   1.888  15.214  0.4580  0.0122  2.6358
12803TIP3    H259825   3.402   1.745  15.173 -0.0155  0.6958 -0.3032
12804TIP3   OH259826   0.850   5.977   0.253  0.5657 -0.2882 -0.2187
12804TIP3    H159827   0.761   5.995   0.223  0.1313  0.5348  1.4206
12804TIP3    H259828   0.842   5.900   0.309  0.7107  0.2933  0.6244
12805TIP3   OH259829   1.946   5.675   5.869  0.2821 -0.7154  0.0890
12805TIP3    H159830   1.961   5.704   5.959 -0.0984 -0.5539  0.1020
12805TIP3    H259831   2.025   5.701   5.823  0.5882 -1.0313  0.4321
12806TIP3   OH259832   5.397   5.931   0.850  0.2383  0.0693 -0.0594
12806TIP3    H159833   5.485   5.969   0.845 -0.2116  1.2661  0.5806
12806TIP3    H259834   5.342   5.990   0.797 -0.0159 -1.2471 -1.3235
12807TIP3   OH259835   6.736   5.219  15.370 -0.0130  0.4878  0.1411
12807TIP3    H159836   6.689   5.145  15.408  1.6086 -0.1148  1.0374
12807TIP3    H259837   6.754   5.192  15.280 -1.0254  0.5794 -0.1019
12808TIP3   OH259838   2.828   2.599   0.420 -0.3213 -0.2053  0.0125
12808TIP3    H159839   2.799   2.594   0.329 -1.3303 -0.4951  0.3428
12808TIP3    H259840   2.924   2.596   0.414 -0.3879 -1.4937 -0.9639
12809TIP3   OH259841   0.207   4.596  14.244  0.0472 -0.3116  0.0265
12809TIP3    H159842   0.125   4.557  14.275  0.8342 -2.5803 -0.5264
12809TIP3    H259843   0.272   4.571  14.310  0.7885 -0.9579 -0.9185
12810TIP3   OH259844   4.992   6.371   0.176  0.3448 -0.5619 -0.2567
12810TIP3    H159845   4.902   6.372   0.209 -0.0314  2.2353 -1.1661
12810TIP3    H259846   4.985   6.399   0.085  2.1902  0.4936 -0.1255
12811TIP3   OH259847   0.765   4.134   2.080  0.0755  0.8151  0.3597
12811TIP3    H159848   0.676   4.164   2.098  0.2343  1.4493  0.1228
12811TIP3    H259849   0.754   4.044   2.048 -0.6069  1.3452 -0.9790
12812TIP3   OH259850   6.427   3.618  14.399  0.1112  0.1502 -0.5435
12812TIP3    H159851   6.395   3.528  14.394 -2.0337  0.9342 -2.9946
12812TIP3    H259852   6.392   3.651  14.482 -1.5505 -0.4395 -0.9675
12813TIP3   OH259853   0.944   5.745  13.135 -0.1664  0.2647  0.3536
12813TIP3    H159854   0.992   5.826  13.123  1.4671 -0.7701 -0.4065
12813TIP3    H259855   0.994   5.679  13.087 -0.9938 -1.3687  1.5977
12814TIP3   OH259856   5.906   1.016   3.664  0.6395 -0.1472  0.2577
12814TIP3    H159857   5.935   1.070   3.737  2.3531 -0.2989 -0.2684
12814TIP3    H259858   5.813   0.999   3.682  0.7825  0.6060  1.8821
12815TIP3   OH259859   4.621   5.338  16.376  0.0118  0.1511 -0.2572
12815TIP3    H159860   4.704   5.373  16.408 -1.3201  2.2155  1.1389
12815TIP3    H259861   4.584   5.292  16.451 -0.0238 -0.9972 -0.9551
12816TIP3   OH259862   6.642   5.574   2.069 -0.1985  0.4033  0.1272
12816TIP3    H159863   6.568   5.518   2.091  0.8571 -1.1884 -0.2317
12816TIP3    H259864   6.615   5.661   2.099 -1.5972 -0.3918  1.3444
12817TIP3   OH259865   4.533   2.842   0.635 -0.2060  1.1609 -0.2866
12817TIP3    H159866   4.476   2.806   0.703 -0.0640 -0.2355 -0.8619
12817TIP3    H259867   4.607   2.780   0.631 -0.4615  0.9073 -2.0408
12818TIP3   OH259868   6.187   1.326   3.093  0.7327  0.1945  0.4993
12818TIP3    H159869   6.136   1.317   3.173  1.7821 -1.0641  1.0689
12818TIP3    H259870   6.134   1.282   3.026  0.6029 -0.1969  0.8561
12819TIP3   OH259871   2.009   1.952  11.392  0.2721  0.4505 -0.0375
12819TIP3    H159872   1.958   2.032  11.400  0.2622  1.1131 -4.1785
12819TIP3    H259873   1.953   1.893  11.341  0.9514 -1.5646  1.4352
12820TIP3   OH259874   1.567   3.025   1.289 -0.5664  0.8963 -0.5577
12820TIP3    H159875   1.511   2.953   1.318  0.1528  0.5353 -0.0603
12820TIP3    H259876   1.532   3.102   1.335 -0.7749  0.7097 -0.4025
12821TIP3   OH259877   3.254   5.378   3.574  0.5359  0.2562  0.0693
12821TIP3    H159878   3.186   5.313   3.589  0.8898 -0.7411 -2.1970
12821TIP3    H259879   3.327   5.328   3.537  1.6182  1.6398  0.2533
12822TIP3   OH259880   5.475   5.141  13.416 -0.0983  0.4988  0.0690
12822TIP3    H159881   5.482   5.126  13.322  0.2951  1.5352 -0.0721
12822TIP3    H259882   5.390   5.182  13.428  0.3462  1.4589  0.0130
12823TIP3   OH259883   4.608   3.272   0.474 -0.2036  0.0218  0.1405
12823TIP3    H159884   4.580   3.361   0.456 -1.2949 -0.2348  0.4832
12823TIP3    H259885   4.702   3.280   0.494  0.2476  0.7652 -2.0254
12824TIP3   OH259886   3.089   4.628  15.162 -0.3671 -0.1720  0.5998
12824TIP3    H159887   3.173   4.670  15.177  0.2401 -1.7478  1.8355
12824TIP3    H259888   3.103   4.536  15.184 -1.9963 -0.7931 -0.7092
12825TIP3   OH259889   2.542   0.620  15.482  0.9033 -0.1406  0.0403
12825TIP3    H159890   2.517   0.671  15.404  2.7333  0.6703 -0.0782
12825TIP3    H259891   2.610   0.560  15.450  1.2381 -0.2143  0.8820
12826TIP3   OH259892   3.964   2.562  11.016 -0.2552  0.4062 -0.0165
12826TIP3    H159893   4.025   2.596  10.950 -1.3348 -1.9087 -2.3838
12826TIP3    H259894   3.883   2.612  11.002 -0.5316 -0.1884 -0.5988
12827TIP3   OH259895   6.346   1.597  14.129 -0.9504  0.3189  0.3705
12827TIP3    H159896   6.367   1.568  14.218  1.3637 -1.8005 -0.7437
12827TIP3    H259897   6.313   1.518  14.086 -3.4083  1.6431 -0.3398
12828TIP3   OH259898   1.601   1.075   3.325  0.4581  0.2248 -0.1631
12828TIP3    H159899   1.650   0.994   3.335  1.9447  1.3107  2.2538
12828TIP3    H259900   1.552   1.084   3.407  0.7104  1.9620 -0.1584
12829TIP3   OH259901   0.228   0.770   3.389  0.4294  0.5682 -0.2685
12829TIP3    H159902   0.173   0.691   3.390  0.6835  0.3901 -0.3798
12829TIP3    H259903   0.308   0.744   3.434  0.3740  0.8673  0.0057
12830TIP3   OH259904   5.615   2.599   3.388 -0.1565 -0.1776  0.0363
12830TIP3    H159905   5.553   2.528   3.403 -0.9480  0.5754  0.4035
12830TIP3    H259906   5.604   2.622   3.296 -1.4806  0.9080  0.4393
12831TIP3   OH259907   3.195   6.186   5.352 -0.4029 -0.2818  0.8245
12831TIP3    H159908   3.225   6.167   5.441 -2.7894 -0.4709  1.6680
12831TIP3    H259909   3.133   6.116   5.332 -0.3595  0.0924 -0.7722
12832TIP3   OH259910   6.585   4.195  17.240  0.3787  0.1206  0.1055
12832TIP3    H159911   6.605   4.111  17.282 -0.3441  0.1770  0.5759
12832TIP3    H259912   6.645   4.199  17.166 -0.1139 -1.1741 -0.3831
12833TIP3   OH259913   6.077   6.350  14.281  0.2231 -1.0285  0.1497
12833TIP3    H159914   6.168   6.365  14.258  0.8731 -3.1460  1.1139
12833TIP3    H259915   6.058   6.417  14.347  0.8565 -0.1732 -0.5127
12834TIP3   OH259916   1.037   2.097  12.123 -0.3219  0.0505  0.7421
12834TIP3    H159917   0.974   2.089  12.195 -0.8560  0.6193  0.3523
12834TIP3    H259918   0.983   2.120  12.048  0.1737 -0.9507  0.0559
12835TIP3   OH259919   5.931   6.221  12.447  0.0190 -0.3375  0.2834
12835TIP3    H159920   5.934   6.316  12.432  1.2965 -0.2478  0.9419
12835TIP3    H259921   6.014   6.189  12.413 -0.8154 -1.3850 -0.8353
12836TIP3   OH259922   1.522   3.454   0.544  0.0643  0.1971 -0.5504
12836TIP3    H159923   1.453   3.420   0.487 -2.4994  0.0899  2.3425
12836TIP3    H259924   1.524   3.548   0.525  0.7185 -0.1017 -2.1526
12837TIP3   OH259925   2.914   4.341  14.753  0.1946 -0.1341 -0.2505
12837TIP3    H159926   3.000   4.317  14.720  0.4181  0.7713 -0.3473
12837TIP3    H259927   2.902   4.287  14.831 -0.6610 -2.8991 -2.1482
12838TIP3   OH259928   4.369   0.127  17.155 -0.1382 -0.3527  0.0482
12838TIP3    H159929   4.343   0.067  17.225  2.4441 -1.2297  0.3405
12838TIP3    H259930   4.383   0.211  17.200 -0.0358 -0.5054  0.3036
12839TIP3   OH259931   4.268   6.587   1.200 -0.3120  0.0930 -0.2976
12839TIP3    H159932   4.179   6.591   1.165  0.1541  0.6890 -1.4941
12839TIP3    H259933   4.319   6.549   1.128  1.0729  3.2434 -1.1514
12840TIP3   OH259934   4.834   3.097   6.142 -0.0000  0.1200 -0.2157
12840TIP3    H159935   4.751   3.092   6.189  1.1013  0.7125  1.8993
12840TIP3    H259936   4.880   3.017   6.165  0.0842 -0.1471 -1.2765
12841TIP3   OH259937   1.178   4.149   1.699 -0.6373  0.0526 -0.3748
12841TIP3    H159938   1.243   4.219   1.703 -0.3029 -0.2759 -0.0213
12841TIP3    H259939   1.094   4.194   1.711 -0.4330  0.4100 -0.2791
12842TIP3   OH259940   2.197   5.712   5.743 -0.0660 -0.0977 -0.6245
12842TIP3    H159941   2.198   5.807   5.728 -2.2952  0.1687  0.5036
12842TIP3    H259942   2.151   5.676   5.667  0.9560 -0.3450 -1.1537
12843TIP3   OH259943   4.528   4.028   1.433 -0.0015  0.6156 -0.2330
12843TIP3    H159944   4.558   4.081   1.506 -0.5584  1.0181 -0.2934
12843TIP3    H259945   4.458   3.974   1.469  0.4673  0.0222 -0.2059
12844TIP3   OH259946   2.547   5.297  11.161 -0.1924  0.0855  0.4460
12844TIP3    H159947   2.520   5.383  11.129 -0.7469 -0.2618 -0.0339
12844TIP3    H259948   2.615   5.269  11.099 -0.2040  0.0634  0.4434
12845TIP3   OH259949   6.128   1.943  13.916 -0.4173  0.2309  0.0184
12845TIP3    H159950   6.210   1.941  13.867 -0.7916 -2.5235 -0.6764
12845TIP3    H259951   6.075   2.009  13.872  1.0223  1.3247 -0.1580
12846TIP3   OH259952   2.433   3.955   3.182  0.6190  0.8514  0.1844
12846TIP3    H159953   2.356   4.012   3.187 -0.3994 -0.2926 -1.3390
12846TIP3    H259954   2.432   3.922   3.092  1.8454 -0.6248  0.6700
12847TIP3   OH259955   6.418   0.594  14.575 -0.2286 -0.2970  0.2568
12847TIP3    H159956   6.470   0.658  14.623 -1.6756  0.8929  0.3449
12847TIP3    H259957   6.414   0.517  14.632  0.6906 -0.0853  0.6131
12848TIP3   OH259958   0.237   3.942  16.820  0.3235  0.0843  0.6622
12848TIP3    H159959   0.317   3.911  16.862  0.9615  0.7081 -0.0505
12848TIP3    H259960   0.240   4.037  16.831 -0.3726  0.1058  0.7061
12849TIP3   OH259961   6.264   1.698   3.589 -0.0987 -0.0362  0.1075
12849TIP3    H159962   6.317   1.772   3.618 -0.0636 -0.1237  0.2654
12849TIP3    H259963   6.286   1.688   3.497  1.1771 -0.9281  0.4791
12850TIP3   OH259964   6.560   2.628   4.340  0.2975  0.5868  0.1355
12850TIP3    H159965   6.628   2.666   4.395  0.7380 -0.2729  0.1984
12850TIP3    H259966   6.607   2.583   4.271 -0.2089  0.1941  0.0377
12851TIP3   OH259967   4.962   0.780   4.171 -0.0221  0.3294  0.2719
12851TIP3    H159968   5.054   0.805   4.182 -0.5727  2.3743  0.7033
12851TIP3    H259969   4.926   0.783   4.260 -0.9306  1.5410 -0.1064
12852TIP3   OH259970   4.807   0.418   4.213  0.8825 -0.7227  0.5806
12852TIP3    H159971   4.753   0.340   4.195  1.4682 -0.7675 -1.0966
12852TIP3    H259972   4.760   0.489   4.170  0.9343 -0.3297  1.1669
12853TIP3   OH259973   3.339   3.677   1.457  0.5239  0.1205 -0.1423
12853TIP3    H159974   3.387   3.697   1.538  0.2470  1.6129 -0.3222
12853TIP3    H259975   3.272   3.744   1.452 -1.1642 -1.5005 -0.2783
12854TIP3   OH259976   3.837   2.008  15.980 -0.1029  0.4683 -0.0344
12854TIP3    H159977   3.893   2.030  15.906  0.2522  0.1339  0.1252
12854TIP3    H259978   3.778   1.941  15.947  0.4160 -0.0789  0.1214
12855TIP3   OH259979   5.264   5.444   2.660  0.0231 -0.0273  0.1001
12855TIP3    H159980   5.179   5.430   2.702 -0.1617  1.4313  0.2558
12855TIP3    H259981   5.319   5.479   2.730  0.2839  0.5747 -0.4008
12856TIP3   OH259982   1.624   1.404  11.040  0.7058 -0.6103 -0.4066
12856TIP3    H159983   1.686   1.466  11.001 -0.1312 -0.1223 -1.0033
12856TIP3    H259984   1.549   1.458  11.065  0.0018 -1.3623 -0.8458
12857TIP3   OH259985   1.729   6.642   1.958  0.2137 -0.5690  0.3248
12857TIP3    H159986   1.782   6.562   1.960 -0.9628 -1.3685  1.1820
12857TIP3    H259987   1.748   6.686   2.041 -3.0540 -2.7228  2.4772
12858TIP3   OH259988   1.413   0.953  12.771  0.6580  0.1791  0.2204
12858TIP3    H159989   1.376   0.929  12.686  0.4437  0.2150  0.3038
12858TIP3    H259990   1.501   0.915  12.770  0.9281  0.8103 -0.3140
12859TIP3   OH259991   3.768   2.515  12.208  0.4555  0.0983 -0.2384
12859TIP3    H159992   3.797   2.423  12.207 -0.1431 -0.1275  1.1188
12859TIP3    H259993   3.674   2.510  12.228  0.3067  0.9914 -0.6848
12860TIP3   OH259994   6.101   1.567   3.748 -0.1521  0.8761 -0.0819
12860TIP3    H159995   6.149   1.612   3.678 -0.9848  0.6243 -0.8316
12860TIP3    H259996   6.011   1.599   3.740 -0.9290 -1.3826 -1.0543
12861TIP3   OH259997   5.331   5.510  14.893 -0.3795  0.1814 -0.1750
12861TIP3    H159998   5.406   5.506  14.952  1.6722  1.6406 -2.5173
12861TIP3    H259999   5.296   5.421  14.892  1.8607 -0.7589  0.3219
12862TIP3   OH260000   4.253   0.104   5.772  0.0695  0.0415 -0.1161
12862TIP3    H160001   4.233   0.013   5.793  1.8852 -0.6493 -1.1106
12862TIP3    H260002   4.213   0.119   5.687 -0.1412  0.1424  0.0004
12863TIP3   OH260003   1.560   2.598   6.066 -0.8189  0.1069  0.5698
12863TIP3    H160004   1.484   2.580   6.122 -0.7988 -3.2563 -0.3233
12863TIP3    H260005   1.633   2.606   6.127 -1.4192  0.5665  1.2496
12864TIP3   OH260006   6.665   4.491   5.772 -0.1581  0.5980  0.6037
12864TIP3    H160007   6.596   4.516   5.711  0.2518  0.2715  0.0083
12864TIP3    H260008   6.658   4.396   5.779  1.6907  0.2790 -1.2342
12865TIP3   OH260009   4.286   0.817   5.777 -0.3849 -0.0713  0.8142
12865TIP3    H160010   4.223   0.874   5.823  0.0592  0.9820  0.1672
12865TIP3    H260011   4.272   0.731   5.815  0.4102  0.8533  3.4384
12866TIP3   OH260012   3.938   3.556  10.515 -0.2880 -0.8729 -0.3099
12866TIP3    H160013   3.882   3.620  10.471 -0.8086 -1.1696 -0.0959
12866TIP3    H260014   3.984   3.606  10.582 -2.0909 -1.0245  1.1289
12867TIP3   OH260015   1.307   0.864   4.107 -0.2958  0.2509  0.4951
12867TIP3    H160016   1.364   0.883   4.033 -1.0497  1.7319  0.2466
12867TIP3    H260017   1.352   0.795   4.155  0.4891 -0.3201 -1.0141
12868TIP3   OH260018   3.813   2.676   0.922  0.3273  0.3084  0.5075
12868TIP3    H160019   3.822   2.724   1.004 -0.2675  0.3123  0.5750
12868TIP3    H260020   3.850   2.735   0.856 -0.1942  0.7716  0.6229
12869TIP3   OH260021   5.609   1.643  12.176  0.3343 -0.2402  0.2232
12869TIP3    H160022   5.600   1.726  12.130  0.8478  0.3360  1.1505
12869TIP3    H260023   5.550   1.649  12.251 -0.7962 -1.3325 -0.5181
12870TIP3   OH260024   3.769   5.245  14.792  0.1572 -0.0226  0.2532
12870TIP3    H160025   3.742   5.329  14.829  1.0227  0.3474  0.0577
12870TIP3    H260026   3.790   5.265  14.701 -1.0398 -0.7415 -0.2044
12871TIP3   OH260027   4.530   3.197   5.117 -0.1186 -0.5551  0.2989
12871TIP3    H160028   4.478   3.178   5.195  0.6022 -0.7077  0.7531
12871TIP3    H260029   4.538   3.113   5.072 -2.6765 -0.0154 -1.3139
12872TIP3   OH260030   3.639   5.332  14.238  0.3015 -0.1587  0.4117
12872TIP3    H160031   3.629   5.340  14.333  1.2752  0.5694  0.4768
12872TIP3    H260032   3.551   5.316  14.205 -0.0979 -0.0482  1.4078
12873TIP3   OH260033   5.935   5.543  14.094  0.2888 -0.0432  0.3013
12873TIP3    H160034   5.849   5.519  14.129 -0.1600  1.5533  0.3393
12873TIP3    H260035   5.921   5.551  13.999  0.6661 -0.8348  0.1683
12874TIP3   OH260036   0.373   0.919   0.369  0.1816  0.0812 -0.5070
12874TIP3    H160037   0.422   0.939   0.289  1.5634 -1.8924 -0.2194
12874TIP3    H260038   0.343   0.829   0.358 -2.0357  0.6968  0.0540
12875TIP3   OH260039   5.131   5.972   5.405  0.0749  0.2500 -0.2786
12875TIP3    H160040   5.174   6.040   5.456  0.0440 -0.3515  0.5617
12875TIP3    H260041   5.194   5.950   5.336  0.5643  0.3167  0.1430
12876TIP3   OH260042   1.016   2.060   2.349  0.5243 -0.0070 -0.7185
12876TIP3    H160043   0.936   2.016   2.321  0.3333 -0.0514 -0.1278
12876TIP3    H260044   1.020   2.139   2.296  1.2590 -1.0734 -2.3122
12877TIP3   OH260045   4.241   2.738  14.058  0.0046  0.1632 -0.2172
12877TIP3    H160046   4.201   2.729  14.144  0.2792  1.4538  0.0677
12877TIP3    H260047   4.172   2.714  13.996 -0.3674 -0.2090  0.3379
12878TIP3   OH260048   5.886   5.532   6.958 -0.8710  0.3987 -0.4358
12878TIP3    H160049   5.840   5.600   6.907 -0.5413  0.0359 -1.2346
12878TIP3    H260050   5.829   5.455   6.951 -0.5949  0.2144 -0.6540
12879TIP3   OH260051   4.441   4.394   0.501 -0.0195  0.1264  0.7056
12879TIP3    H160052   4.405   4.315   0.461 -1.8247  0.5942  1.3076
12879TIP3    H260053   4.440   4.459   0.431  1.0589 -0.2373  0.3301
12880TIP3   OH260054   6.265   5.346  12.671 -0.1488 -0.7900 -0.2697
12880TIP3    H160055   6.287   5.260  12.706 -0.2153  0.3252  2.8062
12880TIP3    H260056   6.346   5.397  12.682 -1.4343  0.8561  2.7729
12881TIP3   OH260057   6.581   5.686   1.276  0.3373 -0.3024 -0.7152
12881TIP3    H160058   6.511   5.726   1.327  1.2838  1.5226 -0.7326
12881TIP3    H260059   6.599   5.603   1.319  0.1407  0.5441  1.0886
12882TIP3   OH260060   4.383   4.444  12.403  0.7665 -0.5420 -0.2723
12882TIP3    H160061   4.425   4.379  12.345 -1.0170 -2.2071  0.1989
12882TIP3    H260062   4.313   4.481  12.350  0.3874 -0.6174  0.1727
12883TIP3   OH260063   4.602   5.455   4.731  0.4625 -0.0241 -0.4883
12883TIP3    H160064   4.625   5.417   4.647 -1.1541 -1.0237 -0.5342
12883TIP3    H260065   4.647   5.540   4.733  2.5146 -1.0212 -1.2717
12884TIP3   OH260066   3.457   5.938  16.213  0.4103  0.0203 -0.0346
12884TIP3    H160067   3.465   5.983  16.297 -0.8135 -0.5209  0.3915
12884TIP3    H260068   3.371   5.964  16.180  0.2583 -0.9271 -0.4198
12885TIP3   OH260069   6.426   2.064   6.340 -0.3854 -0.4172 -0.3355
12885TIP3    H160070   6.433   2.155   6.371  0.9738  0.0583 -1.8944
12885TIP3    H260071   6.337   2.039   6.363 -0.6778  1.1829  0.4786
12886TIP3   OH260072   3.436   2.551   0.678 -0.5783 -0.5936 -0.4199
12886TIP3    H160073   3.343   2.574   0.681 -0.4228 -0.0391  1.0240
12886TIP3    H260074   3.438   2.456   0.677 -1.1754 -0.6463 -2.7467
12887TIP3   OH260075   5.953   0.178  16.163 -0.4315 -0.4126 -0.0684
12887TIP3    H160076   5.896   0.137  16.228  0.5129 -1.2158  0.2839
12887TIP3    H260077   5.902   0.251  16.128 -0.9612  0.0194  1.5476
12888TIP3   OH260078   6.590   2.455   5.205 -0.1771  0.1999 -0.3920
12888TIP3    H160079   6.598   2.550   5.199 -0.9804  0.2007 -1.7196
12888TIP3    H260080   6.513   2.433   5.153 -0.3685 -1.1313  0.4022
12889TIP3   OH260081   3.757   1.521   5.797 -0.3757  0.1084 -0.1955
12889TIP3    H160082   3.790   1.503   5.708  1.3826 -1.1442  0.6432
12889TIP3    H260083   3.829   1.569   5.839 -1.6996  1.8218  0.2054
12890TIP3   OH260084   0.996   4.576   5.587 -0.2915 -0.2118 -0.1086
12890TIP3    H160085   1.060   4.534   5.529  0.8898 -1.8229  2.1576
12890TIP3    H260086   0.916   4.526   5.574 -0.2174 -0.1587 -0.7956
12891TIP3   OH260087   6.007   5.587   3.981  0.2923 -0.2499 -0.5560
12891TIP3    H160088   5.982   5.515   4.039  0.0228  0.0528 -0.2989
12891TIP3    H260089   5.926   5.608   3.933  0.3020  0.0704 -0.4300
12892TIP3   OH260090   1.660   3.138   3.324 -0.2850 -0.4491  0.2816
12892TIP3    H160091   1.706   3.209   3.279  1.3048 -1.2469  0.5813
12892TIP3    H260092   1.653   3.167   3.415  0.8499 -0.8859  0.5198
12893TIP3   OH260093   5.527   4.428  15.099  0.4068 -0.4048 -0.1234
12893TIP3    H160094   5.514   4.492  15.170  2.1571 -1.0193  0.8219
12893TIP3    H260095   5.527   4.480  15.019 -3.8195  0.0789 -0.0281
12894TIP3   OH260096   2.175   2.881  10.524  0.0056 -0.3225  0.0726
12894TIP3    H160097   2.195   2.921  10.440 -0.1047 -0.1085  0.1470
12894TIP3    H260098   2.233   2.805  10.529  0.0015 -0.3457 -0.2017
12895TIP3   OH260099   5.973   2.286   0.518 -0.0841 -0.0009 -0.9201
12895TIP3    H160100   6.022   2.351   0.466 -0.1491 -0.8794 -2.1255
12895TIP3    H260101   6.040   2.231   0.557  0.1047  1.9941  1.9132
12896TIP3   OH260102   5.802   5.636  16.331 -0.1937  0.1035 -0.6091
12896TIP3    H160103   5.768   5.684  16.255  1.2860 -0.3624 -1.6035
12896TIP3    H260104   5.832   5.704  16.391  2.4514  0.5197 -2.2674
12897TIP3   OH260105   6.198   5.263  16.273 -0.6845  0.5172 -0.2792
12897TIP3    H160106   6.187   5.173  16.305  1.4697  0.0324 -0.7045
12897TIP3    H260107   6.282   5.291  16.311 -2.5099  3.3682  2.0294
12898TIP3   OH260108   6.286   1.858   6.125 -0.3034  0.5048  0.0325
12898TIP3    H160109   6.234   1.925   6.170  2.0449  2.2924  0.2792
12898TIP3    H260110   6.318   1.801   6.196  1.6462  2.0605  0.4852
12899TIP3   OH260111   3.875   6.264   4.583  0.1853  0.1067  0.5292
12899TIP3    H160112   3.879   6.172   4.609  0.2150 -0.1533 -0.3544
12899TIP3    H260113   3.880   6.313   4.665 -0.2850 -0.6885  1.0403
12900TIP3   OH260114   4.675   3.888   3.097 -0.1453 -0.4530  0.8775
12900TIP3    H160115   4.615   3.834   3.046 -0.5446 -1.1312  2.0191
12900TIP3    H260116   4.618   3.944   3.149  0.2646  1.4321 -0.6105
12901TIP3   OH260117   6.308   6.017   1.542  0.3683  0.1184  0.4608
12901TIP3    H160118   6.267   6.052   1.463  0.8511  1.2986  0.7031
12901TIP3    H260119   6.247   5.951   1.574  0.1119 -0.3102 -0.8300
12902TIP3   OH260120   0.574   5.065  16.343 -0.5109 -0.0036 -0.5540
12902TIP3    H160121   0.665   5.056  16.371 -0.8773 -1.4864  0.2861
12902TIP3    H260122   0.574   5.140  16.283  1.0352  0.7939  0.3730
12903TIP3   OH260123   3.474   5.824   0.876  0.3121 -0.2509  0.0922
12903TIP3    H160124   3.542   5.841   0.942  0.9959 -0.7736 -0.4541
12903TIP3    H260125   3.395   5.806   0.927  0.6343  0.1538  0.7493
12904TIP3   OH260126   5.671   5.526   0.705  0.0901 -0.4722 -0.1241
12904TIP3    H160127   5.689   5.585   0.778 -0.7536  0.9058 -0.9728
12904TIP3    H260128   5.758   5.505   0.669  0.4338 -0.1842  0.5272
12905TIP3   OH260129   1.824   1.466  11.558 -1.0289  0.0987  0.2844
12905TIP3    H160130   1.774   1.401  11.608  0.3763 -0.7233  0.7004
12905TIP3    H260131   1.911   1.465  11.599 -0.8475  1.9360  0.0054
12906TIP3   OH260132   5.298   5.573  13.358  0.1006 -0.2207 -0.0283
12906TIP3    H160133   5.257   5.574  13.444 -1.2682  1.1188 -0.6467
12906TIP3    H260134   5.290   5.482  13.329 -0.6904 -0.4002  0.7003
12907TIP3   OH260135   3.311   0.327   3.341  0.6202  0.2133 -0.5354
12907TIP3    H160136   3.344   0.315   3.252  1.3996  1.3027 -0.4232
12907TIP3    H260137   3.384   0.366   3.389  0.6581 -1.5634  0.9505
12908TIP3   OH260138   4.644   5.627  13.988  0.2669  0.2889  0.2318
12908TIP3    H160139   4.660   5.534  13.969 -0.7007  0.0824  0.3867
12908TIP3    H260140   4.715   5.673  13.944 -0.8738 -0.2861 -2.4017
12909TIP3   OH260141   4.539   4.111   0.577 -0.1980  0.5655 -0.3626
12909TIP3    H160142   4.544   4.142   0.667 -0.3861 -3.3099  1.1658
12909TIP3    H260143   4.616   4.056   0.566 -1.6043 -1.2975 -1.5230
12910TIP3   OH260144   3.500   0.517   1.672 -0.4299  0.1419  0.6163
12910TIP3    H160145   3.410   0.547   1.660 -0.6689 -0.8959 -0.3242
12910TIP3    H260146   3.517   0.529   1.765 -3.0433 -3.5419  1.7633
12911TIP3   OH260147   2.095   0.894   1.374 -0.4989  0.2623 -0.0065
12911TIP3    H160148   2.129   0.948   1.303  0.7597  0.2524  0.5586
12911TIP3    H260149   2.085   0.807   1.335  2.2357 -0.2702  0.3242
12912TIP3   OH260150   2.280   5.659  16.331  0.0414 -0.0611 -0.2179
12912TIP3    H160151   2.358   5.708  16.303  0.6389  0.2123  1.7584
12912TIP3    H260152   2.216   5.727  16.352 -0.0695 -0.2223 -0.0406
12913TIP3   OH260153   1.365   3.579  14.073 -0.3447 -0.0541 -0.1734
12913TIP3    H160154   1.310   3.511  14.037 -0.4297  0.2846 -0.6973
12913TIP3    H260155   1.385   3.636  13.998  1.3999 -0.6212 -0.2018
12914TIP3   OH260156   6.113   6.602   4.323 -0.3078  0.8518  0.1201
12914TIP3    H160157   6.150   6.538   4.384 -0.1298  1.0321  0.2047
12914TIP3    H260158   6.022   6.575   4.311 -0.0037  0.0815 -0.5201
12915TIP3   OH260159   4.470   2.031   1.595  0.6678  0.5183  0.3894
12915TIP3    H160160   4.426   2.112   1.571 -0.9400 -0.6839 -0.9704
12915TIP3    H260161   4.558   2.039   1.559  0.6864  1.8335  0.6975
12916TIP3   OH260162   4.822   5.559  12.359  0.5320 -0.3154 -0.3156
12916TIP3    H160163   4.916   5.554  12.341  0.9956  3.3282  0.2492
12916TIP3    H260164   4.781   5.560  12.273  1.1295 -0.8310 -0.6079
12917TIP3   OH260165   6.577   3.117   4.267  0.3530  0.2580 -0.4121
12917TIP3    H160166   6.600   3.026   4.250 -0.3806 -0.1305  0.5890
12917TIP3    H260167   6.497   3.132   4.217  0.0533  0.1216  0.0244
12918TIP3   OH260168   2.742   0.510  16.004  0.3036  0.3401  0.6515
12918TIP3    H160169   2.692   0.432  15.981  1.1276 -0.2717  0.9324
12918TIP3    H260170   2.719   0.528  16.095 -3.6996  3.3088 -0.6447
12919TIP3   OH260171   2.702   3.469   0.309  0.4756  0.2657 -0.2886
12919TIP3    H160172   2.744   3.456   0.393 -1.9671  0.7350  1.1179
12919TIP3    H260173   2.654   3.388   0.293 -1.0962  1.0810  0.0759
12920TIP3   OH260174   0.123   1.481   0.802  0.1159  0.1056 -0.2564
12920TIP3    H160175   0.127   1.526   0.887  1.6689  1.7682 -1.1494
12920TIP3    H260176   0.040   1.434   0.804 -0.3603  0.9251  1.7839
12921TIP3   OH260177   2.637   1.481  13.091 -0.0410 -0.3421  0.4636
12921TIP3    H160178   2.620   1.549  13.156 -0.4033  0.3154 -0.3011
12921TIP3    H260179   2.662   1.529  13.012 -1.1003 -1.0420 -0.3261
12922TIP3   OH260180   5.860   4.755  12.016 -0.0899  0.4821 -0.3952
12922TIP3    H160181   5.892   4.667  11.997  0.4951  0.7649 -0.7592
12922TIP3    H260182   5.876   4.804  11.935  1.7183  1.5060  0.5099
12923TIP3   OH260183   4.194   2.393  15.307 -0.3028 -0.0561  0.2529
12923TIP3    H160184   4.211   2.391  15.401 -1.1697 -0.4423  0.4121
12923TIP3    H260185   4.269   2.349  15.267 -0.9593 -1.8870  0.9428
12924TIP3   OH260186   2.185   1.416   0.789  0.5566  0.0702 -0.0217
12924TIP3    H160187   2.114   1.353   0.795  0.9083 -0.4425 -0.9783
12924TIP3    H260188   2.209   1.416   0.696  1.4716  0.6009  0.2017
12925TIP3   OH260189   4.176   6.600   6.737 -0.4588 -0.3121  0.0632
12925TIP3    H160190   4.216   6.590   6.651  2.2779 -1.9713  1.3830
12925TIP3    H260191   4.224   6.673   6.777  0.6374 -1.6770  1.3219
12926TIP3   OH260192   0.163   3.801   1.667 -0.3268  0.0398 -0.8397
12926TIP3    H160193   0.235   3.864   1.671 -0.0702 -0.2771 -0.5111
12926TIP3    H260194   0.190   3.738   1.600  0.3956 -0.9355  0.3348
12927TIP3   OH260195   3.860   2.254  16.881  0.0851 -0.2792  0.4637
12927TIP3    H160196   3.875   2.348  16.867 -0.2681 -0.3633 -0.5452
12927TIP3    H260197   3.896   2.212  16.803  0.1996 -0.9849  0.8884
12928TIP3   OH260198   4.477   1.770  13.521 -0.4627  0.1576  0.5084
12928TIP3    H160199   4.416   1.770  13.447  1.0361 -0.0752 -0.7621
12928TIP3    H260200   4.494   1.863  13.537 -0.5673  0.2002  0.3804
12929TIP3   OH260201   3.369   0.232   1.021  0.3920  0.0290 -0.4083
12929TIP3    H160202   3.380   0.211   1.114  1.0888  1.4010 -0.1611
12929TIP3    H260203   3.279   0.205   1.001 -0.6855  2.0559  1.3454
12930TIP3   OH260204   3.329   0.976  16.644  0.0649 -0.4083  0.4778
12930TIP3    H160205   3.240   0.971  16.680  0.4266 -0.8858  1.3283
12930TIP3    H260206   3.364   1.058  16.678 -0.2149  0.0214 -0.2569
12931TIP3   OH260207   0.710   1.385  16.267 -0.3786  0.6488 -0.2164
12931TIP3    H160208   0.777   1.351  16.326 -0.8534  2.7405  1.7091
12931TIP3    H260209   0.632   1.333  16.287  0.6213 -2.1287 -2.8135
12932TIP3   OH260210   6.592   1.477  15.808 -0.6080 -0.3840 -0.2508
12932TIP3    H160211   6.601   1.530  15.887  1.2534 -0.4328 -0.3863
12932TIP3    H260212   6.536   1.404  15.834 -1.6814  0.6480  0.4386
12933TIP3   OH260213   1.203   1.137  13.373  0.4740 -0.6624 -0.5657
12933TIP3    H160214   1.135   1.071  13.362 -1.4789  0.6391  2.3465
12933TIP3    H260215   1.166   1.217  13.336 -0.4255  0.4244  2.3825
12934TIP3   OH260216   4.313   1.967  11.150  0.1009 -0.6278  0.3080
12934TIP3    H160217   4.251   1.960  11.222 -0.3903  2.8360  0.3994
12934TIP3    H260218   4.259   1.995  11.075  1.2881  0.8006 -0.0484
12935TIP3   OH260219   4.353   6.477   5.001 -0.2794 -0.4939 -0.1264
12935TIP3    H160220   4.396   6.408   5.051  0.5286 -1.1360 -1.6468
12935TIP3    H260221   4.385   6.466   4.912 -1.7029  0.5832 -0.8186
12936TIP3   OH260222   4.645   0.094  14.608  0.4316 -0.1290  0.7095
12936TIP3    H160223   4.609   0.039  14.678  0.0031 -0.2644  0.3851
12936TIP3    H260224   4.640   0.040  14.530  0.1456  0.3163  0.4169
12937TIP3   OH260225   2.319   2.495   1.526  0.0097 -0.1390 -0.4649
12937TIP3    H160226   2.318   2.422   1.588 -1.3623 -0.0092 -0.3073
12937TIP3    H260227   2.293   2.571   1.579 -1.5897 -0.1012 -1.2591
12938TIP3   OH260228   0.471   5.985   5.958  0.0274 -0.5358  0.3429
12938TIP3    H160229   0.397   5.988   6.019  0.5652  0.0871  0.9798
12938TIP3    H260230   0.463   6.066   5.907  0.1071 -0.6063  0.2176
12939TIP3   OH260231   2.380   0.740   4.191  0.0163 -0.0323  0.7652
12939TIP3    H160232   2.398   0.818   4.244 -1.5907  0.0407  1.2544
12939TIP3    H260233   2.368   0.670   4.256  2.6116 -1.0210  0.3080
12940TIP3   OH260234   3.214   6.755  12.229  0.6280 -0.4751 -0.3660
12940TIP3    H160235   3.218   6.667  12.193 -1.7464  0.6777 -3.9132
12940TIP3    H260236   3.253   6.811  12.162  1.4316  1.2925  1.4720
12941TIP3   OH260237   5.364   3.775  13.822  0.2289 -0.3442  0.1417
12941TIP3    H160238   5.313   3.711  13.772 -0.3383  0.2155 -0.0056
12941TIP3    H260239   5.361   3.742  13.912  1.4302 -1.4680 -0.1976
12942TIP3   OH260240   2.313   4.827   1.884  0.0955 -0.1039  0.1584
12942TIP3    H160241   2.381   4.761   1.897  1.4171  0.5796 -2.5634
12942TIP3    H260242   2.332   4.865   1.798 -2.3101  1.8422  0.3645
12943TIP3   OH260243   4.305   3.868  16.393 -0.3316 -0.1806  0.2814
12943TIP3    H160244   4.216   3.871  16.427 -0.6176 -1.0993 -0.3516
12943TIP3    H260245   4.357   3.832  16.464 -0.7504 -1.1337  0.1177
12944TIP3   OH260246   2.998   6.187  11.235 -0.7093  0.2419 -0.2627
12944TIP3    H160247   3.058   6.244  11.283  0.3135 -0.2175 -0.9599
12944TIP3    H260248   3.020   6.200  11.143 -1.7269  0.1036 -0.5403
12945TIP3   OH260249   6.773   4.738  13.954 -0.2134 -0.3553 -0.5777
12945TIP3    H160250   6.777   4.648  13.986 -1.4574 -0.1607  0.2157
12945TIP3    H260251   6.799   4.791  14.029 -0.9176  0.0011 -0.5722
12946TIP3   OH260252   3.645   3.458  14.178  0.5870  0.3475 -0.0591
12946TIP3    H160253   3.673   3.380  14.226  0.8930  0.4329 -0.1009
12946TIP3    H260254   3.553   3.441  14.157  0.3670  0.4240  0.7917
12947TIP3   OH260255   2.624   4.773  10.825 -0.4485  0.8219 -0.5221
12947TIP3    H160256   2.709   4.810  10.804  0.9364 -1.0894  1.2900
12947TIP3    H260257   2.620   4.691  10.777 -0.0715 -0.3492  1.3207
12948TIP3   OH260258   3.263   5.008  14.439  0.1387 -0.0028 -0.2462
12948TIP3    H160259   3.307   4.954  14.505 -0.1159  1.3931  1.1217
12948TIP3    H260260   3.261   5.096  14.477 -2.3186  0.3432 -0.9691
12949TIP3   OH260261   2.194   3.976   3.380 -0.4552  0.0422  0.1424
12949TIP3    H160262   2.207   3.891   3.338  0.8155 -0.9011  2.3030
12949TIP3    H260263   2.099   3.981   3.394 -0.3870 -1.9416  1.7081
12950TIP3   OH260264   4.672   5.699  15.848  0.3259  0.0715 -0.3122
12950TIP3    H160265   4.750   5.700  15.792  0.7709 -2.2373  0.1637
12950TIP3    H260266   4.692   5.761  15.918  1.2277  0.3830 -0.8243
12951TIP3   OH260267   6.087   6.500  12.950 -0.1982  0.3585  0.1609
12951TIP3    H160268   6.092   6.583  12.997  1.3943 -0.4648  1.5669
12951TIP3    H260269   6.158   6.447  12.987 -0.7537 -1.4080 -1.1413
12952TIP3   OH260270   4.374   0.992   0.110  0.8176  0.5162  0.5803
12952TIP3    H160271   4.470   0.996   0.115  0.9252  0.9386 -1.0596
12952TIP3    H260272   4.356   0.948   0.027 -0.4121  0.5609  0.8010
12953TIP3   OH260273   4.687   0.770  12.339  0.4033 -0.6605  0.1048
12953TIP3    H160274   4.607   0.778  12.288  1.2518  0.8055 -1.1249
12953TIP3    H260275   4.675   0.831  12.412  0.8005  0.4282 -0.7074
12954TIP3   OH260276   2.046   4.523   3.023  0.4097  0.0756  0.7714
12954TIP3    H160277   1.984   4.450   3.020  0.0695  0.3901 -0.0645
12954TIP3    H260278   2.070   4.539   2.931  1.4754  0.1789  1.0478
12955TIP3   OH260279   3.997   5.737  13.973  0.4784 -0.6224 -0.5170
12955TIP3    H160280   4.021   5.786  14.052  1.1084  0.3034 -1.2566
12955TIP3    H260281   3.959   5.656  14.006  0.9595 -0.3637  0.7332
12956TIP3   OH260282   1.737   2.028   4.749  0.2804 -0.1862  0.4746
12956TIP3    H160283   1.780   1.996   4.670 -1.2210 -2.6006  0.5367
12956TIP3    H260284   1.786   1.987   4.821  0.8180  0.9403  0.7742
12957TIP3   OH260285   0.171   5.204   5.339 -0.0956 -0.4931 -0.1308
12957TIP3    H160286   0.235   5.272   5.359 -1.7764  1.1717 -0.0809
12957TIP3    H260287   0.199   5.169   5.255  0.6324  0.5109 -0.3364
12958TIP3   OH260288   4.386   3.541  14.754  0.8055 -0.2611  0.1404
12958TIP3    H160289   4.431   3.609  14.804  0.1102  0.4601 -0.1867
12958TIP3    H260290   4.430   3.541  14.669 -0.6187  1.3909 -0.6593
12959TIP3   OH260291   0.487   2.874   4.636 -0.2891 -0.1892  0.1444
12959TIP3    H160292   0.432   2.878   4.714 -1.3258  0.3151 -0.5886
12959TIP3    H260293   0.503   2.966   4.614 -0.9588 -0.3128 -0.8866
12960TIP3   OH260294   6.215   6.217  14.805 -0.3677  0.6112  0.1479
12960TIP3    H160295   6.289   6.221  14.866 -0.8710 -2.1492  1.0776
12960TIP3    H260296   6.138   6.227  14.861 -0.7887 -0.0675 -0.3038
12961TIP3   OH260297   0.379   4.373  11.180 -0.2313  0.0154  0.3303
12961TIP3    H160298   0.384   4.327  11.263 -0.7940  0.1910  0.4708
12961TIP3    H260299   0.388   4.305  11.113 -0.4193 -0.2088  0.5357
12962TIP3   OH260300   3.768   0.268   0.325 -0.3825 -0.2150 -0.5712
12962TIP3    H160301   3.795   0.311   0.406 -0.6717 -1.2572  0.1002
12962TIP3    H260302   3.674   0.255   0.336 -0.1893 -1.6698 -0.4194
12963TIP3   OH260303   2.426   1.259   5.253  0.5526  0.4202 -0.1759
12963TIP3    H160304   2.413   1.164   5.262  3.1327  0.1546  1.9765
12963TIP3    H260305   2.436   1.290   5.343  1.6457  2.4120 -0.9341
12964TIP3   OH260306   0.651   3.101  13.630 -0.3195  0.0636 -0.4973
12964TIP3    H160307   0.573   3.155  13.622  1.2118  2.3184 -1.5939
12964TIP3    H260308   0.701   3.120  13.550  1.6226 -0.7521  0.4454
12965TIP3   OH260309   1.231   4.434   0.728 -0.3025 -0.5839 -0.3785
12965TIP3    H160310   1.214   4.492   0.802  1.5018 -0.7780  0.2394
12965TIP3    H260311   1.212   4.486   0.650  1.0989  0.7915  0.1660
12966TIP3   OH260312   2.227   2.736  11.107 -0.3859  0.1925 -0.7688
12966TIP3    H160313   2.257   2.813  11.154 -2.8579  0.5069  0.4953
12966TIP3    H260314   2.247   2.754  11.015  0.9373  1.3846 -0.2695
12967TIP3   OH260315   3.000   2.982   3.651 -0.1333  0.9138 -0.1873
12967TIP3    H160316   3.081   2.947   3.614 -1.7644 -0.7540 -2.4675
12967TIP3    H260317   2.978   3.057   3.595 -1.1320  0.1575 -0.8399
12968TIP3   OH260318   0.234   3.419  14.929  0.2248  0.5951 -0.0639
12968TIP3    H160319   0.303   3.353  14.928  1.4091  1.7854 -0.8516
12968TIP3    H260320   0.177   3.396  14.856 -0.1718 -0.3235  0.5140
12969TIP3   OH260321   0.210   5.297   2.078 -0.2403 -0.7264 -0.1863
12969TIP3    H160322   0.167   5.211   2.078 -2.2430  0.2294 -0.3464
12969TIP3    H260323   0.279   5.289   2.012 -0.2911 -2.2540 -0.0848
12970TIP3   OH260324   1.236   6.086  11.225 -0.1460  0.1445  0.2918
12970TIP3    H160325   1.162   6.031  11.249  0.7352 -0.0808  2.7432
12970TIP3    H260326   1.293   6.029  11.175 -0.2857 -0.5304  0.8879
12971TIP3   OH260327   6.173   5.316  15.890 -0.2162 -0.0208 -0.9465
12971TIP3    H160328   6.152   5.392  15.944 -0.1688 -1.0126  0.4962
12971TIP3    H260329   6.094   5.262  15.892  0.7701 -1.4695  0.5845
12972TIP3   OH260330   2.874   0.803   4.802 -0.0252  0.4166  0.3721
12972TIP3    H160331   2.783   0.793   4.775 -0.7953  0.5594  2.6808
12972TIP3    H260332   2.915   0.851   4.730 -1.5638 -0.2771 -1.0481
12973TIP3   OH260333   2.378   2.931  12.162 -0.4453 -0.0703  0.1936
12973TIP3    H160334   2.326   2.993  12.111  0.6388  1.0862  0.4487
12973TIP3    H260335   2.316   2.864  12.188 -1.2527 -0.1666 -1.7782
12974TIP3   OH260336   0.542   3.460  14.878  0.4582  0.1159 -0.4398
12974TIP3    H160337   0.515   3.531  14.936 -0.0005  0.0407 -0.5607
12974TIP3    H260338   0.502   3.481  14.794 -2.1654 -1.7595  0.1951
12975TIP3   OH260339   4.268   5.972  11.124  0.0797 -0.1822 -0.4246
12975TIP3    H160340   4.241   5.988  11.034 -1.7280  0.2362  0.1470
12975TIP3    H260341   4.356   5.936  11.117 -0.2795 -0.7761 -2.3933
12976TIP3   OH260342   5.770   5.615   3.369 -0.3844 -0.3348 -0.3333
12976TIP3    H160343   5.814   5.558   3.306 -1.2879 -2.5351  0.8811
12976TIP3    H260344   5.677   5.603   3.350 -0.5884  0.8513 -0.1228
12977TIP3   OH260345   3.896   5.014   2.583  0.0438 -0.1934  0.0267
12977TIP3    H160346   3.867   5.053   2.665  0.6698  0.3030  0.0232
12977TIP3    H260347   3.815   4.995   2.534 -0.3083 -0.0802  0.5653
12978TIP3   OH260348   6.630   0.455   1.295  0.0754  0.5423 -0.4008
12978TIP3    H160349   6.709   0.422   1.337  0.8447 -0.0482 -2.2228
12978TIP3    H260350   6.559   0.424   1.351  0.9625 -1.5895 -0.3526
12979TIP3   OH260351   5.086   1.063  13.690  0.6275 -0.0538 -0.0838
12979TIP3    H160352   5.155   1.128  13.701 -0.2913  0.8676  0.4888
12979TIP3    H260353   5.057   1.043  13.779  1.5942 -2.0685 -0.1725
12980TIP3   OH260354   3.902   6.239   3.900 -0.4483 -0.2724 -0.0864
12980TIP3    H160355   3.920   6.318   3.950  1.4248 -0.6799 -0.0611
12980TIP3    H260356   3.887   6.172   3.966 -0.4408 -0.2815 -0.0937
12981TIP3   OH260357   5.599   4.683   2.868  0.0821 -0.3277  0.0342
12981TIP3    H160358   5.560   4.677   2.781  1.3436  0.7657 -0.6377
12981TIP3    H260359   5.609   4.777   2.884 -0.8265 -0.4704  1.7117
12982TIP3   OH260360   4.123   2.337   3.839 -0.2616  0.2950 -0.1744
12982TIP3    H160361   4.050   2.281   3.865  1.5209 -1.7742  0.6621
12982TIP3    H260362   4.158   2.372   3.921 -0.4561  1.4914 -0.5833
12983TIP3   OH260363   5.748   4.668  13.374 -0.4133 -0.6486 -0.3773
12983TIP3    H160364   5.841   4.690  13.372 -0.4841 -0.3641 -1.4895
12983TIP3    H260365   5.728   4.650  13.466  0.5225  0.2120 -0.0004
12984TIP3   OH260366   2.622   6.174   0.951  0.3111  0.2359  0.2287
12984TIP3    H160367   2.701   6.201   0.998 -0.1841  1.6828  0.2899
12984TIP3    H260368   2.552   6.228   0.989 -0.7777 -1.2063  0.3681
12985TIP3   OH260369   0.651   4.956   1.048 -0.1693  0.0177  0.4582
12985TIP3    H160370   0.586   4.931   1.113 -1.6667  0.8005 -0.6823
12985TIP3    H260371   0.643   5.051   1.040 -0.6922 -0.1311 -1.4811
12986TIP3   OH260372   4.991   0.044   3.908 -0.1905 -0.4101  0.7616
12986TIP3    H160373   5.048  -0.033   3.909 -0.5768 -0.7015  1.5085
12986TIP3    H260374   5.044   0.113   3.948  0.5765  0.0435 -0.9835
12987TIP3   OH260375   0.621   1.172  10.828  0.5031  0.3359 -0.5394
12987TIP3    H160376   0.538   1.140  10.865 -0.0048  2.3354  0.2182
12987TIP3    H260377   0.684   1.102  10.846 -0.1655  0.3591  2.4550
12988TIP3   OH260378   1.106   0.565  17.315  0.0017 -0.2215 -0.0697
12988TIP3    H160379   1.043   0.616  17.366 -0.0656 -1.0517  0.6955
12988TIP3    H260380   1.152   0.512  17.380  2.4914  1.3378 -0.4129
12989TIP3   OH260381   0.033   4.968   4.376  0.1898 -0.3430  0.1834
12989TIP3    H160382   0.086   4.889   4.366  0.4704 -0.2239  0.7055
12989TIP3    H260383   0.035   5.009   4.289  1.9783  0.2935  0.4809
12990TIP3   OH260384   0.136   3.175   5.714  0.2852  0.6388  0.3119
12990TIP3    H160385   0.198   3.246   5.695  1.4382 -0.6411 -0.8727
12990TIP3    H260386   0.190   3.105   5.750 -0.5263 -0.3695 -0.3830
12991TIP3   OH260387   1.426   3.061   5.553 -0.8494 -0.2959 -0.2410
12991TIP3    H160388   1.495   3.094   5.495  0.1330  0.6280  1.3650
12991TIP3    H260389   1.347   3.062   5.500  0.3047 -1.1649 -2.0844
12992TIP3   OH260390   1.525   1.120  14.105 -0.1663  0.2195  0.0602
12992TIP3    H160391   1.608   1.072  14.099 -0.7274 -0.7845  0.1642
12992TIP3    H260392   1.481   1.101  14.022 -1.4684 -1.5254  1.0783
12993TIP3   OH260393   4.731   3.959  14.165  0.0734 -0.2952 -0.3756
12993TIP3    H160394   4.760   3.868  14.160 -1.4323 -0.8054 -0.0806
12993TIP3    H260395   4.760   3.997  14.082  1.2526 -0.8552 -0.2473
12994TIP3   OH260396   0.975   0.401  15.493 -0.7762  0.0738  0.2401
12994TIP3    H160397   1.068   0.387  15.509 -0.6689  1.4295  0.8984
12994TIP3    H260398   0.947   0.323  15.445  0.8195 -0.0965 -0.4667
12995TIP3   OH260399   0.849   6.736  12.347  0.4275  0.0365 -0.2754
12995TIP3    H160400   0.824   6.707  12.435  1.0283 -1.5867 -0.6032
12995TIP3    H260401   0.796   6.684  12.288  0.1673  0.9846 -0.8945
12996TIP3   OH260402   6.657   5.161   1.051  0.3565  0.9647 -0.2189
12996TIP3    H160403   6.691   5.083   1.007  0.0226  0.4473  0.4214
12996TIP3    H260404   6.624   5.129   1.135 -0.9707  1.5869 -0.4778
12997TIP3   OH260405   1.498   1.272  14.631 -0.2581 -0.2969 -0.2828
12997TIP3    H160406   1.500   1.180  14.605 -0.4593 -0.2522 -0.4561
12997TIP3    H260407   1.448   1.272  14.712  0.9364 -0.5262  0.4831
12998TIP3   OH260408   6.729   5.687   3.205 -0.1082 -0.7320  0.4579
12998TIP3    H160409   6.777   5.611   3.174  1.4996  0.4619 -0.1028
12998TIP3    H260410   6.735   5.750   3.133 -2.2462 -0.3997  0.5146
12999TIP3   OH260411   5.333   2.461  12.808 -0.1910  0.0524  0.3508
12999TIP3    H160412   5.272   2.530  12.780 -1.0049 -0.8141 -0.0622
12999TIP3    H260413   5.380   2.437  12.728  0.7239  0.7246  0.6712
13000TIP3   OH260414   3.660   1.557  14.569  0.2576  0.3459 -0.1150
13000TIP3    H160415   3.709   1.633  14.602 -2.9310  3.0859 -1.0976
13000TIP3    H260416   3.612   1.591  14.493 -0.4352 -3.0479 -1.3620
13001TIP3   OH260417   6.730   4.432  10.767  0.2289  0.4325 -0.3188
13001TIP3    H160418   6.730   4.406  10.674 -1.2225  1.7621 -0.7295
13001TIP3    H260419   6.638   4.429  10.793  0.3309  2.2880  0.4063
13002TIP3   OH260420   2.767   4.559   1.745 -0.1446  1.5127 -0.1991
13002TIP3    H160421   2.714   4.498   1.693  2.0555 -4.0320  3.2175
13002TIP3    H260422   2.840   4.581   1.688  0.7425 -2.0412 -0.6564
13003TIP3   OH260423   3.298   5.182   0.548 -0.5575  0.5811 -0.7194
13003TIP3    H160424   3.213   5.147   0.575  0.0477 -0.2721  0.1500
13003TIP3    H260425   3.278   5.270   0.514 -1.7504  0.4749 -0.3446
13004TIP3   OH260426   6.564   3.952   3.304 -0.0583 -0.1627  0.0933
13004TIP3    H160427   6.552   4.040   3.267  1.8933  0.5338  0.9537
13004TIP3    H260428   6.477   3.912   3.299 -0.9086  1.6410 -0.7415
13005TIP3   OH260429   4.406   2.625  13.284  0.5057 -0.0982 -0.1950
13005TIP3    H160430   4.382   2.599  13.373 -1.3178  0.2394 -0.5325
13005TIP3    H260431   4.398   2.720  13.284  0.8974 -0.0630 -0.6148
13006TIP3   OH260432   3.506   6.376   4.712 -0.1699 -0.0492  0.0307
13006TIP3    H160433   3.448   6.441   4.672  0.9946  0.2303 -1.2998
13006TIP3    H260434   3.580   6.427   4.746  0.6722 -0.6054 -0.8787
13007TIP3   OH260435   3.292   5.556   2.703 -0.1187 -0.4093 -0.1987
13007TIP3    H160436   3.287   5.544   2.798  3.5722 -1.4695  0.0307
13007TIP3    H260437   3.301   5.467   2.669  0.2658  0.0613 -1.3773
13008TIP3   OH260438   6.616   6.679  11.664  0.8838  0.1407  0.1272
13008TIP3    H160439   6.678   6.640  11.725  1.9759  0.0501 -0.9938
13008TIP3    H260440   6.651   6.658  11.577 -1.8377 -1.7669 -0.6427
13009TIP3   OH260441   0.157   1.460  15.963  0.4623  0.2454  0.8237
13009TIP3    H160442   0.095   1.420  16.024  1.5641 -0.6143  1.4230
13009TIP3    H260443   0.238   1.412  15.977  0.7485  0.0169 -1.3645
13010TIP3   OH260444   0.713   2.096   3.751  0.0254 -0.4053  0.4730
13010TIP3    H160445   0.736   2.069   3.840 -0.2689 -2.6058 -0.0570
13010TIP3    H260446   0.686   2.015   3.708  0.9358  0.4611 -1.8755
13011TIP3   OH260447   1.784   0.455  10.940 -0.2638  0.4297  0.2249
13011TIP3    H160448   1.849   0.399  10.983 -0.2893 -0.0680 -0.3657
13011TIP3    H260449   1.822   0.474  10.855 -1.9124 -1.8990 -1.1441
13012TIP3   OH260450   0.763   3.975  12.660  0.0969  0.0607 -0.3135
13012TIP3    H160451   0.848   4.020  12.659  1.0689 -1.6679 -0.0744
13012TIP3    H260452   0.779   3.893  12.614 -0.6206 -1.6108  2.1908
13013TIP3   OH260453   3.585   0.309   6.066 -0.3261 -0.1682  0.1313
13013TIP3    H160454   3.652   0.241   6.073 -0.3447 -0.2810 -0.6628
13013TIP3    H260455   3.633   0.385   6.032 -0.6053 -0.2654 -0.4889
13014TIP3   OH260456   1.470   6.603  16.766 -0.2994 -0.3273 -0.2312
13014TIP3    H160457   1.379   6.588  16.791 -0.0845 -2.5191 -0.5974
13014TIP3    H260458   1.472   6.590  16.671  0.0376  1.8313 -0.5720
13015TIP3   OH260459   0.118   4.478   1.834 -0.0888  0.1350  0.1713
13015TIP3    H160460   0.028   4.489   1.803  0.4674  1.5303 -1.1104
13015TIP3    H260461   0.145   4.567   1.858  0.9593 -0.2680  0.5110
13016TIP3   OH260462   2.673   2.912  11.544 -0.1969  0.1399 -0.8095
13016TIP3    H160463   2.604   2.933  11.606  0.6962 -1.3357  0.7550
13016TIP3    H260464   2.629   2.860  11.476 -1.1894  1.8103 -1.4857
13017TIP3   OH260465   1.829   5.762   0.477  0.1724 -0.5688  0.1003
13017TIP3    H160466   1.842   5.811   0.558 -0.6024 -0.8755  0.4222
13017TIP3    H260467   1.917   5.739   0.448  0.4987  0.2955  0.3838
13018TIP3   OH260468   1.723   3.623   4.005  0.2063 -0.1662  0.1554
13018TIP3    H160469   1.661   3.684   4.045 -1.2130 -1.2239 -0.3565
13018TIP3    H260470   1.698   3.620   3.913  1.4761 -0.1055 -0.2159
13019TIP3   OH260471   3.359   0.618  14.291 -1.0447 -0.3190  0.2712
13019TIP3    H160472   3.428   0.595  14.353  0.5365 -0.8470 -1.5830
13019TIP3    H260473   3.283   0.568  14.320 -0.7962  0.4733  2.5292
13020TIP3   OH260474   4.159   4.506   1.391 -0.2906 -0.3124 -0.1413
13020TIP3    H160475   4.090   4.486   1.455  0.2272  0.0995  0.5663
13020TIP3    H260476   4.126   4.471   1.308 -0.9847 -0.8439  0.3467
13021TIP3   OH260477   1.230   6.610  17.068 -0.4180  0.0543 -0.3857
13021TIP3    H160478   1.283   6.635  17.143  0.1617  0.6419 -0.9798
13021TIP3    H260479   1.144   6.590  17.105 -0.0487 -0.0125  0.4706
13022TIP3   OH260480   6.472   2.213  13.783 -0.4838  0.5973  0.7167
13022TIP3    H160481   6.412   2.285  13.766 -0.3312  0.9224  1.5202
13022TIP3    H260482   6.513   2.234  13.867  0.9888  0.5432  0.0519
13023TIP3   OH260483   6.446   1.609  17.026  0.1620 -0.1367  0.6076
13023TIP3    H160484   6.533   1.602  16.988  0.5805 -0.0635  1.5391
13023TIP3    H260485   6.424   1.702  17.019  0.5052 -0.0181  1.1388
13024TIP3   OH260486   3.271   0.204  15.753  0.5647 -0.2916  0.5307
13024TIP3    H160487   3.186   0.215  15.795  0.7658  0.6223  0.7033
13024TIP3    H260488   3.251   0.156  15.672  0.3160 -3.0645  2.1213
13025TIP3   OH260489   4.685   4.529   2.524 -0.2544 -0.2213 -0.3475
13025TIP3    H160490   4.772   4.489   2.535 -0.3286 -0.3999 -0.4085
13025TIP3    H260491   4.643   4.516   2.609  0.4584  1.5328  0.3188
13026TIP3   OH260492   4.674   1.410   3.035 -0.3318  0.2765 -0.2657
13026TIP3    H160493   4.752   1.454   3.068  0.7843 -1.2682 -0.7246
13026TIP3    H260494   4.633   1.474   2.978  1.3976  0.6548 -1.1516
13027TIP3   OH260495   4.351   2.249   1.191 -0.1426  0.5338  0.0870
13027TIP3    H160496   4.255   2.259   1.192 -0.4610 -1.5418 -1.6071
13027TIP3    H260497   4.366   2.167   1.142  2.5005  0.6711  0.5199
13028TIP3   OH260498   2.616   2.316  10.666  0.6808  0.8798 -0.1886
13028TIP3    H160499   2.683   2.286  10.728 -0.6341 -0.8973  0.4554
13028TIP3    H260500   2.561   2.239  10.650 -1.9915  2.5439  0.3147
13029TIP3   OH260501   3.227   6.635  15.865 -0.5920  0.3870 -0.3946
13029TIP3    H160502   3.144   6.683  15.859 -1.0109 -0.3125 -0.2647
13029TIP3    H260503   3.211   6.552  15.821  0.0064  0.1974 -0.2673
13030TIP3   OH260504   5.627   5.190   2.197 -0.0266  0.1586  0.5668
13030TIP3    H160505   5.603   5.098   2.207 -0.6449  0.2975  0.4173
13030TIP3    H260506   5.683   5.192   2.120 -1.4623  0.1400 -0.5305
13031TIP3   OH260507   1.605   2.783  14.901  0.5818  0.1693  0.9673
13031TIP3    H160508   1.686   2.747  14.865  1.0235  1.6345  0.3907
13031TIP3    H260509   1.624   2.799  14.993  0.7450 -0.0773  0.9752
13032TIP3   OH260510   3.045   1.488   2.608  0.2316  0.0602  0.5852
13032TIP3    H160511   3.015   1.578   2.622  2.1060  0.9920 -0.8632
13032TIP3    H260512   3.010   1.464   2.522 -0.5979 -0.7696  1.1404
13033TIP3   OH260513   6.106   5.859  12.545  0.7881 -0.1839  0.5114
13033TIP3    H160514   6.051   5.843  12.468 -1.3595  0.8259  1.7497
13033TIP3    H260515   6.146   5.944  12.529  1.0170 -0.3594  0.1458
13034TIP3   OH260516   4.311   3.400   5.900  0.1684  0.8455 -0.4103
13034TIP3    H160517   4.229   3.450   5.892 -0.1726  0.5642  0.9819
13034TIP3    H260518   4.371   3.462   5.942 -0.1490  0.2242  0.9984
13035TIP3   OH260519   1.893   6.331   0.614 -0.2060  0.0252 -0.0969
13035TIP3    H160520   1.863   6.243   0.596  1.5076 -0.5130 -0.5173
13035TIP3    H260521   1.823   6.370   0.667 -0.7734 -1.7253  0.5120
13036TIP3   OH260522   5.572   6.099  13.630 -0.1185 -0.2407 -0.2909
13036TIP3    H160523   5.582   6.147  13.548 -2.9697 -0.6648 -1.0011
13036TIP3    H260524   5.591   6.008  13.607  0.0955 -0.2089 -0.2367
13037TIP3   OH260525   6.673   5.985  13.109  0.2932 -0.0921  0.2413
13037TIP3    H160526   6.732   6.001  13.182  0.5840 -1.1161  0.2399
13037TIP3    H260527   6.720   6.018  13.032  0.0669  0.8067  0.4694
13038TIP3   OH260528   1.074   2.269  17.087  0.4376  0.4905  0.2280
13038TIP3    H160529   1.046   2.323  17.161  0.1900  0.7188 -0.0291
13038TIP3    H260530   1.155   2.310  17.057  0.2925  0.6758  0.0837
13039TIP3   OH260531   0.093   5.732  15.107 -0.4074 -0.2356 -0.4425
13039TIP3    H160532   0.135   5.816  15.086 -2.4972  1.2552  0.9348
13039TIP3    H260533   0.094   5.684  15.024  0.2953  1.3836 -1.4301
13040TIP3   OH260534   0.325   6.104   0.493 -0.4274 -0.8162 -0.0864
13040TIP3    H160535   0.280   6.024   0.520  0.1836 -0.5141  2.0677
13040TIP3    H260536   0.327   6.158   0.572  0.6543  0.6232 -1.0385
13041TIP3   OH260537   5.321   5.186   5.019 -0.4843 -0.2986 -0.3382
13041TIP3    H160538   5.250   5.125   4.999 -0.8277  0.4945 -1.6413
13041TIP3    H260539   5.301   5.219   5.106 -0.8703 -1.2258 -0.0612
13042TIP3   OH260540   2.813   3.229   3.202  0.6350  0.2585  0.4388
13042TIP3    H160541   2.877   3.183   3.147  1.9580  0.8393  1.4446
13042TIP3    H260542   2.816   3.320   3.171 -0.6082  0.0886 -0.2889
13043TIP3   OH260543   6.637   6.039  12.775  1.2033  0.3364  0.1784
13043TIP3    H160544   6.720   5.993  12.762  0.1982 -1.8725  1.0893
13043TIP3    H260545   6.572   5.969  12.781 -0.8033  2.0029 -0.8278
13044TIP3   OH260546   0.946   0.392   3.653  0.1068 -0.5510 -0.0188
13044TIP3    H160547   0.857   0.356   3.648  0.2277 -1.2582  1.9389
13044TIP3    H260548   0.941   0.475   3.605 -1.2733 -1.1588 -0.9985
13045TIP3   OH260549   4.437   4.091   2.079  0.2230 -0.0569 -0.1324
13045TIP3    H160550   4.477   4.005   2.068  1.9559  0.7584 -0.5552
13045TIP3    H260551   4.494   4.150   2.029 -0.4824  1.4406  0.7852
13046TIP3   OH260552   5.796   5.506   5.997  0.2455 -0.0712 -0.5584
13046TIP3    H160553   5.888   5.488   6.019  0.1246 -1.2465 -0.9390
13046TIP3    H260554   5.798   5.521   5.902  0.2202  1.2133 -0.3705
13047TIP3   OH260555   5.790   6.291  16.032  0.2917 -0.0889 -0.4087
13047TIP3    H160556   5.702   6.327  16.047  0.3585  0.0603 -0.3762
13047TIP3    H260557   5.785   6.254  15.944  0.9264  2.1766 -1.4899
13048TIP3   OH260558   4.163   4.817   4.665 -0.3612 -0.0606 -0.3306
13048TIP3    H160559   4.100   4.779   4.726  1.2044 -1.8709  0.2613
13048TIP3    H260560   4.235   4.846   4.721  1.4294 -2.3851 -1.2873
13049TIP3   OH260561   1.707   5.299  14.434 -0.4454 -0.2060 -0.2418
13049TIP3    H160562   1.777   5.355  14.401 -0.4501 -0.7031 -1.1213
13049TIP3    H260563   1.726   5.290  14.527  1.1712 -1.0442 -0.6122
13050TIP3   OH260564   0.768   4.542   3.671  0.0340 -0.1323  0.5488
13050TIP3    H160565   0.786   4.623   3.720  0.4185 -0.8598  1.6710
13050TIP3    H260566   0.854   4.515   3.639 -0.2849  0.6095 -1.0315
13051TIP3   OH260567   2.564   6.413  13.867 -0.4983  0.6441  0.0340
13051TIP3    H160568   2.506   6.402  13.792  0.1494  1.7764 -0.6535
13051TIP3    H260569   2.647   6.442  13.830 -0.5879  2.6629  1.2713
13052TIP3   OH260570   5.148   6.436  15.991  0.4766 -0.0811  0.1103
13052TIP3    H160571   5.194   6.488  15.926 -1.4343  0.6804 -0.6935
13052TIP3    H260572   5.080   6.494  16.026 -1.2644 -1.7478 -0.2959
13053TIP3   OH260573   1.538   5.765  14.972 -0.0755  0.4756 -0.0332
13053TIP3    H160574   1.627   5.788  14.946 -0.5314  0.8046 -1.3990
13053TIP3    H260575   1.510   5.700  14.908 -0.5881 -0.1462  0.7948
13054TIP3   OH260576   6.587   0.488  13.696  0.3724  0.3017  0.1695
13054TIP3    H160577   6.580   0.498  13.790 -1.0292  0.5837  0.0493
13054TIP3    H260578   6.568   0.395  13.680 -0.5559  0.5049  0.0690
13055TIP3   OH260579   0.694   2.329   3.909 -0.2060 -0.8149 -0.0580
13055TIP3    H160580   0.709   2.278   3.830 -3.7533 -0.5410 -1.0928
13055TIP3    H260581   0.614   2.291   3.947  0.8551 -0.3211  2.9086
13056TIP3   OH260582   4.442   2.223  13.023  0.0743  0.1263  0.3873
13056TIP3    H160583   4.417   2.145  13.072 -2.0729  0.1267 -0.6117
13056TIP3    H260584   4.510   2.264  13.077 -2.1699  0.1806  3.4230
13057TIP3   OH260585   4.981   2.388   2.112 -0.0449 -0.3603  0.1951
13057TIP3    H160586   4.947   2.305   2.078 -1.0206  0.4622 -0.9263
13057TIP3    H260587   4.914   2.452   2.088 -0.1673  0.5047  2.5815
13058TIP3   OH260588   0.498   4.616  17.187  0.1580 -1.0646  0.1085
13058TIP3    H160589   0.561   4.665  17.134  0.6980 -1.0580  0.7338
13058TIP3    H260590   0.552   4.555  17.237 -0.4317 -1.7446 -0.0609
13059TIP3   OH260591   4.186   0.492  12.665  0.1377 -1.0496 -0.3378
13059TIP3    H160592   4.093   0.487  12.643 -0.1466 -0.8312  0.7605
13059TIP3    H260593   4.190   0.475  12.759  1.1929 -0.8808 -0.3359
13060TIP3   OH260594   3.518   6.126  14.504  0.0120  0.0928 -0.3041
13060TIP3    H160595   3.596   6.169  14.470 -0.1891 -0.1519 -1.0915
13060TIP3    H260596   3.476   6.088  14.427 -0.0979 -1.0600  0.2989
13061TIP3   OH260597   0.937   4.167   0.392  0.7108 -0.0444  0.2336
13061TIP3    H160598   0.989   4.204   0.463 -0.0425  0.2807  0.6243
13061TIP3    H260599   0.962   4.218   0.315  0.7586  0.3001  0.4761
13062TIP3   OH260600   1.246   2.136  11.498  0.2344  0.2335  0.1812
13062TIP3    H160601   1.228   2.137  11.404  0.7905  0.2376  0.0664
13062TIP3    H260602   1.341   2.152  11.504 -0.0556  2.0298  0.8138
13063TIP3   OH260603   2.826   0.210   5.845  0.0699  0.0046  0.7048
13063TIP3    H160604   2.858   0.295   5.814 -0.2271 -1.0026 -2.7891
13063TIP3    H260605   2.887   0.147   5.807 -0.6762 -1.4416  1.8394
13064TIP3   OH260606   5.488   3.530   5.016 -0.0749 -0.0473 -0.2005
13064TIP3    H160607   5.438   3.453   5.045  1.9169 -1.2562  0.1925
13064TIP3    H260608   5.550   3.495   4.952  0.6204  1.3325 -0.3076
13065TIP3   OH260609   2.476   2.326   6.581  0.3513 -0.0844 -0.6503
13065TIP3    H160610   2.474   2.295   6.672 -0.2891  0.0914 -0.5985
13065TIP3    H260611   2.533   2.264   6.536 -0.2988 -0.8875 -0.3813
13066TIP3   OH260612   2.637   3.248  12.814 -0.0382 -0.1320 -0.1588
13066TIP3    H160613   2.637   3.171  12.870 -0.2931 -0.2389 -0.3042
13066TIP3    H260614   2.546   3.276  12.812 -0.4514 -1.3705 -2.2084
13067TIP3   OH260615   0.205   0.000   2.196 -0.5927  0.3132 -0.0748
13067TIP3    H160616   0.158   0.069   2.148 -2.1883  0.3333  1.4413
13067TIP3    H260617   0.143  -0.072   2.202  0.2367 -0.3832  0.4063
13068TIP3   OH260618   1.302   5.487   0.821 -0.3729 -0.2154 -0.3583
13068TIP3    H160619   1.282   5.505   0.913  0.3674  0.4241 -0.3175
13068TIP3    H260620   1.396   5.501   0.813 -0.7371  1.9050 -1.6776
13069TIP3   OH260621   6.491   5.911   4.934 -0.8727 -0.4633 -0.1226
13069TIP3    H160622   6.481   5.958   4.851  0.4453  3.4946  1.6937
13069TIP3    H260623   6.402   5.906   4.970 -1.1005  0.3675 -0.5452
13070TIP3   OH260624   5.179   0.899   1.445  0.5149 -0.5135 -0.2422
13070TIP3    H160625   5.093   0.902   1.486 -0.4155  0.8381 -2.1708
13070TIP3    H260626   5.162   0.908   1.351  2.8193  0.9662 -0.5895
13071TIP3   OH260627   3.763   6.706   4.844 -0.3197 -0.2869  0.4524
13071TIP3    H160628   3.702   6.666   4.782 -0.7187 -0.4489  0.9424
13071TIP3    H260629   3.707   6.746   4.910  0.0098  2.2673 -0.7050
13072TIP3   OH260630   5.727   4.867   3.982  0.1449 -0.3092  0.0055
13072TIP3    H160631   5.822   4.869   3.967 -0.0824 -0.7359 -1.6691
13072TIP3    H260632   5.717   4.893   4.074  1.8800 -0.3180  0.2343
13073TIP3   OH260633   3.580   0.197   0.535 -0.0074 -0.0878  0.0110
13073TIP3    H160634   3.513   0.265   0.543  0.1965  0.2780 -1.1157
13073TIP3    H260635   3.662   0.242   0.559  0.0025 -0.1699  0.1265
13074TIP3   OH260636   0.391   6.187  11.787  0.2240 -0.3274  0.5854
13074TIP3    H160637   0.338   6.157  11.713  0.7758  0.4053 -0.1264
13074TIP3    H260638   0.467   6.228  11.746  1.0732 -0.8763  1.5810
13075TIP3   OH260639   0.810   5.896   2.771 -0.1817 -0.3478 -0.1741
13075TIP3    H160640   0.878   5.837   2.738 -1.0588 -0.7149 -1.3992
13075TIP3    H260641   0.858   5.974   2.799  1.1604 -2.0233  2.6592
13076TIP3   OH260642   0.287   0.738   3.699 -0.3776 -0.1900 -0.5071
13076TIP3    H160643   0.361   0.748   3.638 -0.4009 -1.4154 -0.7552
13076TIP3    H260644   0.219   0.796   3.663  0.5420  1.1771 -0.1091
13077TIP3   OH260645   3.023   5.962   0.150 -0.7195  0.0958  0.4291
13077TIP3    H160646   2.977   5.898   0.204 -0.7105 -0.5802 -0.3487
13077TIP3    H260647   2.991   6.047   0.181 -0.5208 -0.2599  1.6643
13078TIP3   OH260648   6.626   2.995   3.456 -0.3228  0.2074 -0.8148
13078TIP3    H160649   6.550   2.999   3.515  0.3238 -0.5626  0.1050
13078TIP3    H260650   6.669   3.079   3.466 -0.2933  0.1326 -0.2798
13079TIP3   OH260651   4.990   5.738  11.358 -0.0006  0.3664  0.2332
13079TIP3    H160652   5.026   5.776  11.438  0.6391  1.8265 -0.7055
13079TIP3    H260653   5.051   5.668  11.335 -1.4951 -1.7509  2.2869
13080TIP3   OH260654   0.151   0.341   5.406 -0.5547  0.0168  0.0551
13080TIP3    H160655   0.127   0.398   5.333  2.7203 -0.7657 -1.8258
13080TIP3    H260656   0.082   0.274   5.408 -0.3481 -0.4087 -2.9239
13081TIP3   OH260657   2.831   0.472  14.705 -0.3064 -0.4286  0.3544
13081TIP3    H160658   2.895   0.541  14.688 -0.5066 -0.6786 -1.7244
13081TIP3    H260659   2.756   0.494  14.649 -0.7510 -1.8177  0.3539
13082TIP3   OH260660   6.320   0.430   0.013  0.3255 -0.1637 -0.1037
13082TIP3    H160661   6.289   0.377   0.086  0.8471 -0.6144 -0.2070
13082TIP3    H260662   6.411   0.405   0.001  0.6311  0.8739 -0.0489
13083TIP3   OH260663   1.354   6.106   3.407 -0.4218 -0.0363  0.0413
13083TIP3    H160664   1.431   6.162   3.422 -0.7238  0.6357 -0.8165
13083TIP3    H260665   1.284   6.148   3.456 -0.6798  0.4264 -0.7082
13084TIP3   OH260666   5.400   3.068   3.555 -0.0551  0.0303 -0.0776
13084TIP3    H160667   5.439   3.155   3.554 -0.7648  0.3643  0.0704
13084TIP3    H260668   5.319   3.079   3.606  0.7924 -1.1397  1.6243
13085TIP3   OH260669   2.635   0.429   0.405 -0.0374  0.2581 -1.0093
13085TIP3    H160670   2.730   0.436   0.400 -0.0382  0.3393 -0.8958
13085TIP3    H260671   2.603   0.509   0.364 -0.0524  0.5351 -0.4536
13086TIP3   OH260672   0.225   0.116   6.267  0.4585 -0.8344 -0.1028
13086TIP3    H160673   0.172   0.162   6.331 -2.6210 -1.1317 -2.2500
13086TIP3    H260674   0.269   0.047   6.317  0.6290  0.8348  2.1478
13087TIP3   OH260675   5.198   2.748  13.610 -0.1265 -0.3774 -0.0302
13087TIP3    H160676   5.126   2.775  13.553 -0.8999 -0.7080  0.7652
13087TIP3    H260677   5.206   2.654  13.596  0.6914 -0.2306 -0.6902
13088TIP3   OH260678   5.840   1.534   2.434  0.2214 -0.0137 -0.3471
13088TIP3    H160679   5.866   1.619   2.470 -0.1495  0.2883 -0.7929
13088TIP3    H260680   5.923   1.486   2.426  0.6335  0.8582 -1.5375
13089TIP3   OH260681   2.368   6.602   0.931 -0.6504 -0.2813  0.9400
13089TIP3    H160682   2.291   6.601   0.874  0.2514  0.5563 -0.3683
13089TIP3    H260683   2.352   6.674   0.992 -0.9616 -0.2069  0.7725
13090TIP3   OH260684   3.739   2.265  13.446  0.5382  0.4073 -0.1474
13090TIP3    H160685   3.773   2.220  13.369 -0.8703 -0.4799 -0.2725
13090TIP3    H260686   3.740   2.358  13.421 -0.2192  0.1081 -1.3786
13091TIP3   OH260687   6.600   6.580   3.143  0.5199 -0.4918 -0.2880
13091TIP3    H160688   6.559   6.515   3.086  0.3444 -1.3130  0.7442
13091TIP3    H260689   6.546   6.658   3.132 -0.3281 -1.0498 -0.2261
13092TIP3   OH260690   6.451   3.349   2.826 -0.2373  0.0621  0.2972
13092TIP3    H160691   6.435   3.262   2.790 -0.0188  0.0942  0.1200
13092TIP3    H260692   6.512   3.334   2.899 -0.8299 -0.0249  0.7766
13093TIP3   OH260693   5.903   0.414  10.913 -0.4374 -0.3636  0.0460
13093TIP3    H160694   5.952   0.493  10.935 -0.3881 -1.0040  2.4344
13093TIP3    H260695   5.811   0.441  10.912 -0.2992  0.1978 -1.5863
13094TIP3   OH260696   6.517   4.030  11.393  0.2132 -0.2725  0.3920
13094TIP3    H160697   6.582   4.054  11.459  0.7455  0.3577 -0.3345
13094TIP3    H260698   6.451   3.981  11.441 -0.7818  2.3401  1.9318
13095TIP3   OH260699   3.961   0.922  11.505  0.4567  0.3842 -0.0441
13095TIP3    H160700   3.909   0.943  11.427 -0.4607  1.9854  0.9545
13095TIP3    H260701   4.046   0.962  11.489 -0.8043  3.8560  1.1809
13096TIP3   OH260702   1.667   4.550   2.953 -0.0886  0.2265 -0.1219
13096TIP3    H160703   1.702   4.638   2.939  0.5244 -0.3179 -2.4856
13096TIP3    H260704   1.615   4.532   2.875  0.7894 -1.9427 -0.2746
13097TIP3   OH260705   2.131   6.335   5.898  0.5330 -0.2722 -0.0728
13097TIP3    H160706   2.202   6.318   5.836 -0.0740  0.6695 -1.0407
13097TIP3    H260707   2.063   6.379   5.847 -1.5294 -2.6517  0.3905
13098TIP3   OH260708   3.187   5.922   2.948 -0.9162  0.1602 -0.4595
13098TIP3    H160709   3.215   6.001   2.901 -1.2621  0.2879 -0.4566
13098TIP3    H260710   3.147   5.867   2.881  1.5756 -1.1612 -0.9877
13099TIP3   OH260711   1.096   2.568  13.922 -0.4094 -0.5501  0.4499
13099TIP3    H160712   1.130   2.479  13.920  2.1569  0.3709 -0.8109
13099TIP3    H260713   1.172   2.624  13.908 -1.8787  1.8968  1.4698
13100TIP3   OH260714   0.907   4.918  13.786  0.3230  0.2580  0.4214
13100TIP3    H160715   0.855   4.932  13.707 -0.6564 -0.6818  0.8692
13100TIP3    H260716   0.911   4.823  13.796 -0.2501  0.3564  1.9185
13101TIP3   OH260717   6.154   1.881  14.194  0.1512 -0.1196 -0.2665
13101TIP3    H160718   6.248   1.893  14.206  0.3674 -1.4242 -0.5160
13101TIP3    H260719   6.133   1.935  14.118  0.4088  1.2943  0.6218
13102TIP3   OH260720   5.328   2.883  17.000 -0.7814 -0.3361 -0.1404
13102TIP3    H160721   5.277   2.895  17.080 -1.0711 -1.2155 -0.1830
13102TIP3    H260722   5.367   2.969  16.983 -2.8190  0.5768 -0.5007
13103TIP3   OH260723   4.775   0.512  16.842  0.2010 -0.5880  0.2539
13103TIP3    H160724   4.808   0.437  16.792  2.0598  1.1657 -1.3518
13103TIP3    H260725   4.699   0.542  16.792  0.8208 -0.0836 -0.4170
13104TIP3   OH260726   4.926   6.148   0.738 -0.1180 -0.5279 -0.0751
13104TIP3    H160727   4.971   6.219   0.785 -0.1696 -0.5421 -0.0059
13104TIP3    H260728   4.991   6.078   0.732  0.4589  0.0770 -1.4580
13105TIP3   OH260729   4.865   1.154   0.164 -0.0151  0.2485  0.6131
13105TIP3    H160730   4.877   1.060   0.180 -0.2085  0.6482  3.8715
13105TIP3    H260731   4.911   1.196   0.237  1.8024  2.8368 -1.8150
13106TIP3   OH260732   1.170   0.063  12.352  0.3067  0.1932 -0.4057
13106TIP3    H160733   1.212   0.123  12.290  1.0230  1.0488  0.8540
13106TIP3    H260734   1.192  -0.024  12.321  1.4998  0.6203 -0.7977
13107TIP3   OH260735   3.546   1.495  13.746 -0.4239  0.5282 -0.0062
13107TIP3    H160736   3.566   1.421  13.689  0.7518  0.8360 -0.0093
13107TIP3    H260737   3.504   1.559  13.688  0.3739  0.6645 -0.4398
13108TIP3   OH260738   3.971   2.810   5.492  0.2912  0.0790 -0.1070
13108TIP3    H160739   3.933   2.892   5.462 -1.3564 -0.7592 -0.3910
13108TIP3    H260740   3.913   2.742   5.458  0.8241 -1.1327  1.2952
13109TIP3   OH260741   2.417   2.571  15.758 -0.3053  0.0015 -0.0695
13109TIP3    H160742   2.392   2.640  15.696  1.7874 -0.9996 -2.1929
13109TIP3    H260743   2.442   2.618  15.837  2.4624  1.9539 -1.9079
13110TIP3   OH260744   3.924   4.016   5.673 -0.1752  0.2503  0.4225
13110TIP3    H160745   3.875   3.969   5.606  0.8857 -0.2207 -0.0398
13110TIP3    H260746   3.871   4.006   5.753 -1.7485  1.3188 -0.4350
13111TIP3   OH260747   3.288   3.732   2.087 -0.2807  0.3357 -0.2542
13111TIP3    H160748   3.357   3.692   2.033  0.5284  0.9767  0.2729
13111TIP3    H260749   3.221   3.664   2.093  0.2052 -0.2289 -0.9741
13112TIP3   OH260750   2.798   2.859  12.084 -0.0647  0.3822 -0.2426
13112TIP3    H160751   2.885   2.877  12.121 -0.4475  1.8833 -0.0058
13112TIP3    H260752   2.737   2.879  12.154 -0.6021 -1.1850 -0.2360
13113TIP3   OH260753   2.049   6.527  16.868  0.2248  0.1384  0.2606
13113TIP3    H160754   2.112   6.599  16.859  1.4890 -0.8886  0.4430
13113TIP3    H260755   2.096   6.462  16.920 -1.3790 -0.2707  1.2303
13114TIP3   OH260756   6.625   0.702  12.551 -0.9764 -0.0361 -0.1046
13114TIP3    H160757   6.609   0.754  12.630 -0.8878  0.5471 -0.4655
13114TIP3    H260758   6.708   0.736  12.517 -1.0463 -0.2477 -0.4789
13115TIP3   OH260759   0.629   2.590  16.288 -0.2939 -0.5014  0.6917
13115TIP3    H160760   0.614   2.640  16.369  2.7129  0.7292  0.6264
13115TIP3    H260761   0.683   2.648  16.235  1.2544 -2.8817 -0.4616
13116TIP3   OH260762   1.887   1.119  13.510 -0.4531  0.2642 -0.0549
13116TIP3    H160763   1.808   1.173  13.508  0.2968  1.4448 -2.2247
13116TIP3    H260764   1.856   1.029  13.500 -1.5793  0.5674  0.5785
13117TIP3   OH260765   0.438   1.307   5.507  0.5592 -0.2722  0.5492
13117TIP3    H160766   0.476   1.349   5.583 -1.9877 -0.7248  2.1787
13117TIP3    H260767   0.356   1.268   5.538 -1.0009  0.1497 -2.5439
13118TIP3   OH260768   6.122   3.604  16.754  0.1456 -0.1934 -0.0084
13118TIP3    H160769   6.213   3.627  16.738  0.0937 -1.4691 -2.6913
13118TIP3    H260770   6.092   3.566  16.671 -3.5264  2.3012 -0.0522
13119TIP3   OH260771   1.383   4.965  16.513  0.0612 -0.7113  0.0450
13119TIP3    H160772   1.465   4.923  16.535 -0.2860 -0.3865  2.1782
13119TIP3    H260773   1.324   4.944  16.586 -0.7247  1.7586  0.2244
13120TIP3   OH260774   6.451   2.431   1.665 -0.2013 -0.5926 -0.2483
13120TIP3    H160775   6.469   2.497   1.598 -1.1060 -0.6298 -0.5511
13120TIP3    H260776   6.393   2.475   1.727  0.6502 -0.5528  0.5315
13121TIP3   OH260777   1.478   6.286   3.622  0.8253 -0.1452  0.0673
13121TIP3    H160778   1.562   6.307   3.663  0.0559  3.2902  0.2044
13121TIP3    H260779   1.416   6.283   3.694  0.5694 -1.2963 -0.1805
13122TIP3   OH260780   4.240   5.316  14.160 -0.6578 -0.0820 -0.1319
13122TIP3    H160781   4.185   5.282  14.089  0.3621  0.3350 -1.1485
13122TIP3    H260782   4.298   5.380  14.118  0.1755 -0.0363  1.0230
13123TIP3   OH260783   5.312   0.879  11.773 -0.5229 -0.0041 -0.6599
13123TIP3    H160784   5.342   0.844  11.689 -0.4432 -0.9712 -0.2436
13123TIP3    H260785   5.222   0.906  11.757 -0.9399 -1.3600 -0.7595
13124TIP3   OH260786   4.037   6.359  14.317  0.2000 -0.2988 -0.2497
13124TIP3    H160787   4.101   6.306  14.269  0.6398 -0.6253  0.6905
13124TIP3    H260788   4.077   6.374  14.402 -1.5227 -1.5915  0.8353
13125TIP3   OH260789   4.940   2.441  11.674  0.0328  0.0890  0.2771
13125TIP3    H160790   4.942   2.352  11.639  0.3604  0.7727 -1.5312
13125TIP3    H260791   4.999   2.438  11.749  0.0049 -1.2210  0.2785
13126TIP3   OH260792   0.233   2.051  11.347  0.1692 -0.0809  0.2048
13126TIP3    H160793   0.161   2.091  11.395  0.7793 -0.1438  1.2178
13126TIP3    H260794   0.294   2.123  11.331 -0.2176  0.0284 -0.8828
13127TIP3   OH260795   3.771   0.622  14.420 -0.1790 -0.2073  0.2908
13127TIP3    H160796   3.812   0.641  14.504  1.4406  0.2772 -0.5619
13127TIP3    H260797   3.790   0.529  14.404  0.7477  0.0445 -0.1561
13128TIP3   OH260798   1.361   3.882  14.500  0.0085  0.4484 -0.2568
13128TIP3    H160799   1.379   3.839  14.584  0.4593 -1.4971 -1.2991
13128TIP3    H260800   1.266   3.877  14.490  0.0255  0.0298 -0.1988
13129TIP3   OH260801   0.841   1.483  14.301  0.2913 -0.3385  0.1470
13129TIP3    H160802   0.915   1.515  14.249 -0.3348  1.3498  0.2366
13129TIP3    H260803   0.829   1.393  14.272  1.4456 -0.1777 -0.9337
13130TIP3   OH260804   1.216   4.885  16.712  0.6389 -0.2334  0.2982
13130TIP3    H160805   1.189   4.806  16.758 -1.5345 -0.1131 -0.6292
13130TIP3    H260806   1.136   4.938  16.707  1.1066  0.3757 -2.2774
13131TIP3   OH260807   6.706   3.600  12.272 -0.3233  0.0038 -0.4762
13131TIP3    H160808   6.724   3.692  12.289  0.0920 -0.1538 -0.0265
13131TIP3    H260809   6.722   3.556  12.356  1.1901 -0.7150 -1.0951
13132TIP3   OH260810   5.664   3.501  15.220 -0.8519 -0.3354 -0.5303
13132TIP3    H160811   5.591   3.463  15.172 -0.5908  1.6907 -2.6788
13132TIP3    H260812   5.629   3.582  15.257  0.1078  0.3072 -0.9993
13133TIP3   OH260813   6.733   6.332  14.072  0.4393  0.0965  0.5172
13133TIP3    H160814   6.777   6.362  14.152  0.9543 -1.7917  0.9985
13133TIP3    H260815   6.650   6.378  14.071  0.4700  0.2460  2.1054
13134TIP3   OH260816   2.465   5.408  14.041  0.3151 -0.2093 -0.0708
13134TIP3    H160817   2.412   5.396  13.963  1.6354  1.4683 -1.3260
13134TIP3    H260818   2.402   5.416  14.113 -1.5338  4.7346 -1.8429
13135TIP3   OH260819   6.112   0.933   4.330  0.3346  0.0454 -0.2028
13135TIP3    H160820   6.207   0.942   4.337  0.4665 -1.7019  0.8590
13135TIP3    H260821   6.096   0.911   4.238  1.0884 -0.8632 -0.1287
13136TIP3   OH260822   1.315   2.183   5.656  0.3414 -0.3009 -0.0263
13136TIP3    H160823   1.337   2.248   5.723  0.8854 -0.2222 -0.2777
13136TIP3    H260824   1.378   2.199   5.586 -0.1889 -0.4185 -0.5377
13137TIP3   OH260825   5.619   3.400   6.106 -0.2248 -0.4681 -0.6397
13137TIP3    H160826   5.544   3.394   6.166  1.1780 -1.4811  1.0822
13137TIP3    H260827   5.694   3.419   6.163  1.7832 -4.7364 -1.4945
13138TIP3   OH260828   6.580   4.418  15.718 -0.3519 -0.9774 -0.0907
13138TIP3    H160829   6.561   4.509  15.696  0.8330 -0.5800  0.4507
13138TIP3    H260830   6.495   4.382  15.744 -0.5996  0.4194  1.2072
13139TIP3   OH260831   3.319   2.468   4.631 -0.0418 -0.5205  0.4689
13139TIP3    H160832   3.349   2.426   4.550  1.0712  1.1809 -0.0535
13139TIP3    H260833   3.372   2.428   4.700  0.9752 -0.0277 -0.0100
13140TIP3   OH260834   2.240   5.516  12.451 -0.1557 -0.6180 -0.1036
13140TIP3    H160835   2.157   5.523  12.404 -0.8250 -3.9427  0.3334
13140TIP3    H260836   2.306   5.504  12.382 -0.1853  0.6828 -0.3864
13141TIP3   OH260837   4.657   4.488   1.367 -0.4624  0.7043 -0.1321
13141TIP3    H160838   4.700   4.570   1.391 -0.6694  0.6974  0.2706
13141TIP3    H260839   4.582   4.514   1.314  0.1484  0.7060 -1.0276
13142TIP3   OH260840   3.993   2.369   0.388  0.1220 -0.1913  0.6516
13142TIP3    H160841   3.952   2.424   0.454 -1.6785 -1.3150  0.5414
13142TIP3    H260842   4.004   2.284   0.431 -2.1463 -1.2902 -0.7521
13143TIP3   OH260843   6.385   1.282   2.191  0.1269 -0.1543 -0.2319
13143TIP3    H160844   6.444   1.311   2.260  0.3674  0.8742 -0.8467
13143TIP3    H260845   6.317   1.349   2.188 -0.2421 -0.5407 -0.5449
13144TIP3   OH260846   4.792   4.921  11.767 -0.2502 -0.1382 -0.6025
13144TIP3    H160847   4.703   4.935  11.736 -0.4152  0.8501  0.2740
13144TIP3    H260848   4.787   4.844  11.823 -0.6896  0.2997 -0.0329
13145TIP3   OH260849   5.621   0.365  12.107  0.1850  0.1147 -0.1540
13145TIP3    H160850   5.546   0.352  12.049 -1.0726  0.8179  1.2548
13145TIP3    H260851   5.625   0.460  12.120  0.4951 -0.0305  0.8479
13146TIP3   OH260852   5.738   1.262  16.063 -0.2361  0.4833  0.6967
13146TIP3    H160853   5.791   1.185  16.039 -0.8768 -0.4459  2.1188
13146TIP3    H260854   5.777   1.334  16.013  0.8455 -0.6233 -0.1293
13147TIP3   OH260855   3.305   3.731  12.044  0.3963  0.0413 -0.2572
13147TIP3    H160856   3.386   3.736  11.994  0.0461 -2.1759 -1.1418
13147TIP3    H260857   3.239   3.771  11.987  0.2888 -1.0885 -0.9502
13148TIP3   OH260858   6.674   4.820   1.354  0.3732 -0.8694  0.0920
13148TIP3    H160859   6.683   4.865   1.438 -0.8996  0.1479 -0.2687
13148TIP3    H260860   6.635   4.886   1.296  2.1859 -1.2013 -1.6165
13149TIP3   OH260861   6.600   2.598   1.477  0.9805 -0.0213 -0.4951
13149TIP3    H160862   6.684   2.596   1.522  1.4983  0.2599 -1.4434
13149TIP3    H260863   6.580   2.691   1.465  0.0581 -0.0583  0.5822
13150TIP3   OH260864   6.071   1.293  11.872 -0.0527 -1.3733 -0.4713
13150TIP3    H160865   6.152   1.296  11.923  0.7234 -2.4811 -1.5779
13150TIP3    H260866   6.005   1.265  11.935  0.0211  1.2108  0.8749
13151TIP3   OH260867   5.873   1.630  15.171 -0.2778  0.0481 -0.0465
13151TIP3    H160868   5.809   1.657  15.105 -0.2780  0.3436  0.0765
13151TIP3    H260869   5.877   1.534  15.162  1.1297  0.2400 -1.7706
13152TIP3   OH260870   2.686   0.877  11.911  0.2488 -0.0896  0.0451
13152TIP3    H160871   2.734   0.821  11.973  0.2667 -0.4397 -0.2823
13152TIP3    H260872   2.753   0.928  11.867  0.1977  0.5709  0.7027
13153TIP3   OH260873   4.214   5.982   2.399 -0.1457  0.4263  0.7069
13153TIP3    H160874   4.193   6.010   2.488 -1.0213  1.6568  0.1333
13153TIP3    H260875   4.222   6.063   2.349 -0.2361 -0.2681 -0.4666
13154TIP3   OH260876   3.137   4.438   3.130 -0.0891 -0.0609  0.1228
13154TIP3    H160877   3.157   4.360   3.078 -0.3783  0.5029 -0.8476
13154TIP3    H260878   3.201   4.436   3.201 -1.3041 -2.2237  1.2577
13155TIP3   OH260879   5.881   3.690  13.354  0.2434 -0.1760 -0.1523
13155TIP3    H160880   5.886   3.648  13.439 -0.2034  1.7826  0.9072
13155TIP3    H260881   5.938   3.767  13.361 -0.2010  0.3032 -1.4203
13156TIP3   OH260882   6.221   3.268  13.053  0.1507  0.3045 -0.3775
13156TIP3    H160883   6.173   3.248  12.972  1.4443 -1.5813 -0.7501
13156TIP3    H260884   6.248   3.359  13.044 -1.4358  0.7424 -1.1327
13157TIP3   OH260885   2.634   3.789   2.130 -0.8376  0.1423 -0.6540
13157TIP3    H160886   2.641   3.713   2.072  0.1096 -0.9082  0.7685
13157TIP3    H260887   2.545   3.786   2.163 -0.4885 -1.0721  0.2737
13158TIP3   OH260888   3.109   1.162   2.233  0.6491  0.2125  0.2660
13158TIP3    H160889   3.016   1.158   2.212  0.6633 -1.0684  0.3910
13158TIP3    H260890   3.127   1.256   2.243 -0.4133  0.5336 -0.6711
13159TIP3   OH260891   1.217   5.655   0.602  0.1225  0.0237  0.0505
13159TIP3    H160892   1.246   5.602   0.528  1.7019  0.4685  0.3104
13159TIP3    H260893   1.247   5.606   0.679  1.8872  1.3758  0.2862
13160TIP3   OH260894   0.423   1.620   6.340 -0.9016 -0.4282 -0.5431
13160TIP3    H160895   0.328   1.616   6.350 -0.9142  1.5751  0.6035
13160TIP3    H260896   0.447   1.708   6.369  1.3666 -1.0447 -0.3315
13161TIP3   OH260897   2.095   5.705  15.710  0.0828  0.3421 -0.1057
13161TIP3    H160898   2.054   5.619  15.717 -1.0137  0.9024  0.4816
13161TIP3    H260899   2.027   5.767  15.736  1.7216  1.2194  2.4289
13162TIP3   OH260900   4.681   2.238   3.502  1.0036 -0.0265  0.1266
13162TIP3    H160901   4.759   2.293   3.510  0.4511  1.2967 -2.5277
13162TIP3    H260902   4.660   2.238   3.409 -1.6777 -1.0393  0.6206
13163TIP3   OH260903   2.749   1.035  14.466 -0.2736  0.1567  0.1092
13163TIP3    H160904   2.759   0.962  14.406  1.0088 -0.8839  1.5033
13163TIP3    H260905   2.725   1.109  14.411  1.9726 -0.4643 -1.8660
13164TIP3   OH260906   6.504   6.641   3.920 -0.3031  0.2556  0.0224
13164TIP3    H160907   6.520   6.626   3.827 -0.7794  2.1112 -0.4074
13164TIP3    H260908   6.418   6.603   3.936  0.5230 -1.6420  0.1618
13165TIP3   OH260909   4.942   0.285  12.363  0.6167 -0.5238 -0.1489
13165TIP3    H160910   5.010   0.225  12.333  0.0831 -1.2885  0.1017
13165TIP3    H260911   4.988   0.365  12.388  1.2443 -0.4866 -1.3868
13166TIP3   OH260912   6.063   0.815   1.180  0.1295  0.0996  0.2743
13166TIP3    H160913   6.152   0.786   1.165 -0.0968 -0.1834 -0.5876
13166TIP3    H260914   6.009   0.757   1.127 -0.2575  2.6826 -2.4599
13167TIP3   OH260915   5.245   1.605  17.098  0.1997  0.8087  0.0756
13167TIP3    H160916   5.216   1.515  17.083  0.0139  0.8653  0.0945
13167TIP3    H260917   5.169   1.659  17.076  0.2277  0.9470  0.3107
13168TIP3   OH260918   6.632   0.228   5.358 -0.4740 -0.0004  0.2887
13168TIP3    H160919   6.586   0.241   5.276 -0.9349  0.3431  0.5951
13168TIP3    H260920   6.635   0.133   5.370 -1.6300 -0.0204  0.5518
13169TIP3   OH260921   0.580   3.870   0.078  0.2892  0.3132 -0.7070
13169TIP3    H160922   0.562   3.782   0.111 -0.1526  0.6619  0.0040
13169TIP3    H260923   0.657   3.899   0.127 -0.3237  0.8018 -0.0027
13170TIP3   OH260924   1.248   6.603   4.157 -0.1874 -0.3017 -0.1966
13170TIP3    H160925   1.309   6.628   4.088 -1.2775  0.9156 -0.7656
13170TIP3    H260926   1.303   6.593   4.235  1.0386 -1.5191 -1.1598
13171TIP3   OH260927   5.983   4.223  12.451  0.1656  0.2045 -0.1843
13171TIP3    H160928   5.986   4.142  12.400 -0.5719  0.0792 -0.0476
13171TIP3    H260929   5.889   4.244  12.458  0.2104  0.0016  1.4550
13172TIP3   OH260930   1.190   1.245   3.845  0.2192 -0.1330 -0.1622
13172TIP3    H160931   1.193   1.317   3.782  0.4387 -0.2176 -0.2488
13172TIP3    H260932   1.276   1.204   3.839 -0.0436 -0.6655 -0.4232
13173TIP3   OH260933   0.546   5.544  11.528 -1.1503 -0.2217 -0.0237
13173TIP3    H160934   0.532   5.459  11.486 -1.0241  0.1035 -0.7391
13173TIP3    H260935   0.537   5.608  11.457  2.8602  0.1172 -0.4274
13174TIP3   OH260936   2.355   6.230   4.262 -0.4476  0.6799  0.0849
13174TIP3    H160937   2.317   6.259   4.179 -1.6559  2.5489  1.2277
13174TIP3    H260938   2.292   6.166   4.296  0.7640 -1.2209 -1.0421
13175TIP3   OH260939   3.705   5.091   0.622 -0.8331 -0.1913  0.0916
13175TIP3    H160940   3.759   5.145   0.564 -1.6150  1.1931  0.6049
13175TIP3    H260941   3.765   5.026   0.658  0.1339  0.3135 -0.5823
13176TIP3   OH260942   0.490   6.063  16.445 -0.5377 -0.7222 -0.0680
13176TIP3    H160943   0.527   5.979  16.417 -0.8875 -0.3864 -1.6187
13176TIP3    H260944   0.566   6.112  16.477  0.1190 -0.6978 -1.5700
13177TIP3   OH260945   2.086   5.491  13.428 -0.0349 -0.0868 -0.1493
13177TIP3    H160946   2.167   5.531  13.458 -0.0503  0.7498 -1.1799
13177TIP3    H260947   2.046   5.556  13.369 -0.7985 -1.0038 -0.6890
13178TIP3   OH260948   6.288   5.736  13.231  1.4537  0.2137  0.1085
13178TIP3    H160949   6.255   5.820  13.199 -0.0154 -0.0761  0.8053
13178TIP3    H260950   6.376   5.756  13.265  1.2329  1.4037  0.0130
13179TIP3   OH260951   6.369   1.627   2.425 -0.3704 -0.6105  0.2900
13179TIP3    H160952   6.319   1.643   2.505 -1.0653 -2.2100  0.2184
13179TIP3    H260953   6.372   1.712   2.381  0.3605  0.3813  2.1678
13180TIP3   OH260954   6.382   0.519   1.497  0.5919 -0.0174  0.2574
13180TIP3    H160955   6.360   0.440   1.447 -0.6625  1.2416 -1.2971
13180TIP3    H260956   6.324   0.516   1.573  0.2475 -0.3719 -0.0159
13181TIP3   OH260957   1.081   2.984   4.409 -0.5461 -0.0337  0.1084
13181TIP3    H160958   1.124   3.015   4.489  1.6628 -2.7732  0.1167
13181TIP3    H260959   1.100   3.051   4.344 -0.7255  1.2932  1.3495
13182TIP3   OH260960   4.433   4.901   6.659 -0.1751  0.2920 -0.3094
13182TIP3    H160961   4.461   4.856   6.579 -0.2278 -0.3727  0.0445
13182TIP3    H260962   4.513   4.911   6.710 -0.4419 -0.9711  0.3851
13183TIP3   OH260963   1.612   6.241   5.536 -0.3999 -0.7858 -0.4134
13183TIP3    H160964   1.536   6.255   5.481 -0.6756  0.1753  0.1826
13183TIP3    H260965   1.629   6.327   5.576 -0.0119 -1.3666  0.7288
13184TIP3   OH260966   3.630   2.285   3.961 -0.3283 -0.3682  0.5305
13184TIP3    H160967   3.570   2.329   3.900  0.2341 -0.7768 -0.3513
13184TIP3    H260968   3.618   2.330   4.044 -1.9300 -0.5094  0.4030
13185TIP3   OH260969   2.507   4.215   4.580  0.3722  0.4636  0.0522
13185TIP3    H160970   2.480   4.288   4.524  0.1620 -0.3127 -0.9025
13185TIP3    H260971   2.431   4.199   4.636 -0.0256  0.2524 -0.5317
13186TIP3   OH260972   5.478   4.523   3.081 -0.0817 -0.0493  0.1196
13186TIP3    H160973   5.534   4.478   3.144  1.0822 -0.9470 -1.4600
13186TIP3    H260974   5.540   4.560   3.017 -1.2408 -0.3645 -1.2351
13187TIP3   OH260975   6.356   0.140   5.484 -0.4698 -0.0613 -0.3363
13187TIP3    H160976   6.276   0.166   5.530  1.2347  0.6513  2.4697
13187TIP3    H260977   6.385   0.220   5.440 -0.7653 -0.0416 -0.4971
13188TIP3   OH260978   1.714   2.959  15.556 -0.0781  0.1362 -0.2558
13188TIP3    H160979   1.640   2.900  15.546  0.3166 -0.7521  1.6025
13188TIP3    H260980   1.721   3.004  15.472 -1.6112 -1.0347 -1.0531
13189TIP3   OH260981   0.420   0.054  11.284 -0.9552  0.1378 -0.2935
13189TIP3    H160982   0.438   0.027  11.194  0.7053  1.6191 -0.4622
13189TIP3    H260983   0.329   0.028  11.299 -1.3462  0.0679 -2.4691
13190TIP3   OH260984   1.832   5.276   4.182  0.4254 -0.4879 -0.1299
13190TIP3    H160985   1.913   5.322   4.160 -0.0517  0.1163 -0.6563
13190TIP3    H260986   1.858   5.184   4.187  1.4097 -0.1665  1.0770
13191TIP3   OH260987   5.891   3.627  13.656  0.2716  0.4523 -0.3719
13191TIP3    H160988   5.908   3.539  13.690  1.3680  0.8752  0.2404
13191TIP3    H260989   5.973   3.674  13.672 -0.8110  2.0329  0.7243
13192TIP3   OH260990   3.628   5.959   3.893  0.0940 -0.2841 -0.4114
13192TIP3    H160991   3.687   5.883   3.890  2.4560  1.4861 -1.3129
13192TIP3    H260992   3.597   5.969   3.803  1.0830  0.7348 -0.6586
13193TIP3   OH260993   6.480   4.265  13.366 -0.2878  0.4461  0.1149
13193TIP3    H160994   6.457   4.301  13.280 -2.9122  1.9522  1.3306
13193TIP3    H260995   6.505   4.342  13.417  1.8742 -0.5021  0.6016
13194TIP3   OH260996   5.385   4.803  17.017  0.1969  0.4263 -0.0888
13194TIP3    H160997   5.461   4.841  17.061  0.1279 -1.2182  1.5702
13194TIP3    H260998   5.421   4.734  16.962  0.1329  1.4611 -1.4590
13195TIP3   OH260999   5.731   3.541   1.837 -0.4815 -0.0794 -0.3996
13195TIP3    H161000   5.718   3.579   1.750  2.1608  1.6414 -0.1544
13195TIP3    H261001   5.826   3.540   1.848 -0.7390 -0.7169  2.2800
13196TIP3   OH261002   0.934   6.231   3.959 -0.4324  0.4748  0.3639
13196TIP3    H161003   0.976   6.317   3.962  0.0073  0.3478 -1.4001
13196TIP3    H261004   0.927   6.205   4.051  1.1111  1.5714  0.8317
13197TIP3   OH261005   0.870   4.105  17.053 -0.3875  0.3105  0.3090
13197TIP3    H161006   0.851   4.039  16.987 -0.5541  2.0368 -1.4840
13197TIP3    H261007   0.963   4.096  17.071 -0.1309  0.3810 -0.8860
13198TIP3   OH261008   1.572   0.250  13.620  0.8134 -0.3725  0.3154
13198TIP3    H161009   1.487   0.211  13.603  1.4783 -1.3676 -0.8431
13198TIP3    H261010   1.584   0.314  13.550  0.8657  0.0548  0.7026
13199TIP3   OH261011   1.972   5.201   0.231 -0.3092  0.0581 -0.6119
13199TIP3    H161012   1.959   5.111   0.259 -2.3753 -0.4943 -3.0411
13199TIP3    H261013   2.033   5.195   0.157 -0.7192  0.6019 -1.0026
13200TIP3   OH261014   5.576   4.301  11.674 -0.2622 -0.4307  0.0512
13200TIP3    H161015   5.488   4.277  11.704 -0.4596  0.9361  0.6441
13200TIP3    H261016   5.563   4.380  11.622  0.7460  0.5693  1.2575
13201TIP3   OH261017   4.998   5.484  15.094 -0.7038  0.1444  0.0071
13201TIP3    H161018   5.058   5.558  15.108 -1.4487  1.0431 -1.3303
13201TIP3    H261019   4.932   5.494  15.164 -0.9463  0.9192 -0.3172
13202TIP3   OH261020   0.323   0.070  11.836 -0.1720 -0.1270 -0.2330
13202TIP3    H161021   0.298  -0.021  11.852  0.0248 -0.4065 -1.4216
13202TIP3    H261022   0.379   0.066  11.759 -0.2578  1.0209 -0.3695
13203TIP3   OH261023   0.681   0.516  10.687  0.0208  0.1836 -0.0536
13203TIP3    H161024   0.710   0.434  10.729 -0.4182 -0.1008 -0.2962
13203TIP3    H261025   0.718   0.585  10.741  1.0160 -0.1695 -0.2614
13204TIP3   OH261026   0.479   5.172   3.850 -0.2544  0.0523  0.1704
13204TIP3    H161027   0.511   5.241   3.793 -1.0701  0.4099  0.1351
13204TIP3    H261028   0.513   5.195   3.937  0.7862 -0.3655 -0.1035
13205TIP3   OH261029   2.976   5.669  11.430  0.0521  0.5126 -0.0999
13205TIP3    H161030   3.058   5.706  11.463  0.0555  0.6858 -0.2967
13205TIP3    H261031   2.908   5.727  11.465 -0.1217 -0.5552  1.3925
13206TIP3   OH261032   4.937   2.160  10.779 -0.4957  0.2354  0.6015
13206TIP3    H161033   4.992   2.139  10.704 -0.5946  0.3633  0.4912
13206TIP3    H261034   4.848   2.167  10.742 -0.5978 -0.0515  0.7900
13207TIP3   OH261035   3.692   0.819   4.635 -0.4932  0.1362 -0.0174
13207TIP3    H161036   3.655   0.750   4.690  1.5280  0.1159  1.4239
13207TIP3    H261037   3.760   0.776   4.584 -0.2643  0.7461 -0.2463
13208TIP3   OH261038   6.172   3.917  15.812  0.8100  0.0031 -0.5523
13208TIP3    H161039   6.112   3.961  15.873  0.3261 -0.8730 -0.3774
13208TIP3    H261040   6.147   3.825  15.816  1.5643 -0.2414 -1.1877
13209TIP3   OH261041   2.048   3.635   5.357  0.4096  0.1356  0.1722
13209TIP3    H161042   2.120   3.590   5.401  0.3906 -1.0303 -0.9305
13209TIP3    H261043   2.082   3.655   5.270 -0.9042 -1.3550 -0.7248
13210TIP3   OH261044   1.080   4.893  10.478 -0.5105  0.2471 -0.4691
13210TIP3    H161045   1.142   4.827  10.507 -0.6001  0.3603 -0.0166
13210TIP3    H261046   1.008   4.843  10.440 -0.5120  0.0912 -0.2619
13211TIP3   OH261047   1.136   3.969  15.772  0.5766  0.4449  0.1316
13211TIP3    H161048   1.142   3.950  15.679  1.8987 -0.3219  0.3392
13211TIP3    H261049   1.049   3.940  15.798 -0.2803  1.8212 -1.0896
13212TIP3   OH261050   6.671   0.979  14.067 -0.0778 -0.5531  0.1194
13212TIP3    H161051   6.593   0.948  14.020 -0.0667 -0.9657  0.3627
13212TIP3    H261052   6.665   0.937  14.153  0.3233 -0.4504  0.1998
13213TIP3   OH261053   3.327   4.355  15.153  0.0791  0.7225  0.2600
13213TIP3    H161054   3.297   4.382  15.240 -0.7415 -0.6125  0.4135
13213TIP3    H261055   3.423   4.351  15.162 -0.0315 -0.1173  1.3424
13214TIP3   OH261056   1.283   1.484   1.567 -0.2112  0.0575  0.0117
13214TIP3    H161057   1.214   1.442   1.516 -0.1936  1.7412 -1.5301
13214TIP3    H261058   1.332   1.411   1.605 -1.5924 -1.2245 -0.5459
13215TIP3   OH261059   5.256   6.707  10.489 -0.2692  0.0272  0.5102
13215TIP3    H161060   5.251   6.801  10.502  1.8650  0.2659 -0.0722
13215TIP3    H261061   5.194   6.671  10.553  0.0639  1.7392  1.8882
13216TIP3   OH261062   6.594   5.728  16.539  0.2773  0.5336 -0.1351
13216TIP3    H161063   6.589   5.810  16.588  1.3019  0.3923  0.2316
13216TIP3    H261064   6.641   5.669  16.597  0.2521 -0.0765 -0.7255
13217TIP3   OH261065   1.701   4.405  16.030 -0.4451  0.1343 -0.0607
13217TIP3    H161066   1.734   4.316  16.014 -2.7447 -0.6763 -0.6236
13217TIP3    H261067   1.665   4.433  15.946 -1.3006  0.9061  0.5452
13218TIP3   OH261068   4.733   4.694   6.523  1.1114  0.0939 -0.0432
13218TIP3    H161069   4.650   4.713   6.478  0.2443 -1.3395  0.8863
13218TIP3    H261070   4.777   4.779   6.529 -0.4952  0.9655 -0.1622
13219TIP3   OH261071   1.958   2.223   2.349 -0.5633 -0.1832  0.1614
13219TIP3    H161072   1.923   2.290   2.290 -0.9698  0.4264  1.0636
13219TIP3    H261073   1.885   2.162   2.361 -1.5669  1.3205  2.3873
13220TIP3   OH261074   4.639   4.340  15.676  0.5878 -0.0932  0.1308
13220TIP3    H161075   4.624   4.246  15.664 -0.4110  0.1814 -0.9128
13220TIP3    H261076   4.677   4.369  15.594  0.3699  0.5176  0.2423
13221TIP3   OH261077   0.588   1.855  13.181 -0.0413 -0.0773 -0.2071
13221TIP3    H161078   0.501   1.877  13.215  1.5847  0.5186  4.3132
13221TIP3    H261079   0.609   1.770  13.221  1.4843 -0.2022 -1.1667
13222TIP3   OH261080   0.430   2.886  14.870 -0.0058 -0.2485  0.3054
13222TIP3    H161081   0.462   2.816  14.926  1.4383  0.7091  0.7424
13222TIP3    H261082   0.481   2.877  14.789 -2.1084 -1.6570 -0.9528
13223TIP3   OH261083   4.583   5.914   0.916  0.1499 -0.2186  0.0346
13223TIP3    H161084   4.586   6.009   0.917  1.9607 -0.1732 -1.7668
13223TIP3    H261085   4.644   5.887   0.985  1.2982  0.0146 -0.8440
13224TIP3   OH261086   2.966   1.205   3.403 -0.2984 -0.3170 -0.6541
13224TIP3    H161087   2.907   1.196   3.477  0.7185 -1.1634  0.0854
13224TIP3    H261088   3.024   1.278   3.426 -0.6184  0.0834 -1.0838
13225TIP3   OH261089   1.574   1.752   4.375 -0.2980  0.2486 -0.0972
13225TIP3    H161090   1.606   1.829   4.422 -1.1590  0.5982 -0.0670
13225TIP3    H261091   1.520   1.706   4.439 -0.0194 -0.2292 -0.2053
13226TIP3   OH261092   0.018   4.729   3.709  0.2511  0.6052  0.6917
13226TIP3    H161093  -0.038   4.801   3.682  0.3697  0.6030  0.4340
13226TIP3    H261094   0.107   4.763   3.700  0.2875  0.6878  1.3284
13227TIP3   OH261095   6.416   5.130  15.912  0.4620  0.2066  0.3590
13227TIP3    H161096   6.344   5.179  15.872 -0.0461 -1.0893 -0.3671
13227TIP3    H261097   6.387   5.116  16.003  0.3245  0.7001  0.3920
13228TIP3   OH261098   6.602   6.018  15.740 -0.0966 -0.1252  0.4451
13228TIP3    H161099   6.693   6.008  15.768 -0.2238 -1.6670  0.3826
13228TIP3    H261100   6.578   6.106  15.768  0.9770 -0.2009  1.7177
13229TIP3   OH261101   2.438   0.127  13.776 -0.5523  0.4103  0.1070
13229TIP3    H161102   2.406   0.109  13.687 -0.3987  1.2694 -0.1258
13229TIP3    H261103   2.464   0.219  13.774 -0.8898  0.5390  1.1449
13230TIP3   OH261104   5.386   3.180   4.447 -0.7875 -0.4096  0.0605
13230TIP3    H161105   5.445   3.105   4.438 -1.6500 -1.0939 -0.0030
13230TIP3    H261106   5.332   3.160   4.523 -0.6464  0.4220  0.3902
13231TIP3   OH261107   2.035   3.999   3.675 -0.2091  0.3504 -0.3475
13231TIP3    H161108   1.980   4.078   3.679 -0.5413  0.2210 -1.7023
13231TIP3    H261109   2.025   3.968   3.585  0.8718 -0.5681 -0.1718
13232TIP3   OH261110   0.795   0.231   6.273 -0.3800  0.1406 -0.5369
13232TIP3    H161111   0.865   0.250   6.210  0.4556  0.8978  0.5820
13232TIP3    H261112   0.835   0.246   6.359 -1.8136  0.2557  0.1433
13233TIP3   OH261113   5.409   0.204   5.487 -0.0734  0.2797 -0.2794
13233TIP3    H161114   5.389   0.156   5.406 -0.2274  0.7843 -0.5452
13233TIP3    H261115   5.326   0.247   5.510  0.6245  2.3748 -1.3824
13234TIP3   OH261116   4.210   4.143  15.702  0.0235  0.5800 -0.2167
13234TIP3    H161117   4.212   4.056  15.662 -0.2826  1.0725 -1.3209
13234TIP3    H261118   4.198   4.125  15.796  0.2317 -0.5689 -0.3856
13235TIP3   OH261119   5.663   1.765   5.039 -0.8363 -0.2545 -0.0831
13235TIP3    H161120   5.576   1.759   4.998  0.1845 -0.1936 -2.4518
13235TIP3    H261121   5.646   1.752   5.132 -3.5019  0.7810 -0.3221
13236TIP3   OH261122   2.021   3.998  15.188 -0.2236 -0.2536  0.3295
13236TIP3    H161123   1.937   3.982  15.232 -1.7009 -1.0255 -2.5347
13236TIP3    H261124   2.081   3.935  15.229 -1.6967 -1.4739  0.7438
13237TIP3   OH261125   4.477   3.485  13.858 -0.1732  0.4959  0.4206
13237TIP3    H161126   4.382   3.483  13.846 -0.1652  0.6056  0.3326
13237TIP3    H261127   4.498   3.400  13.897 -0.3171  0.5033  0.5155
13238TIP3   OH261128   1.862   4.095   0.151 -0.5473 -0.2141 -0.0087
13238TIP3    H161129   1.881   4.001   0.157 -2.3556 -0.6261 -0.1728
13238TIP3    H261130   1.916   4.126   0.078 -1.5860 -1.6077 -1.4316
13239TIP3   OH261131   3.938   1.339  12.823  0.5613 -0.6917 -0.0171
13239TIP3    H161132   4.030   1.311  12.818  0.7118 -0.2301  0.1544
13239TIP3    H261133   3.900   1.311  12.739  1.2444  0.4755 -0.7381
13240TIP3   OH261134   2.824   0.298  16.331  0.0545  0.0576  1.0569
13240TIP3    H161135   2.863   0.281  16.246  0.3100  0.0468  1.1734
13240TIP3    H261136   2.732   0.317  16.313  0.4053  1.4648  0.6303
13241TIP3   OH261137   2.595   2.863   2.272 -0.5345 -0.4490  0.3632
13241TIP3    H161138   2.569   2.772   2.259 -3.0495  0.3597 -0.9014
13241TIP3    H261139   2.546   2.912   2.205  1.3262  1.7692  0.4740
13242TIP3   OH261140   6.196   3.727  12.805 -0.0262  0.4334 -0.4722
13242TIP3    H161141   6.187   3.781  12.883 -1.6557 -0.8021  0.2567
13242TIP3    H261142   6.280   3.753  12.767  1.7363 -0.1121  2.6407
13243TIP3   OH261143   6.613   4.624   0.390  0.4213  0.0206 -0.3332
13243TIP3    H161144   6.574   4.706   0.360  0.5638 -0.1212 -0.9275
13243TIP3    H261145   6.703   4.627   0.357  0.0702 -0.9207 -1.4552
13244TIP3   OH261146   1.984   5.677   4.124  0.0015  0.5874  0.2075
13244TIP3    H161147   1.951   5.677   4.213  2.1275  1.1775  1.0471
13244TIP3    H261148   2.029   5.761   4.115  0.5930  0.1552 -1.1205
13245TIP3   OH261149   1.059   3.553  17.083  0.4651  0.5601 -0.4064
13245TIP3    H161150   1.095   3.528  17.168  0.8599  0.3668 -0.6297
13245TIP3    H261151   1.115   3.510  17.019 -1.0147 -0.9546 -0.7499
13246TIP3   OH261152   3.699   5.858  10.725 -0.2787  0.0157 -0.5062
13246TIP3    H161153   3.639   5.924  10.758  1.2385  1.1188  0.1925
13246TIP3    H261154   3.786   5.888  10.754  0.4005 -2.8013  0.7808
13247TIP3   OH261155   5.585   6.656   3.075 -0.0033 -0.0972  0.3130
13247TIP3    H161156   5.552   6.602   3.147  0.9648  0.0050  0.8507
13247TIP3    H261157   5.677   6.630   3.066  0.5000  1.4902  0.6164
13248TIP3   OH261158   0.657   3.058   3.942 -0.1483  0.1284  0.2414
13248TIP3    H161159   0.605   3.013   4.009  2.3111 -1.9342  0.9616
13248TIP3    H261160   0.614   3.037   3.859 -0.4560 -1.6041  0.7913
13249TIP3   OH261161   1.780   2.315  16.542 -0.1083 -0.2793 -0.1153
13249TIP3    H161162   1.793   2.325  16.636 -0.2697  0.8750 -0.1939
13249TIP3    H261163   1.839   2.379  16.503 -1.2402  0.4247 -0.7211
13250TIP3   OH261164   1.132   4.170  13.581 -0.5943 -0.8748  0.3792
13250TIP3    H161165   1.118   4.176  13.675 -0.9536 -0.0168  0.2835
13250TIP3    H261166   1.150   4.260  13.554 -0.9623 -1.0365 -0.4356
13251TIP3   OH261167   5.520   2.899   0.714  0.3100 -0.0123 -0.4461
13251TIP3    H161168   5.471   2.820   0.736  0.2411  0.3025  0.6068
13251TIP3    H261169   5.527   2.946   0.797  3.6255 -0.7065 -0.1998
13252TIP3   OH261170   6.771   4.286  12.505 -0.0644 -0.2744 -0.0386
13252TIP3    H161171   6.829   4.317  12.575  0.8658  1.5646 -1.5414
13252TIP3    H261172   6.683   4.293  12.542  0.2589  2.4192  0.3971
13253TIP3   OH261173   6.305   1.530   5.623 -0.6705 -0.2803  0.0561
13253TIP3    H161174   6.237   1.595   5.635  0.4923  0.5345  3.1441
13253TIP3    H261175   6.370   1.573   5.567 -1.3201 -0.0104 -0.5079
13254TIP3   OH261176   4.175   4.196  13.453 -0.8192 -0.0969 -0.3218
13254TIP3    H161177   4.263   4.216  13.420 -0.9109 -1.6514 -1.6536
13254TIP3    H261178   4.190   4.153  13.537 -0.3637  0.5161 -0.0847
13255TIP3   OH261179   3.098   3.375  13.416 -0.0573 -0.1627  0.1168
13255TIP3    H161180   3.100   3.469  13.437 -3.0104 -0.0236  0.3040
13255TIP3    H261181   3.008   3.360  13.385  0.9379 -2.5372 -2.0120
13256TIP3   OH261182   6.232   5.198   2.004 -0.4119 -0.5428  0.6201
13256TIP3    H161183   6.162   5.239   2.055 -0.8498 -1.2096  0.5740
13256TIP3    H261184   6.309   5.203   2.060 -0.1487  1.3850  0.1540
13257TIP3   OH261185   5.008   4.233  14.349  0.1198 -0.5809  0.1213
13257TIP3    H161186   4.950   4.185  14.409  0.6598 -1.7113 -0.2256
13257TIP3    H261187   4.949   4.281  14.292 -0.4767 -1.3558  0.0615
13258TIP3   OH261188   5.441   4.730  15.097  0.2629 -0.6303  0.2115
13258TIP3    H161189   5.373   4.795  15.110  0.9539  0.1475  0.0582
13258TIP3    H261190   5.444   4.680  15.178  0.7194  0.4980  0.9087
13259TIP3   OH261191   4.857   3.489   0.936 -0.0882  0.2630  0.0864
13259TIP3    H161192   4.928   3.429   0.957 -0.2603  0.2973  0.8193
13259TIP3    H261193   4.805   3.444   0.870  1.7317  1.0901 -2.0081
13260TIP3   OH261194   4.361   3.467   2.146  0.4894  0.4418 -0.2640
13260TIP3    H161195   4.326   3.555   2.159 -0.3213 -0.0294  1.0001
13260TIP3    H261196   4.318   3.414   2.214  0.7229 -0.9905 -1.1927
13261TIP3   OH261197   6.293   3.596   3.072  0.3149  0.5940 -0.2513
13261TIP3    H161198   6.288   3.500   3.069 -0.7168  0.5420  1.5417
13261TIP3    H261199   6.205   3.625   3.047  0.5438  1.0669 -0.5160
13262TIP3   OH261200   0.975   2.454   0.315  0.3364 -0.0813 -0.2874
13262TIP3    H161201   0.996   2.520   0.381  1.2805  1.0041 -1.5957
13262TIP3    H261202   0.896   2.411   0.347 -0.1148  1.4639  0.7916
13263TIP3   OH261203   4.946   2.516   1.809  0.2698  0.1452 -0.0600
13263TIP3    H161204   4.889   2.508   1.886  1.3804  0.4497  0.8226
13263TIP3    H261205   5.023   2.563   1.841  2.6573 -3.2218 -0.2832
13264TIP3   OH261206   0.690   0.548  12.806  0.4045  0.4566  0.4544
13264TIP3    H161207   0.669   0.580  12.718  0.2580 -1.7523 -0.3547
13264TIP3    H261208   0.780   0.579  12.822  1.1263 -0.6323 -1.2570
13265TIP3   OH261209   3.838   6.249   4.293  0.3234  0.3022 -0.7726
13265TIP3    H161210   3.857   6.235   4.386  0.5917  1.7760 -0.5775
13265TIP3    H261211   3.746   6.275   4.290  0.1534 -0.3239 -0.9834
13266TIP3   OH261212   6.013   3.601  15.943  0.0574 -0.1365 -0.6969
13266TIP3    H161213   6.069   3.525  15.925  0.2955 -0.2105  0.3114
13266TIP3    H261214   5.985   3.631  15.856 -0.6852 -1.8418 -1.0772
13267TIP3   OH261215   1.046   4.868  11.720  0.3325  0.3079 -0.6131
13267TIP3    H161216   0.996   4.899  11.796 -0.0361 -0.1285 -0.6727
13267TIP3    H261217   1.014   4.779  11.705  3.1811 -1.1229  1.1057
13268TIP3   OH261218   0.371   5.735  12.692 -0.1553 -0.2265  0.4996
13268TIP3    H161219   0.366   5.819  12.738 -2.1336 -0.5212  0.9455
13268TIP3    H261220   0.412   5.676  12.755  1.1121  0.3452  0.2381
13269TIP3   OH261221   4.281   0.128  13.705 -0.5457 -0.2209  0.5726
13269TIP3    H161222   4.274   0.164  13.617  0.3528 -1.2570  0.0520
13269TIP3    H261223   4.352   0.178  13.746 -0.0131 -0.6838  0.2189
13270TIP3   OH261224   0.232   3.563  12.958 -0.2571 -0.4916 -0.0982
13270TIP3    H161225   0.177   3.604  12.892  0.9813 -1.4143 -1.7811
13270TIP3    H261226   0.182   3.487  12.988  0.3726 -1.8968 -2.3235
13271TIP3   OH261227   6.639   1.832   0.335  0.1199  0.0673  0.1277
13271TIP3    H161228   6.567   1.826   0.398  0.8631 -0.5011  0.9305
13271TIP3    H261229   6.605   1.891   0.266 -0.3560  1.4846  1.5143
13272TIP3   OH261230   1.283   3.438  13.410  0.3052  0.2364  0.2158
13272TIP3    H161231   1.194   3.404  13.415  0.7395 -1.0502 -0.4201
13272TIP3    H261232   1.327   3.381  13.346  1.5472  0.9310  0.4197
13273TIP3   OH261233   2.818   3.535  14.878 -0.0374 -0.0185  0.0106
13273TIP3    H161234   2.885   3.509  14.815  0.4686 -0.1953  0.6140
13273TIP3    H261235   2.749   3.575  14.824  0.1002 -0.7348 -0.7193
13274TIP3   OH261236   5.820   0.556   5.844  0.0641 -0.7115 -0.3268
13274TIP3    H161237   5.742   0.611   5.847  0.9570  0.6420 -0.6906
13274TIP3    H261238   5.855   0.559   5.933 -0.1410 -1.0898 -0.2317
13275TIP3   OH261239   1.784   1.431   2.798  0.6051  0.3004  0.1158
13275TIP3    H161240   1.728   1.411   2.873  1.1603 -0.0590  0.4362
13275TIP3    H261241   1.739   1.503   2.754 -0.1114  0.0246  0.3689
13276TIP3   OH261242   5.236   4.579   1.169  0.3305  0.2489  0.0108
13276TIP3    H161243   5.247   4.484   1.174 -2.0869 -0.0472  2.3304
13276TIP3    H261244   5.143   4.593   1.188  0.7314  3.1312  0.3207
13277TIP3   OH261245   1.301   1.762   2.782  0.2225 -0.5568  0.0232
13277TIP3    H161246   1.390   1.769   2.815  0.2262 -0.6008  0.0218
13277TIP3    H261247   1.296   1.827   2.711 -0.0595  0.2058  0.7210
13278TIP3   OH261248   0.117   0.586  12.698  0.0220  0.0552 -0.3030
13278TIP3    H161249   0.164   0.617  12.775 -0.9864  0.9949 -0.0431
13278TIP3    H261250   0.125   0.658  12.635 -0.0050 -0.2918 -0.7071
13279TIP3   OH261251   6.126   3.177  17.169 -0.0371  0.3262  0.2170
13279TIP3    H161252   6.063   3.151  17.102  0.0181  2.5396 -0.7738
13279TIP3    H261253   6.211   3.150  17.134 -0.0640  0.9453 -0.3261
13280TIP3   OH261254   3.291   0.446  12.038  0.1407  0.1980 -0.0837
13280TIP3    H161255   3.327   0.389  11.970  0.0929 -0.5069  0.4696
13280TIP3    H261256   3.197   0.432  12.033  0.1728 -0.2414  0.4539
13281TIP3   OH261257   2.977   3.466   4.841  0.2454 -0.5220 -0.0161
13281TIP3    H161258   2.891   3.489   4.806  0.6548 -0.0785 -0.7320
13281TIP3    H261259   3.039   3.502   4.779  0.9512 -1.1926  0.2852
13282TIP3   OH261260   1.811   6.695  11.241 -0.0119  0.1783  0.1089
13282TIP3    H161261   1.796   6.719  11.149  2.8332  0.4383 -0.3863
13282TIP3    H261262   1.891   6.741  11.264 -0.9233  0.5152  2.9373
13283TIP3   OH261263   0.040   4.682  11.142  0.4774 -0.0944 -0.0376
13283TIP3    H161264   0.080   4.763  11.111  1.9250 -0.6267  0.3863
13283TIP3    H261265  -0.050   4.686  11.108  0.8945  1.0769 -1.0972
13284TIP3   OH261266   6.253   4.751   1.159  0.4506  0.5156 -0.2780
13284TIP3    H161267   6.176   4.756   1.102  0.2415 -3.6276 -0.6645
13284TIP3    H261268   6.317   4.701   1.109  0.8865 -1.8632  2.3911
13285TIP3   OH261269   2.166   1.642  15.624  0.3042  0.1738 -0.1041
13285TIP3    H161270   2.236   1.609  15.680 -1.0984 -0.9341  1.0513
13285TIP3    H261271   2.126   1.713  15.675  0.0282  0.2247 -0.3864
13286TIP3   OH261272   6.216   2.290  15.477  0.6196  0.2647  0.6566
13286TIP3    H161273   6.135   2.276  15.427  0.3730 -0.5070  1.2602
13286TIP3    H261274   6.269   2.213  15.459  2.2278  1.7642 -1.5490
13287TIP3   OH261275   2.771   3.662   5.432 -0.1993  0.0752 -0.0921
13287TIP3    H161276   2.803   3.597   5.494  0.2748  1.2170  0.8805
13287TIP3    H261277   2.709   3.715   5.482  0.8683  1.5878 -0.2892
13288TIP3   OH261278   1.539   3.859  12.977 -0.5351  0.2521  0.0728
13288TIP3    H161279   1.497   3.783  12.938  0.8651 -0.8760  0.6649
13288TIP3    H261280   1.591   3.824  13.049  1.4276  1.5144 -0.6179
13289TIP3   OH261281   6.439   1.028   6.290 -0.2733 -0.2761  0.1612
13289TIP3    H161282   6.369   0.965   6.307 -0.0287 -0.6935 -0.3748
13289TIP3    H261283   6.394   1.113   6.284 -0.8169 -0.6196 -0.7975
13290TIP3   OH261284   2.989   2.435   2.430  0.2814 -0.2419 -0.5828
13290TIP3    H161285   3.077   2.412   2.400  1.1685  1.2026  0.7788
13290TIP3    H261286   2.967   2.368   2.494  1.4561  0.7345  0.8996
13291TIP3   OH261287   1.988   0.843  14.522  0.5147  1.0218  0.1097
13291TIP3    H161288   1.929   0.792  14.578  0.1890  1.0010 -0.2485
13291TIP3    H261289   2.034   0.778  14.469  0.1263  1.0939 -0.3211
13292TIP3   OH261290   0.000   4.346  16.253  0.0159 -0.3683 -0.2361
13292TIP3    H161291  -0.010   4.437  16.281 -0.8080 -1.1970  2.5276
13292TIP3    H261292   0.094   4.336  16.237  0.8466  0.0375  3.5182
13293TIP3   OH261293   2.036   5.960   4.092  0.2681 -0.4564  0.3126
13293TIP3    H161294   2.000   6.027   4.034 -1.7600 -1.0234  0.8207
13293TIP3    H261295   2.119   5.997   4.122  0.1442  0.9565 -0.9412
13294TIP3   OH261296   2.494   1.733  16.808  0.2054 -0.4399  0.2126
13294TIP3    H161297   2.527   1.696  16.726  0.1185  0.0284 -0.0370
13294TIP3    H261298   2.404   1.702  16.815 -0.1727  0.4536 -0.4604
13295TIP3   OH261299   4.371   0.678   4.712 -0.3449  0.0389 -0.3501
13295TIP3    H161300   4.464   0.673   4.734 -0.5811 -2.2114  0.4976
13295TIP3    H261301   4.332   0.729   4.783 -0.0539 -1.0122  0.5925
13296TIP3   OH261302   0.824   6.250   1.846 -0.0470 -0.7333 -0.0786
13296TIP3    H161303   0.793   6.161   1.832 -0.4989 -0.7175  0.7403
13296TIP3    H261304   0.758   6.306   1.805  0.2823 -0.7802 -0.6690
13297TIP3   OH261305   4.492   3.264   5.762 -0.3236  0.5125  0.4282
13297TIP3    H161306   4.562   3.269   5.828  1.0130  3.1729 -1.0228
13297TIP3    H261307   4.415   3.300   5.805  0.1944  1.0598  0.9068
13298TIP3   OH261308   2.816   1.429  12.315  0.0783 -0.0393  0.3717
13298TIP3    H161309   2.842   1.521  12.316  0.0796 -0.0176 -0.6905
13298TIP3    H261310   2.721   1.431  12.303  0.2765 -0.1680 -1.5550
13299TIP3   OH261311   0.824   6.016  15.016 -0.0451  0.6784 -0.4254
13299TIP3    H161312   0.866   6.037  14.933 -0.9846 -0.6832 -1.2788
13299TIP3    H261313   0.731   6.015  14.997 -0.2257 -0.6155  0.4131
13300TIP3   OH261314   1.268   3.909  12.179 -0.4348 -0.1247 -0.1050
13300TIP3    H161315   1.210   3.946  12.246 -0.5974  2.7609 -1.6958
13300TIP3    H261316   1.356   3.930  12.211 -0.3688 -1.1813  0.4701
13301TIP3   OH261317   5.747   2.633  15.558  0.1435  0.3922 -0.2671
13301TIP3    H161318   5.811   2.704  15.566  2.7871 -2.0705  3.2667
13301TIP3    H261319   5.799   2.555  15.541 -2.0778 -1.5423  1.2208
13302TIP3   OH261320   2.317   0.546  16.127  0.0012  0.6005 -0.5108
13302TIP3    H161321   2.279   0.459  16.112 -0.8389  1.0657 -1.1533
13302TIP3    H261322   2.408   0.528  16.150 -0.3627 -0.4947  0.1723
13303TIP3   OH261323   0.911   1.814  14.114 -0.1856  0.3499 -0.1297
13303TIP3    H161324   0.960   1.737  14.086  0.8545  0.5332  1.0527
13303TIP3    H261325   0.963   1.888  14.083  0.3902  0.5471  1.2034
13304TIP3   OH261326   5.029   4.999  15.501 -0.2837  0.0185  0.0258
13304TIP3    H161327   5.086   5.063  15.543  0.3430 -1.0354  0.8016
13304TIP3    H261328   5.073   4.915  15.513 -0.0325 -0.3512 -2.7674
13305TIP3   OH261329   5.917   3.250   6.205 -0.2418 -0.3310 -0.4873
13305TIP3    H161330   5.881   3.332   6.240  0.2012  0.7340 -2.3782
13305TIP3    H261331   5.971   3.278   6.132  0.1513 -2.3248 -0.9966
13306TIP3   OH261332   5.502   1.176   0.187  0.0477 -0.1211  0.1236
13306TIP3    H161333   5.573   1.240   0.186 -0.7802  0.8591 -1.5080
13306TIP3    H261334   5.519   1.119   0.113  0.1274 -1.0714  0.8554
13307TIP3   OH261335   4.346   0.344   1.633 -0.3834 -0.2869  0.4623
13307TIP3    H161336   4.359   0.278   1.565  1.2051 -1.3729  1.7546
13307TIP3    H261337   4.254   0.338   1.656 -0.3218 -1.8899  0.3633
13308TIP3   OH261338   2.109   0.203   2.797 -0.1916 -0.5417  0.2092
13308TIP3    H161339   2.183   0.249   2.837  0.1953 -1.3228  0.4113
13308TIP3    H261340   2.046   0.273   2.776  1.0112  0.2683 -0.8924
13309TIP3   OH261341   5.609   5.698   5.845  0.0012  0.2210  0.1054
13309TIP3    H161342   5.599   5.672   5.937 -0.8118  0.1222 -0.0041
13309TIP3    H261343   5.520   5.703   5.812  0.3189 -1.0866 -1.0584
13310TIP3   OH261344   5.563   6.386   0.095 -0.5431  0.1932 -0.7571
13310TIP3    H161345   5.620   6.414   0.023  1.8794  0.3982  1.0969
13310TIP3    H261346   5.622   6.377   0.169 -2.7037 -1.3792  0.8881
13311TIP3   OH261347   3.861   2.904  15.518 -0.0084 -0.8035  0.0286
13311TIP3    H161348   3.923   2.952  15.572  1.1747 -0.4664 -1.5433
13311TIP3    H261349   3.780   2.955  15.522  0.9332  0.8574 -0.8230
13312TIP3   OH261350   0.085   3.093   5.086 -0.3241  0.2840  0.0938
13312TIP3    H161351   0.159   3.101   5.147 -1.1926 -0.8978  1.3814
13312TIP3    H261352   0.104   3.156   5.017  1.3230  0.8153  0.9616
13313TIP3   OH261353   1.049   1.944  17.352  0.1603  0.0056 -0.6245
13313TIP3    H161354   1.115   1.928  17.285 -0.9967 -0.8600 -1.6225
13313TIP3    H261355   1.074   1.887  17.425 -0.1424 -1.2679 -1.4821
13314TIP3   OH261356   0.874   6.119   2.145 -0.1412 -0.3597 -0.0791
13314TIP3    H161357   0.938   6.052   2.122 -1.0286 -1.1639 -0.3004
13314TIP3    H261358   0.880   6.126   2.240 -0.2654 -1.0018 -0.0176
13315TIP3   OH261359   3.905   5.466  11.729 -0.2425  0.5345 -0.0724
13315TIP3    H161360   3.982   5.419  11.697 -0.9952 -0.6440 -0.2028
13315TIP3    H261361   3.887   5.532  11.662 -0.6806 -0.6661 -1.1669
13316TIP3   OH261362   2.175   3.567   1.324 -0.2720 -0.3793 -0.1272
13316TIP3    H161363   2.153   3.565   1.231  0.3168 -1.6067 -0.2551
13316TIP3    H261364   2.213   3.654   1.337  2.0834 -1.0831 -1.6469
13317TIP3   OH261365   5.825   0.182  14.954 -0.0902 -0.7637 -0.0295
13317TIP3    H161366   5.917   0.203  14.972 -0.1587  2.3816 -2.4952
13317TIP3    H261367   5.784   0.266  14.937 -3.0016 -2.2463 -1.0310
13318TIP3   OH261368   4.669   4.059  15.580 -0.1590 -0.3474  0.5376
13318TIP3    H161369   4.608   3.995  15.545 -0.3450  0.5092 -0.7613
13318TIP3    H261370   4.739   4.064  15.516 -0.6969  1.5358  0.0237
13319TIP3   OH261371   5.461   5.569  11.629 -0.0783  0.3055 -0.8541
13319TIP3    H161372   5.462   5.663  11.613 -1.6534  0.7105  1.0158
13319TIP3    H261373   5.391   5.536  11.573  1.0514  0.0527 -2.1761
13320TIP3   OH261374   3.449   4.953  11.420 -0.4248  0.7500  0.1529
13320TIP3    H161375   3.401   5.024  11.462 -1.9875  0.3600 -0.8957
13320TIP3    H261376   3.430   4.962  11.327  0.8633  0.0505 -0.2049
13321TIP3   OH261377   4.276   5.248  11.377 -0.0489  0.2202  0.0511
13321TIP3    H161378   4.219   5.193  11.324  0.4558  1.2306 -1.6419
13321TIP3    H261379   4.327   5.298  11.312 -0.2728  2.4415  1.4779
13322TIP3   OH261380   0.475   2.482   5.343 -0.1313  0.3278 -0.5853
13322TIP3    H161381   0.465   2.569   5.381  0.4235 -0.3009  1.0534
13322TIP3    H261382   0.569   2.468   5.338 -0.2151 -0.6896  0.4008
13323TIP3   OH261383   3.727   2.060  12.557 -0.4380  0.5253  0.3544
13323TIP3    H161384   3.811   2.105  12.564  0.1375 -0.1182 -1.5866
13323TIP3    H261385   3.669   2.106  12.618  0.9885  1.7811  0.8165
13324TIP3   OH261386   5.533   6.594   3.512  0.4438  0.3082  0.0314
13324TIP3    H161387   5.519   6.566   3.602  0.1318 -2.4542 -0.7578
13324TIP3    H261388   5.445   6.612   3.479  0.2629 -1.1688 -0.3767
13325TIP3   OH261389   1.501   3.043  12.280  0.2963 -0.4068 -0.0509
13325TIP3    H161390   1.417   3.027  12.238 -0.4376  0.9888  0.8053
13325TIP3    H261391   1.502   2.984  12.355  0.8929 -1.7080 -1.0369
13326TIP3   OH261392   0.584   3.304   5.592 -0.3754  0.0120 -0.3031
13326TIP3    H161393   0.638   3.225   5.594  0.5428  0.6361  0.5446
13326TIP3    H261394   0.589   3.333   5.501  1.1312  0.3078 -0.1564
13327TIP3   OH261395   4.486   3.755   4.165 -0.8222  0.0253  0.4569
13327TIP3    H161396   4.494   3.789   4.254 -0.0945  0.1840  0.3441
13327TIP3    H261397   4.559   3.694   4.157 -1.2267 -0.4161  0.1573
13328TIP3   OH261398   4.634   4.911  17.115  0.7045 -0.2369 -0.6562
13328TIP3    H161399   4.585   4.853  17.173  2.1121 -0.0020  0.8488
13328TIP3    H261400   4.726   4.896  17.139  1.1679  1.7320 -1.0487
13329TIP3   OH261401   5.586   3.696  10.949 -0.4078 -0.7921  0.2334
13329TIP3    H161402   5.563   3.605  10.933  1.2855 -1.7996  2.8525
13329TIP3    H261403   5.546   3.717  11.034  0.7801  0.2509  0.5748
13330TIP3   OH261404   1.775   1.267  14.679 -0.2166  0.0040 -0.0326
13330TIP3    H161405   1.755   1.327  14.751 -0.4571 -1.2718  0.9969
13330TIP3    H261406   1.696   1.267  14.625 -0.9668 -0.8206  1.0150
13331TIP3   OH261407   4.458   3.919   5.890  0.5560  0.1407  0.1903
13331TIP3    H161408   4.433   3.973   5.965 -0.1227 -0.7091  0.6026
13331TIP3    H261409   4.467   3.980   5.818 -0.1524  0.8107  0.6532
13332TIP3   OH261410   3.172   4.602   5.658  0.5321  0.5691  0.2137
13332TIP3    H161411   3.154   4.526   5.603  1.5544  1.5085 -1.4693
13332TIP3    H261412   3.247   4.576   5.711 -2.2464 -1.4799  3.5845
13333TIP3   OH261413   0.461   1.306   2.545  0.0705 -0.0806 -0.8409
13333TIP3    H161414   0.514   1.292   2.467  1.0605 -0.9135 -0.0540
13333TIP3    H261415   0.505   1.255   2.613 -0.4643  1.0325  0.3910
13334TIP3   OH261416   3.168   0.990   0.731 -0.5090 -0.2283  0.0949
13334TIP3    H161417   3.149   1.058   0.666 -1.7650  0.8579  1.5329
13334TIP3    H261418   3.095   0.928   0.723 -2.2722  1.3815  2.2765
13335TIP3   OH261419   1.083   1.013  15.154 -0.1268 -1.2039  0.0177
13335TIP3    H161420   1.050   1.098  15.183 -0.2243 -0.1635 -2.8797
13335TIP3    H261421   1.175   1.012  15.181 -0.1392 -0.1999  0.1099
13336TIP3   OH261422   0.915   2.833   1.199 -0.5146  0.0405 -0.2392
13336TIP3    H161423   0.920   2.919   1.157 -0.1322 -1.0682 -2.5718
13336TIP3    H261424   0.824   2.826   1.227  0.1734  2.6236  3.3735
13337TIP3   OH261425   3.318   3.404  12.868  0.2710  0.1136 -0.0113
13337TIP3    H161426   3.330   3.453  12.949  0.3928 -0.7197  0.4823
13337TIP3    H261427   3.402   3.412  12.823  0.1049  0.8346 -0.2085
13338TIP3   OH261428   4.569   4.054  16.091 -0.3290  0.3891  0.0143
13338TIP3    H161429   4.656   4.015  16.088 -0.8675 -0.8196 -0.5289
13338TIP3    H261430   4.580   4.141  16.054  0.9051  0.7962  1.2516
13339TIP3   OH261431   4.302   5.061   3.584 -0.6237 -0.3996  0.4710
13339TIP3    H161432   4.305   5.031   3.675  2.6404 -0.3039  0.5325
13339TIP3    H261433   4.377   5.018   3.542 -1.0602  0.8409 -1.7619
13340TIP3   OH261434   0.963   4.417  11.970  0.5287 -0.2309  0.2336
13340TIP3    H161435   1.024   4.347  11.991  0.5735  0.2815  1.9224
13340TIP3    H261436   0.920   4.438  12.053 -0.8199  0.4911 -0.6033
13341TIP3   OH261437   0.155   3.767   5.838 -0.0033  0.0303 -0.9695
13341TIP3    H161438   0.203   3.821   5.775  0.4135  2.2785  1.1176
13341TIP3    H261439   0.224   3.719   5.885  0.0063  0.8027 -0.1496
13342TIP3   OH261440   2.627   2.372  16.095 -0.8994  0.2256 -0.0343
13342TIP3    H161441   2.570   2.309  16.139  0.1835 -0.8600 -0.1443
13342TIP3    H261442   2.572   2.408  16.025 -1.0092 -1.9753 -1.1640
13343TIP3   OH261443   4.000   4.725  12.058 -0.5886  0.2427  0.3108
13343TIP3    H161444   4.030   4.717  12.149 -0.8092  1.0409  0.4643
13343TIP3    H261445   3.943   4.803  12.059  0.9888  1.4638 -0.9231
13344TIP3   OH261446   3.685   5.350  11.607  0.0953  0.0367  0.1627
13344TIP3    H161447   3.778   5.367  11.622  0.0694  0.6676 -0.3645
13344TIP3    H261448   3.669   5.379  11.517 -0.8381  0.9001  0.5817
13345TIP3   OH261449   4.603   6.062  11.951 -0.3031 -0.0917  0.4416
13345TIP3    H161450   4.554   6.144  11.941 -1.4479 -0.4398  2.6141
13345TIP3    H261451   4.604   6.024  11.863  0.6926  2.4294 -0.7502
13346TIP3   OH261452   1.539   4.696  11.133 -0.8503  0.1327  0.1778
13346TIP3    H161453   1.461   4.702  11.077 -0.1361  0.0709 -0.8571
13346TIP3    H261454   1.568   4.787  11.142 -1.4036  0.2299  1.1171
13347TIP3   OH261455   4.830   3.167   3.214  0.2673  0.3138 -0.1064
13347TIP3    H161456   4.776   3.239   3.247 -0.7170 -0.6096  0.3755
13347TIP3    H261457   4.827   3.101   3.284  1.2233 -0.1632 -0.4946
13348TIP3   OH261458   3.739   1.389  15.498  0.0093 -0.3138 -0.9334
13348TIP3    H161459   3.653   1.425  15.478 -0.1524  1.2560  2.1282
13348TIP3    H261460   3.728   1.294  15.488 -1.1128  0.0119 -3.6783
13349TIP3   OH261461   6.598   6.579   0.933  0.2050  0.4844  0.2096
13349TIP3    H161462   6.645   6.503   0.897  0.7064  1.2695 -0.8217
13349TIP3    H261463   6.531   6.540   0.989 -0.0496 -0.7543 -0.9011
13350TIP3   OH261464   5.932   4.412   2.453  0.0261  0.3869  0.3938
13350TIP3    H161465   5.978   4.378   2.529 -1.1029  1.0561  1.4204
13350TIP3    H261466   5.916   4.335   2.398  1.1022 -0.0587  0.6830
13351TIP3   OH261467   3.961   2.721  14.807  0.1388  0.1288  0.0418
13351TIP3    H161468   4.037   2.779  14.815  1.4832 -1.5611  0.2273
13351TIP3    H261469   3.994   2.635  14.835 -1.8571 -0.6630  0.1238
13352TIP3   OH261470   3.577   5.511   4.464 -0.2163 -0.1266  0.0861
13352TIP3    H161471   3.489   5.501   4.500  0.3857  1.0271  2.0091
13352TIP3    H261472   3.587   5.605   4.448  0.4320 -0.3260 -0.8195
13353TIP3   OH261473   4.608   4.269   1.922  0.1495 -0.4117 -0.5164
13353TIP3    H161474   4.547   4.332   1.883  0.1991 -0.5380 -0.8040
13353TIP3    H261475   4.677   4.323   1.959 -0.8715 -0.1871  1.1400
13354TIP3   OH261476   0.244   2.936  17.175  0.0737 -0.4218 -0.5330
13354TIP3    H161477   0.152   2.962  17.174  0.8983  2.9678 -2.0481
13354TIP3    H261478   0.269   2.944  17.267 -0.3931  2.0412 -0.5468
13355TIP3   OH261479   5.674   2.252  15.257  0.1290  0.0511  0.2698
13355TIP3    H161480   5.704   2.162  15.274  1.2455  0.6803  1.9540
13355TIP3    H261481   5.579   2.247  15.260  0.1915 -0.9265  1.3752
13356TIP3   OH261482   3.048   4.705   3.154 -0.3717 -0.3417  0.4212
13356TIP3    H161483   3.054   4.610   3.143 -2.9314 -0.5667  0.3933
13356TIP3    H261484   3.063   4.720   3.247  0.5871 -0.6799  0.3366
13357TIP3   OH261485   3.698   0.062   4.238  0.1319  0.5606 -0.7418
13357TIP3    H161486   3.713   0.054   4.144  1.7101 -0.6536 -0.4367
13357TIP3    H261487   3.786   0.064   4.276 -0.4794  0.1620  0.7512
13358TIP3   OH261488   3.941   5.101   2.862 -0.3094  0.1452 -0.0203
13358TIP3    H161489   3.858   5.145   2.882 -0.4314  0.2629 -0.7683
13358TIP3    H261490   3.950   5.036   2.932 -1.0028  0.1777  0.1106
13359TIP3   OH261491   3.720   0.028   0.823  0.3316 -0.3079 -0.1395
13359TIP3    H161492   3.734   0.086   0.748 -1.4705 -0.3523 -0.5395
13359TIP3    H261493   3.727  -0.060   0.787 -0.9696 -0.3323 -0.3715
13360TIP3   OH261494   4.368   1.037   6.168 -0.5488 -0.1175 -0.3887
13360TIP3    H161495   4.282   0.995   6.169 -1.6582  1.9831 -0.9356
13360TIP3    H261496   4.430   0.966   6.152 -2.1512 -1.7093  0.1624
13361TIP3   OH261497   4.042   4.124   4.378  0.1274  0.8121 -0.1101
13361TIP3    H161498   4.112   4.116   4.442  0.4110  1.0596 -0.3805
13361TIP3    H261499   3.999   4.207   4.400 -1.0851 -0.0736  1.0188
13362TIP3   OH261500   5.407   2.805   5.448  0.2203 -0.2282 -0.0254
13362TIP3    H161501   5.363   2.859   5.382  1.3331 -0.8886 -1.3645
13362TIP3    H261502   5.446   2.869   5.509 -0.0961  0.4243 -0.4958
13363TIP3   OH261503   1.288   5.582   3.079 -0.2130 -0.5760  0.5455
13363TIP3    H161504   1.374   5.572   3.039  0.7043 -0.4958  2.3946
13363TIP3    H261505   1.231   5.523   3.030  0.2140  1.2418 -2.4224
13364TIP3   OH261506   4.112   2.552   1.075 -0.4116 -0.0640  0.5425
13364TIP3    H161507   4.100   2.599   0.992  1.2213 -1.2151 -0.3920
13364TIP3    H261508   4.055   2.475   1.067  0.3423 -0.5898  0.1289
13365TIP3   OH261509   6.523   3.177   3.142 -0.1985 -0.0208 -0.1765
13365TIP3    H161510   6.601   3.222   3.111 -2.4400  2.9154 -2.0981
13365TIP3    H261511   6.525   3.092   3.098  0.8722  0.8422 -1.8948
13366TIP3   OH261512   2.403   4.801   2.359 -0.0777  0.5678  0.4242
13366TIP3    H161513   2.330   4.860   2.376 -0.4253  0.3571 -0.2881
13366TIP3    H261514   2.402   4.789   2.264 -0.8772 -1.6562  0.6588
13367TIP3   OH261515   5.553   3.028   4.793  0.1301  0.3434  0.1441
13367TIP3    H161516   5.593   3.074   4.867  1.0373 -0.2586  0.0375
13367TIP3    H261517   5.620   2.967   4.763 -0.3954  0.2622 -0.8977
13368TIP3   OH261518   5.926   1.697  11.592 -0.3573  0.5559 -0.4029
13368TIP3    H161519   5.849   1.714  11.538 -0.0548  1.2835 -0.6145
13368TIP3    H261520   5.928   1.768  11.656  0.2004  0.6113 -0.4739
13369TIP3   OH261521   2.518   4.112   3.902 -0.3630  0.4161  0.1729
13369TIP3    H161522   2.434   4.109   3.858  0.3408 -0.9824 -1.1634
13369TIP3    H261523   2.502   4.161   3.983 -2.6681 -0.7600  0.4778
13370TIP3   OH261524   6.457   4.981  13.242  0.3520  0.5943 -0.3450
13370TIP3    H161525   6.490   5.071  13.238  0.9132  0.4412  0.4380
13370TIP3    H261526   6.475   4.954  13.332 -1.6093  0.3614  0.0208
13371TIP3   OH261527   2.019   1.161  15.208  0.1890 -0.0281 -0.2271
13371TIP3    H161528   2.072   1.227  15.253  0.4843  0.7913 -1.7283
13371TIP3    H261529   2.070   1.138  15.130 -0.1918 -1.5998 -0.0564
13372TIP3   OH261530   2.372   5.612   0.732  0.1976  0.3916 -0.0552
13372TIP3    H161531   2.317   5.640   0.805  1.3462 -0.6533  1.2779
13372TIP3    H261532   2.457   5.653   0.749  0.2969  0.6711 -1.1840
13373TIP3   OH261533   2.627   4.262  14.734  0.3557 -0.1631 -0.0560
13373TIP3    H161534   2.639   4.356  14.750 -2.5894 -0.1638  3.3626
13373TIP3    H261535   2.701   4.221  14.779  0.8112  0.4648 -0.2231
13374TIP3   OH261536   4.270   0.487  12.911  0.1401  0.0821  0.3577
13374TIP3    H161537   4.263   0.430  12.986 -0.5796 -0.8795 -0.4184
13374TIP3    H261538   4.363   0.486  12.888 -0.0103 -1.6951 -0.3127
13375TIP3   OH261539   5.006   3.794   1.805 -0.7187 -0.4021 -0.0861
13375TIP3    H161540   4.980   3.886   1.812 -2.1047 -0.6965 -0.9914
13375TIP3    H261541   4.961   3.762   1.727  0.1900 -1.7202 -0.1078
13376TIP3   OH261542   2.103   2.991   5.887 -0.6418 -0.1935 -0.2535
13376TIP3    H161543   2.149   2.966   5.807  1.7484 -2.1735  1.5978
13376TIP3    H261544   2.072   2.909   5.924 -0.4247  0.5049  1.5908
13377TIP3   OH261545   3.348   2.480  10.818 -0.6004  0.0188  0.6295
13377TIP3    H161546   3.367   2.469  10.911 -0.9878 -0.7367  0.6232
13377TIP3    H261547   3.268   2.430  10.803 -0.7001  0.3666 -0.0531
13378TIP3   OH261548   0.465   2.060  11.824  0.3314  0.6280  0.2851
13378TIP3    H161549   0.504   2.099  11.902 -0.1983  1.1469  0.2966
13378TIP3    H261550   0.381   2.104  11.814  1.3290  2.2436 -1.8754
13379TIP3   OH261551   6.219   4.825  13.237  0.0132 -0.1322 -0.3982
13379TIP3    H161552   6.312   4.843  13.255  0.2571  0.8533 -2.4101
13379TIP3    H261553   6.179   4.911  13.228 -0.6062 -0.5319 -1.7637
13380TIP3   OH261554   5.267   3.639  12.955  0.1743 -0.5072  0.2239
13380TIP3    H161555   5.279   3.712  12.894  1.0351 -0.0537  0.9324
13380TIP3    H261556   5.344   3.584  12.943  0.1730 -0.6046  0.6638
13381TIP3   OH261557   0.524   4.124  12.765 -0.0697  0.1476 -0.2546
13381TIP3    H161558   0.573   4.052  12.725 -1.4235 -0.1144 -1.5623
13381TIP3    H261559   0.573   4.146  12.844  1.5252 -0.8042 -0.9255
13382TIP3   OH261560   1.104   3.043  11.488  0.3698  0.0415  0.0368
13382TIP3    H161561   1.153   3.024  11.408 -1.0715  3.6796 -1.9210
13382TIP3    H261562   1.160   3.102  11.538  0.6409 -1.0443  1.0692
13383TIP3   OH261563   2.340   2.025   2.905 -0.1917 -0.8106 -0.0605
13383TIP3    H161564   2.431   1.997   2.916  0.3721  1.5143  2.1116
13383TIP3    H261565   2.333   2.047   2.812  1.8524  0.1292 -0.0355
13384TIP3   OH261566   3.502   5.924  14.290 -0.1642 -0.4801 -0.1133
13384TIP3    H161567   3.588   5.891  14.266  0.3123 -1.7128  2.7938
13384TIP3    H261568   3.441   5.858  14.256  0.3494 -1.3477  0.5799
13385TIP3   OH261569   6.320   5.597   6.003  0.3952  0.2850  0.1051
13385TIP3    H161570   6.259   5.671   6.004  1.9501  1.6357 -0.6736
13385TIP3    H261571   6.370   5.606   6.084 -0.8507 -1.2315  1.0929
13386TIP3   OH261572   0.486   5.615  13.196  0.1345  0.2303  0.0763
13386TIP3    H161573   0.517   5.655  13.277 -0.1413  0.1952  0.2006
13386TIP3    H261574   0.522   5.670  13.127 -0.7315  1.0403  0.2575
13387TIP3   OH261575   3.748   1.023   3.240 -0.1798  0.0546  0.2258
13387TIP3    H161576   3.659   1.036   3.207  0.7026  2.0941 -1.5837
13387TIP3    H261577   3.798   0.996   3.163  1.1677  0.9762  0.7491
13388TIP3   OH261578   5.401   0.914   4.498  0.1187 -0.0988  0.3794
13388TIP3    H161579   5.380   0.836   4.446  1.2626 -0.0942 -0.1118
13388TIP3    H261580   5.441   0.880   4.578 -0.5579 -0.0540  0.7482
13389TIP3   OH261581   0.064   3.257  14.731 -0.6747  0.4977  0.7992
13389TIP3    H161582   0.128   3.206  14.681  0.3098  3.1056 -0.8522
13389TIP3    H261583   0.002   3.288  14.666 -0.8208  1.9283  1.5680
13390TIP3   OH261584   6.659   2.612   1.912  0.0176  0.1998  0.2559
13390TIP3    H161585   6.594   2.643   1.850 -0.1404  1.1046  0.8641
13390TIP3    H261586   6.671   2.684   1.974  2.3890  0.5077 -0.4403
13391TIP3   OH261587   2.351   3.267  12.796  0.2690  0.0711  0.2452
13391TIP3    H161588   2.360   3.174  12.772  0.3874  0.0157  0.5039
13391TIP3    H261589   2.274   3.297  12.747 -0.1559 -0.3264  0.6597
13392TIP3   OH261590   0.106   5.183   2.673 -0.0393  0.1297 -0.1546
13392TIP3    H161591   0.193   5.191   2.634  0.4928  0.4811  1.0612
13392TIP3    H261592   0.115   5.220   2.760 -1.7076  1.2883 -0.4143
13393TIP3   OH261593   5.936   3.934   4.880 -0.1352 -0.4387  0.3416
13393TIP3    H161594   5.950   3.974   4.966 -2.9956 -1.0081  1.1582
13393TIP3    H261595   5.936   4.007   4.819 -1.2354  0.3806  1.2820
13394TIP3   OH261596   6.108   2.392   4.247 -0.0836 -0.3967 -0.1580
13394TIP3    H161597   6.075   2.453   4.313 -1.6316 -1.6526  0.2890
13394TIP3    H261598   6.104   2.307   4.290  1.1832 -0.9448 -1.0759
13395TIP3   OH261599   0.820   3.493  16.972  0.1174  0.3890 -0.1271
13395TIP3    H161600   0.905   3.499  17.015  0.8298  0.0140 -1.4168
13395TIP3    H261601   0.762   3.547  17.026  1.0208  0.1715  1.1069
13396TIP3   OH261602   3.729   2.908  11.383 -0.5125  0.0250  0.2626
13396TIP3    H161603   3.814   2.866  11.370 -0.6063 -0.1399  0.1705
13396TIP3    H261604   3.704   2.939  11.296 -1.5566 -1.8728 -0.1674
13397TIP3   OH261605   4.267   6.731  15.569  0.4693  0.0027  0.0429
13397TIP3    H161606   4.309   6.728  15.655  0.7213 -1.2164 -0.1137
13397TIP3    H261607   4.247   6.640  15.548 -1.1339  0.4305 -0.4416
13398TIP3   OH261608   2.014   0.047   2.597  0.1604 -0.0767  0.0273
13398TIP3    H161609   2.085   0.001   2.553  1.3726  1.3011  0.4672
13398TIP3    H261610   2.055   0.089   2.673 -1.0065  1.1222  0.0393
13399TIP3   OH261611   4.537   3.113  15.416 -0.1937 -0.4855  0.0576
13399TIP3    H161612   4.482   3.051  15.463 -0.9224  0.1256  0.0226
13399TIP3    H261613   4.492   3.129  15.334  0.5103 -0.6869 -0.3764
13400TIP3   OH261614   3.179   0.940   2.429 -0.0603 -0.0176  0.5389
13400TIP3    H161615   3.166   1.014   2.487  1.5899  1.1156 -0.4632
13400TIP3    H261616   3.149   0.971   2.344  1.0321 -0.3232  0.0234
13401TIP3   OH261617   2.419   3.277   5.023 -0.2131 -0.0431 -0.3078
13401TIP3    H161618   2.486   3.332   4.981  1.2832 -0.1507  1.7788
13401TIP3    H261619   2.418   3.197   4.971  1.3953 -0.0816 -0.3384
13402TIP3   OH261620   1.290   5.487  12.000 -0.1653  0.1376 -0.3821
13402TIP3    H161621   1.288   5.445  11.915 -3.0629 -0.6262 -0.0504
13402TIP3    H261622   1.371   5.457  12.040  0.2203 -1.1881 -2.0510
13403TIP3   OH261623   1.988   2.462   0.806  0.5091 -0.1037  0.0271
13403TIP3    H161624   1.904   2.509   0.807  1.1181  1.1615  2.7554
13403TIP3    H261625   2.020   2.472   0.717 -1.6652  0.4203 -0.7715
13404TIP3   OH261626   1.022   4.673   2.997 -0.6758  0.6832 -0.3253
13404TIP3    H161627   1.111   4.665   2.963 -0.9532  0.0129 -0.9331
13404TIP3    H261628   1.017   4.605   3.064 -0.1703  1.9190  1.0101
13405TIP3   OH261629   2.655   1.493  14.197 -0.1769 -0.0547 -0.2465
13405TIP3    H161630   2.670   1.587  14.209  3.1348 -0.2549 -1.7212
13405TIP3    H261631   2.587   1.487  14.130 -0.5648  1.2634  0.0080
13406TIP3   OH261632   1.089   0.690  15.613 -0.5213 -0.3092 -0.0616
13406TIP3    H161633   1.152   0.688  15.541  1.6354  0.3536  1.7267
13406TIP3    H261634   1.043   0.606  15.606  0.3728 -0.7208 -1.5448
13407TIP3   OH261635   3.711   0.659   4.032  0.1465 -0.2558 -1.0776
13407TIP3    H161636   3.756   0.591   3.981  1.8567 -0.6249  0.7842
13407TIP3    H261637   3.766   0.670   4.110 -1.5571  1.3417 -0.0335
13408TIP3   OH261638   0.359   6.052   1.377  0.2034  0.3156 -0.0141
13408TIP3    H161639   0.273   6.070   1.342 -0.0698 -0.1827  0.3770
13408TIP3    H261640   0.348   6.059   1.472  1.0417  2.1573 -0.0016
13409TIP3   OH261641   5.420   2.219   2.999 -0.6174 -0.2055 -0.7751
13409TIP3    H161642   5.365   2.147   2.969 -1.0819 -0.3934  0.4614
13409TIP3    H261643   5.373   2.255   3.075 -0.2980  1.2737 -1.2443
13410TIP3   OH261644   0.447   6.686  14.835 -0.1756 -0.1223  0.1544
13410TIP3    H161645   0.509   6.627  14.879 -0.6485 -0.5442  0.2564
13410TIP3    H261646   0.420   6.747  14.904 -1.3197 -1.1051  0.6114
13411TIP3   OH261647   2.636   0.656  11.371 -0.1287  0.1954 -0.1052
13411TIP3    H161648   2.640   0.705  11.289 -1.6173  0.8720  0.1925
13411TIP3    H261649   2.620   0.723  11.437 -0.0088 -0.4657  0.6077
13412TIP3   OH261650   0.196   6.620   1.468  0.9873 -0.2138  0.2712
13412TIP3    H161651   0.170   6.549   1.527 -1.3045  0.0443 -0.3108
13412TIP3    H261652   0.201   6.697   1.525  0.6708 -0.3202  0.4466
13413TIP3   OH261653   1.693   1.148  11.168  0.5117 -0.8496  0.3126
13413TIP3    H161654   1.654   1.230  11.137  0.5665 -0.3608  1.4929
13413TIP3    H261655   1.624   1.083  11.155 -0.8935  0.0455  2.5978
13414TIP3   OH261656   4.729   0.722  12.784 -0.2323 -0.0086  0.1025
13414TIP3    H161657   4.654   0.677  12.745  0.1527 -0.4195 -0.1678
13414TIP3    H261658   4.740   0.681  12.869  1.5819 -2.1121 -1.0649
13415TIP3   OH261659   1.797   0.603  17.047 -0.1673  0.4859 -0.2255
13415TIP3    H161660   1.757   0.533  17.100  1.4959  1.1304  2.0233
13415TIP3    H261661   1.722   0.654  17.015 -1.2788 -0.1425  1.2345
13416TIP3   OH261662   6.684   3.200  15.324 -0.2711  0.3073 -0.6799
13416TIP3    H161663   6.635   3.134  15.276 -1.7886  0.2571  0.8311
13416TIP3    H261664   6.696   3.271  15.261 -0.8977 -0.3459 -1.5679
13417TIP3   OH261665   6.056   1.186  13.107  0.0430 -0.3515 -0.3937
13417TIP3    H161666   6.079   1.102  13.067  1.8950  0.2304 -0.6781
13417TIP3    H261667   6.123   1.247  13.075 -0.1163  0.7984  1.3198
13418TIP3   OH261668   3.280   3.094   0.329  0.6839 -0.9336  0.3178
13418TIP3    H161669   3.184   3.088   0.328  0.4954  1.0387  1.3883
13418TIP3    H261670   3.306   3.080   0.238 -0.8510  1.0036 -0.4826
13419TIP3   OH261671   1.589   2.707   3.242 -0.3079  0.7413  0.2656
13419TIP3    H161672   1.632   2.622   3.242 -0.5657  0.4905 -2.7417
13419TIP3    H261673   1.656   2.768   3.273  0.8848 -0.1845 -0.3911
13420TIP3   OH261674   0.234   2.073   5.926  0.1928 -0.4733  0.0171
13420TIP3    H161675   0.296   2.137   5.891 -0.5734 -0.9574 -2.3996
13420TIP3    H261676   0.158   2.124   5.953  0.3081 -0.1858 -0.2002
13421TIP3   OH261677   1.065   0.234  17.305 -0.0625  0.2632 -0.5676
13421TIP3    H161678   1.036   0.231  17.213  0.9909 -2.2563 -0.9172
13421TIP3    H261679   1.155   0.202  17.302  0.3116  1.0539  1.2626
13422TIP3   OH261680   4.993   5.031   1.191 -0.6151 -0.2684  0.1830
13422TIP3    H161681   5.015   4.964   1.126 -1.9903  0.0166 -0.6068
13422TIP3    H261682   4.980   5.111   1.141 -3.2660 -0.3838  0.5648
13423TIP3   OH261683   1.815   3.295   4.699 -0.3210 -0.4111  0.1936
13423TIP3    H161684   1.847   3.383   4.681 -0.6921 -0.4990 -0.9635
13423TIP3    H261685   1.762   3.304   4.779 -3.4855  1.1759 -1.8986
13424TIP3   OH261686   2.604   2.736  14.661  0.3111 -0.3163 -0.3277
13424TIP3    H161687   2.694   2.749  14.691 -0.0294 -0.6403  0.9092
13424TIP3    H261688   2.600   2.644  14.636  0.4286 -0.1999 -0.7825
13425TIP3   OH261689   3.729   5.916   0.343 -0.0984  0.1485 -0.3758
13425TIP3    H161690   3.759   5.840   0.293 -3.0676 -2.2701  1.1173
13425TIP3    H261691   3.671   5.963   0.284  0.4175  0.3105 -0.7658
13426TIP3   OH261692   0.956   4.980  16.711  0.0397 -0.2290  0.2533
13426TIP3    H161693   0.957   5.002  16.804  0.4122 -0.1878  0.2397
13426TIP3    H261694   0.929   4.888  16.709 -0.2098 -0.1591  0.3866
13427TIP3   OH261695   5.673   6.761  13.093 -0.1881  0.3786  0.2450
13427TIP3    H161696   5.578   6.763  13.085 -0.0990 -0.1533 -1.2360
13427TIP3    H261697   5.704   6.841  13.051  0.0124  0.8339  1.2238
13428TIP3   OH261698   5.008   0.521   5.541 -0.5086  0.5682 -0.4025
13428TIP3    H161699   5.063   0.488   5.471 -0.5003  0.5344 -0.3802
13428TIP3    H261700   4.974   0.604   5.508 -0.2182  0.7285 -0.3041
13429TIP3   OH261701   4.933   4.666  10.795 -0.2094  0.2326  0.1911
13429TIP3    H161702   4.892   4.749  10.819 -1.9163  0.5579 -3.1212
13429TIP3    H261703   5.020   4.690  10.762  0.5943  0.2337  2.2233
13430TIP3   OH261704   1.567   1.075   2.431 -0.0094  0.2787 -0.0340
13430TIP3    H161705   1.649   1.058   2.478 -0.2601  0.3685  0.4349
13430TIP3    H261706   1.545   0.992   2.390 -0.6733 -0.2591  1.3827
13431TIP3   OH261707   1.740   0.787   4.503  0.1854 -0.0802 -0.1091
13431TIP3    H161708   1.684   0.836   4.442  0.8097  2.4606  1.2017
13431TIP3    H261709   1.688   0.779   4.582  1.0436  0.8367  0.5679
13432TIP3   OH261710   6.544   6.280   2.603  0.4029  0.4014 -0.5914
13432TIP3    H161711   6.454   6.312   2.609 -0.2150 -1.5037  2.1671
13432TIP3    H261712   6.537   6.186   2.618  2.9181  0.3449  0.7575
13433TIP3   OH261713   1.554   4.456   1.535  0.1546 -0.8287 -0.1455
13433TIP3    H161714   1.582   4.374   1.575  0.4942  0.2731  2.0394
13433TIP3    H261715   1.472   4.478   1.580  0.2217  0.1769 -0.4811
13434TIP3   OH261716   6.355   3.129  12.455  0.4845  0.5055  0.6083
13434TIP3    H161717   6.298   3.166  12.388  0.9766 -1.0820 -0.7563
13434TIP3    H261718   6.323   3.039  12.467 -0.4161  1.0808  3.5025
13435TIP3   OH261719   2.235   0.384  13.991  1.0421 -0.6883  0.1798
13435TIP3    H161720   2.161   0.330  13.963  0.4393  0.3522 -0.3021
13435TIP3    H261721   2.306   0.322  14.005  0.2171 -1.6645  0.1853
13436TIP3   OH261722   3.702   4.974  15.604 -0.2497  0.0691 -0.0994
13436TIP3    H161723   3.779   4.928  15.638 -0.9031 -0.7648  0.2908
13436TIP3    H261724   3.627   4.927  15.641 -0.9594  1.4963  0.3668
13437TIP3   OH261725   5.396   4.527  13.528 -0.3051  0.2694 -0.0084
13437TIP3    H161726   5.375   4.617  13.503  0.6235  0.1670 -1.2224
13437TIP3    H261727   5.412   4.482  13.445  3.1159 -0.0496  0.6982
13438TIP3   OH261728   0.787   6.601  13.843 -0.4346 -0.3206 -0.1237
13438TIP3    H161729   0.758   6.539  13.910  0.1960  1.1552  1.6180
13438TIP3    H261730   0.715   6.603  13.780 -2.0103 -0.3009  1.5613
13439TIP3   OH261731   3.364   4.650  12.352 -0.1097 -0.3221 -0.1129
13439TIP3    H161732   3.370   4.602  12.269  1.0721 -0.3216 -0.0510
13439TIP3    H261733   3.424   4.724  12.341 -1.0602  0.5235  0.2071
13440TIP3   OH261734   5.009   2.790   1.015  1.1487  0.4250  0.4123
13440TIP3    H161735   4.973   2.712   0.974 -1.5866  1.6714  0.2038
13440TIP3    H261736   5.010   2.770   1.109  0.3657  0.1542  0.3672
13441TIP3   OH261737   3.485   3.753  13.947 -0.0415 -0.3162 -0.1707
13441TIP3    H161738   3.453   3.665  13.927 -0.1105 -0.1834 -0.6548
13441TIP3    H261739   3.452   3.808  13.875  1.1705 -0.1511 -0.6141
13442TIP3   OH261740   4.193   5.547   0.839 -0.1228 -0.1519 -0.3115
13442TIP3    H161741   4.120   5.493   0.869  0.2585 -0.3077  0.3438
13442TIP3    H261742   4.155   5.634   0.827  0.0151  0.2832  2.0440
13443TIP3   OH261743   5.047   5.578  12.744  0.4214  0.1692  0.4728
13443TIP3    H161744   5.026   5.573  12.651 -0.2366  1.9620  0.4941
13443TIP3    H261745   4.964   5.562  12.788  0.8720 -1.4265  0.8092
13444TIP3   OH261746   4.600   0.227   4.125 -0.1700 -0.0842 -0.1128
13444TIP3    H161747   4.633   0.192   4.043  0.2917 -0.8115  0.3780
13444TIP3    H261748   4.509   0.250   4.106 -0.3579 -1.1499 -0.5644
13445TIP3   OH261749   0.363   1.166  12.656 -0.0198  0.2839 -0.4079
13445TIP3    H161750   0.315   1.141  12.576 -1.3241 -0.8245  0.6626
13445TIP3    H261751   0.407   1.086  12.684 -0.8184  0.2337  0.7918
13446TIP3   OH261752   2.482   4.956   4.360  0.3504 -0.3005  0.4991
13446TIP3    H161753   2.395   4.947   4.399 -0.1173  0.5670 -0.3320
13446TIP3    H261754   2.481   5.040   4.315  1.2453 -0.7731 -0.4641
13447TIP3   OH261755   3.540   4.674  15.195 -0.5533 -0.8067 -0.2416
13447TIP3    H161756   3.616   4.733  15.189 -1.7233  0.7646 -0.2204
13447TIP3    H261757   3.566   4.609  15.260  0.5481  0.0524  0.2191
13448TIP3   OH261758   3.718   0.737   0.558  0.1527 -0.3438 -0.5878
13448TIP3    H161759   3.786   0.670   0.556 -1.3031 -1.8804 -0.5680
13448TIP3    H261760   3.752   0.804   0.618  0.6088 -2.2470  1.4130
13449TIP3   OH261761   4.085   6.645   3.114  0.3665  0.0671  0.1543
13449TIP3    H161762   4.041   6.600   3.043 -0.0957  0.6127  0.0886
13449TIP3    H261763   4.087   6.737   3.087  1.6310  0.0519  0.1078
13450TIP3   OH261764   0.062   5.214   0.792 -0.6883  0.2801  0.2020
13450TIP3    H161765  -0.031   5.229   0.809 -0.6749  0.9504 -0.2873
13450TIP3    H261766   0.107   5.255   0.866 -0.7791 -0.2415  0.5574
13451TIP3   OH261767   0.849   0.440   0.867  0.0182 -0.0091 -0.0685
13451TIP3    H161768   0.884   0.379   0.801 -1.4778 -0.1491 -0.7850
13451TIP3    H261769   0.824   0.517   0.817  0.2907  0.5039  0.5806
13452TIP3   OH261770   6.362   5.403  13.420 -0.1136  0.4109 -0.0973
13452TIP3    H161771   6.430   5.374  13.481 -0.4905  0.6295  0.4369
13452TIP3    H261772   6.294   5.336  13.427 -0.5310  0.8698  0.3665
13453TIP3   OH261773   3.121   1.718   3.254  0.3468  0.1222 -0.5922
13453TIP3    H161774   3.053   1.724   3.186  0.2936  1.3197 -0.4495
13453TIP3    H261775   3.118   1.802   3.299  0.7179 -0.4708  0.5971
13454TIP3   OH261776   5.570   5.161  14.565  0.2208 -0.3732  0.3089
13454TIP3    H161777   5.483   5.158  14.606 -0.2055 -1.4876 -0.6476
13454TIP3    H261778   5.553   5.150  14.472  1.3772 -0.2878  0.0767
13455TIP3   OH261779   2.803   5.885   2.690  0.1172 -0.1892 -0.0083
13455TIP3    H161780   2.898   5.879   2.702  0.3006  1.6805 -0.2987
13455TIP3    H261781   2.782   5.816   2.627  1.3239 -0.4000 -0.1946
13456TIP3   OH261782   5.010   4.462  12.097 -0.1147  0.3834 -0.0197
13456TIP3    H161783   4.963   4.537  12.062  0.0214  0.1650 -0.6716
13456TIP3    H261784   5.042   4.415  12.020 -1.4079 -1.1357  0.3296
13457TIP3   OH261785   4.825   2.293  14.733 -0.3623  0.2895 -0.6223
13457TIP3    H161786   4.828   2.198  14.735  1.8595  0.3090  0.6121
13457TIP3    H261787   4.810   2.315  14.641  0.1225 -1.2424 -1.0957
13458TIP3   OH261788   1.740   5.482   1.215  0.0693 -0.3864 -0.3202
13458TIP3    H161789   1.816   5.494   1.157  0.5098 -2.1129 -0.1647
13458TIP3    H261790   1.775   5.490   1.303 -0.1353 -0.1104 -0.2643
13459TIP3   OH261791   3.906   3.152   4.635  0.0886 -0.3013 -0.2240
13459TIP3    H161792   3.932   3.190   4.719 -1.2451 -0.3705  0.2303
13459TIP3    H261793   3.878   3.227   4.583  0.1629 -0.3458 -0.3270
13460TIP3   OH261794   6.153   3.405   6.315 -0.4106 -0.4737 -0.2926
13460TIP3    H161795   6.224   3.434   6.372 -1.0607  1.9318 -0.6304
13460TIP3    H261796   6.111   3.333   6.363  0.4263  0.0210  1.2262
13461TIP3   OH261797   1.258   6.369   2.673  0.6578 -0.0852  0.2444
13461TIP3    H161798   1.280   6.319   2.752  0.8987  0.0656  0.2763
13461TIP3    H261799   1.319   6.443   2.675  2.0375 -1.1304 -1.1249
13462TIP3   OH261800   5.283   5.633   1.629 -0.2256 -0.3645  0.0055
13462TIP3    H161801   5.321   5.705   1.680 -0.1117 -1.5959  1.7593
13462TIP3    H261802   5.224   5.589   1.690 -0.9232 -1.2785 -1.2825
13463TIP3   OH261803   3.220   5.535  16.759  0.3015 -0.3586  0.0317
13463TIP3    H161804   3.214   5.540  16.664  1.2028  1.3545  0.0302
13463TIP3    H261805   3.310   5.506  16.776 -0.1733 -1.7016  0.3692
13464TIP3   OH261806   3.843   2.069   6.541 -0.2615 -0.3653 -0.5052
13464TIP3    H161807   3.883   1.985   6.564  0.9008 -0.2229 -1.8690
13464TIP3    H261808   3.773   2.080   6.605  1.4256 -0.9554  1.5657
13465TIP3   OH261809   6.573   3.707   0.097 -0.3287 -0.4976 -0.6416
13465TIP3    H161810   6.533   3.680   0.180  0.2599  1.5882  0.3859
13465TIP3    H261811   6.499   3.720   0.038 -0.8968 -0.3400  0.0910
13466TIP3   OH261812   2.597   1.334  17.278  0.1879 -0.2272  0.3243
13466TIP3    H161813   2.660   1.396  17.241  2.4089 -1.3034  2.0542
13466TIP3    H261814   2.591   1.265  17.213 -1.1618  1.0379 -0.9527
13467TIP3   OH261815   5.522   5.226   3.596  0.4440  0.0222 -0.0155
13467TIP3    H161816   5.504   5.132   3.601 -1.0118  0.3318  1.9855
13467TIP3    H261817   5.607   5.237   3.638  0.2401 -0.3370  0.5082
13468TIP3   OH261818   1.888   1.502   2.103  0.1009  0.4189  0.4171
13468TIP3    H161819   1.874   1.467   2.015  0.5323  1.0540  0.0866
13468TIP3    H261820   1.971   1.463   2.132  0.4946  1.0098  0.1162
13469TIP3   OH261821   6.626   1.487  13.320  0.3521  0.3000 -0.4419
13469TIP3    H161822   6.700   1.535  13.357 -0.8204  1.1922  0.8506
13469TIP3    H261823   6.619   1.408  13.375  0.1587  0.3732 -0.3605
13470TIP3   OH261824   3.558   3.767   1.142  0.0769  0.5632  0.5694
13470TIP3    H161825   3.500   3.705   1.098  1.1454  0.2343 -0.4231
13470TIP3    H261826   3.500   3.835   1.176 -0.8462  0.5355 -0.8694
13471TIP3   OH261827   2.001   5.326  12.817  0.4651  0.4680 -0.0627
13471TIP3    H161828   1.922   5.355  12.771 -0.6422 -3.3692 -0.9063
13471TIP3    H261829   2.062   5.303  12.748  0.2697 -1.5889  0.3877
13472TIP3   OH261830   4.709   0.757  13.540 -0.5907 -0.0129  0.0955
13472TIP3    H161831   4.676   0.719  13.621  1.6001 -2.6858 -0.1267
13472TIP3    H261832   4.787   0.706  13.519  0.0062  1.8117 -2.7254
13473TIP3   OH261833   5.309   0.131  17.059  0.1556  0.0329  0.3541
13473TIP3    H161834   5.385   0.186  17.078  1.8071 -1.7673 -0.6344
13473TIP3    H261835   5.251   0.144  17.134  0.7290  2.5670  0.4581
13474TIP3   OH261836   3.502   1.303  15.341 -0.0977  0.0704  0.2098
13474TIP3    H161837   3.542   1.335  15.260 -1.7729 -0.6288 -0.9519
13474TIP3    H261838   3.441   1.373  15.367 -0.3431 -0.1599  0.2619
13475TIP3   OH261839   3.722   6.114  14.737  0.1130  0.6771  0.2393
13475TIP3    H161840   3.672   6.049  14.787 -0.1734  0.6778 -0.0394
13475TIP3    H261841   3.726   6.078  14.649  0.4881  0.7468  0.2255
13476TIP3   OH261842   5.790   5.247  17.103  0.4244  0.3176  0.1489
13476TIP3    H161843   5.739   5.323  17.131  0.1779  0.1651  0.1161
13476TIP3    H261844   5.726   5.178  17.089  0.6403  0.1205  0.1113
13477TIP3   OH261845   0.220   6.517  13.130 -0.0384  0.1251  0.5367
13477TIP3    H161846   0.152   6.451  13.118  1.6099 -1.5704 -0.0669
13477TIP3    H261847   0.200   6.558  13.214 -0.8115 -1.5472  1.2135
13478TIP3   OH261848   3.365   1.884   3.034  0.2918  0.0951 -0.5654
13478TIP3    H161849   3.360   1.789   3.036 -1.1091  0.1396 -0.7302
13478TIP3    H261850   3.331   1.907   2.947 -0.1855  0.7664 -0.2105
13479TIP3   OH261851   2.904   4.468  12.449  0.3393 -0.4525  0.1107
13479TIP3    H161852   2.820   4.424  12.463 -0.3103  0.7654  0.2516
13479TIP3    H261853   2.934   4.489  12.538  0.0988  0.3169  0.0232
13480TIP3   OH261854   6.250   3.048  14.792 -0.3039 -0.0399 -0.3808
13480TIP3    H161855   6.278   3.081  14.877 -0.7179 -0.7413  0.0384
13480TIP3    H261856   6.167   3.003  14.809  0.3380 -1.4812 -0.8654
13481TIP3   OH261857   6.270   4.121  13.207  0.7509 -0.6946 -0.3925
13481TIP3    H161858   6.308   4.098  13.122 -1.9014  0.4200 -1.9951
13481TIP3    H261859   6.315   4.063  13.269  3.6181 -0.7398 -2.3188
13482TIP3   OH261860   1.915   1.932   2.327  0.0553  0.1683  0.1873
13482TIP3    H161861   1.929   1.861   2.265  0.9759  1.4823 -1.1664
13482TIP3    H261862   1.962   1.904   2.406 -0.5533 -1.2086  0.0869
13483TIP3   OH261863   3.122   2.570   6.136  0.0215  0.1102  0.1911
13483TIP3    H161864   3.187   2.500   6.121  0.6430  0.5678  0.6986
13483TIP3    H261865   3.075   2.543   6.215  0.3696  0.3414  0.4789
13484TIP3   OH261866   4.717   1.646  13.403 -0.8513 -0.0564  1.1726
13484TIP3    H161867   4.659   1.688  13.467  0.1531 -1.2366  2.9333
13484TIP3    H261868   4.706   1.698  13.323 -1.4614  2.0490  2.5541
13485TIP3   OH261869   0.957   5.353  14.558  0.3821  0.5284 -0.0451
13485TIP3    H161870   0.874   5.401  14.572  0.7986  1.3738 -0.3902
13485TIP3    H261871   1.005   5.407  14.495  2.2174  1.3375  1.9134
13486TIP3   OH261872   2.016   5.713  16.032 -0.1712  0.1600 -0.0226
13486TIP3    H161873   1.962   5.724  15.954  0.7020  1.2350 -0.4944
13486TIP3    H261874   1.978   5.637  16.076 -1.6204  0.4471 -0.7028
13487TIP3   OH261875   1.101   6.191  13.598 -0.2810 -0.2936 -0.5078
13487TIP3    H161876   1.103   6.231  13.685 -0.9200  0.5275 -0.8685
13487TIP3    H261877   1.009   6.168  13.584 -0.4656  1.0218 -1.6141
13488TIP3   OH261878   5.289   5.456   4.798  0.7437  0.0169 -0.8599
13488TIP3    H161879   5.273   5.363   4.816 -1.1640  0.4576 -0.0270
13488TIP3    H261880   5.230   5.476   4.725 -0.8074  1.1164  0.6124
13489TIP3   OH261881   2.654   2.313   0.919 -0.4279 -0.1482  0.0773
13489TIP3    H161882   2.597   2.376   0.963  0.5558  0.6929  0.1879
13489TIP3    H261883   2.680   2.251   0.988  1.0080  1.0905  0.7075
13490TIP3   OH261884   2.370   1.863  10.734 -0.2074 -0.3549  0.3701
13490TIP3    H161885   2.279   1.872  10.708 -0.0185  0.9716  0.1027
13490TIP3    H261886   2.404   1.953  10.737  1.6911 -0.8750 -1.8174
13491TIP3   OH261887   5.823   6.244  14.165 -0.1648  0.2901 -0.2917
13491TIP3    H161888   5.894   6.282  14.216 -0.2310 -0.2814  0.2429
13491TIP3    H261889   5.859   6.234  14.077  0.0707  0.9514 -0.2765
13492TIP3   OH261890   1.745   5.241   2.780 -0.0121  0.5882  0.2389
13492TIP3    H161891   1.790   5.323   2.760  2.1281 -0.9809 -2.0125
13492TIP3    H261892   1.796   5.174   2.735 -2.3392 -1.8823  0.9931
13493TIP3   OH261893   5.546   0.669   4.014  0.5937 -0.3521  0.4098
13493TIP3    H161894   5.594   0.697   4.092  1.7996 -1.5890  0.1613
13493TIP3    H261895   5.463   0.637   4.048  0.7263 -0.0165  1.0834
13494TIP3   OH261896   4.230   6.045   0.587 -0.0125  0.1455 -0.0613
13494TIP3    H161897   4.195   6.108   0.650  0.8917  1.1726 -0.5474
13494TIP3    H261898   4.302   6.091   0.544  0.5201 -1.1412 -0.6214
13495TIP3   OH261899   6.114   6.044   3.764  0.2687 -0.3502 -0.0398
13495TIP3    H161900   6.196   6.063   3.719 -0.0073  0.7251 -0.1060
13495TIP3    H261901   6.136   5.974   3.826  0.9118 -1.0351 -1.0126
13496TIP3   OH261902   6.138   3.518   4.903  0.3071  0.0315 -0.1225
13496TIP3    H161903   6.109   3.440   4.855  0.1640 -0.3936  0.6335
13496TIP3    H261904   6.146   3.586   4.837  0.0130 -0.5162 -0.7273
13497TIP3   OH261905   5.329   3.326  16.827 -0.5481 -0.1589 -0.0353
13497TIP3    H161906   5.377   3.353  16.749  1.0661 -0.1419  0.9403
13497TIP3    H261907   5.285   3.405  16.857  0.4670  0.3240  0.2098
13498TIP3   OH261908   6.595   4.607  11.615 -0.0435 -0.6831 -0.5003
13498TIP3    H161909   6.550   4.680  11.572  1.3459 -0.0364 -0.8994
13498TIP3    H261910   6.545   4.593  11.696  0.1766  1.3078  0.0227
13499TIP3   OH261911   0.503   0.816   2.555  0.0142  0.0451 -0.3209
13499TIP3    H161912   0.420   0.850   2.588  0.9144  0.6768  1.4381
13499TIP3    H261913   0.506   0.726   2.586  0.3583  0.2904  0.3727
13500TIP3   OH261914   1.576   1.469  12.062 -0.3052 -0.1691  0.2238
13500TIP3    H161915   1.667   1.482  12.090 -0.5833  0.0886  1.0430
13500TIP3    H261916   1.569   1.520  11.981  0.5878 -1.1365 -0.5058
13501TIP3   OH261917   5.118   4.827  11.061  0.0182 -0.5090  0.1198
13501TIP3    H161918   5.076   4.812  11.145 -2.2950 -0.0823 -0.8903
13501TIP3    H261919   5.047   4.854  11.003  1.8209  1.0676 -1.5106
13502TIP3   OH261920   6.444   2.291   1.978 -0.1864 -0.8037 -0.2516
13502TIP3    H161921   6.464   2.351   2.050  0.0646  0.2030 -1.1431
13502TIP3    H261922   6.348   2.289   1.976 -0.1968 -0.7162  0.0039
13503TIP3   OH261923   0.151   5.102  13.187 -0.1044  0.1348 -0.3376
13503TIP3    H161924   0.172   5.193  13.163 -1.9250  0.7163  0.1483
13503TIP3    H261925   0.152   5.102  13.282 -1.6622  0.0739 -0.2933
13504TIP3   OH261926   0.015   6.654  11.924 -0.3773 -0.4002 -0.1818
13504TIP3    H161927   0.102   6.645  11.886 -0.2627  1.9200 -0.6266
13504TIP3    H261928   0.029   6.649  12.019  0.5835  1.6770 -0.1457
13505TIP3   OH261929   1.474   3.317  14.908 -0.0786  0.2496 -0.6725
13505TIP3    H161930   1.528   3.272  14.843  1.0384 -0.8214  0.9204
13505TIP3    H261931   1.502   3.409  14.902  0.3568  0.0877 -1.3537
13506TIP3   OH261932   5.620   2.900   0.069 -0.1076  0.2750 -0.4456
13506TIP3    H161933   5.707   2.877   0.036  0.3663 -0.4667  1.2196
13506TIP3    H261934   5.626   2.993   0.092  0.1376  0.3068 -0.6381
13507TIP3   OH261935   5.455   2.249   0.630 -0.1289 -0.0537  0.2806
13507TIP3    H161936   5.396   2.256   0.705 -0.9700 -0.6392 -0.3049
13507TIP3    H261937   5.476   2.156   0.625  0.1898  0.0318 -0.0110
13508TIP3   OH261938   2.885   1.408   5.025  0.3729  0.2673 -0.0644
13508TIP3    H161939   2.922   1.489   5.059 -0.0951  1.1264 -1.4779
13508TIP3    H261940   2.956   1.368   4.975  0.3382  0.2891 -0.1326
13509TIP3   OH261941   1.588   0.976   4.335 -0.7454 -0.3015  0.1523
13509TIP3    H161942   1.503   0.978   4.292 -0.9943  3.0487  0.5510
13509TIP3    H261943   1.651   0.991   4.265 -0.6901 -0.3002  0.2018
13510TIP3   OH261944   3.158   1.716  11.630 -0.2436  0.0435 -0.0062
13510TIP3    H161945   3.218   1.743  11.560  0.3353  0.5682  0.6859
13510TIP3    H261946   3.214   1.701  11.706 -0.9881  0.5637  0.6637
13511TIP3   OH261947   0.008   6.279  11.890  0.0415  0.1393  0.4189
13511TIP3    H161948  -0.051   6.339  11.936  1.8289  2.7525 -0.5497
13511TIP3    H261949  -0.033   6.266  11.805 -0.0731  0.4268  0.4299
13512TIP3   OH261950   0.375   5.046   0.937 -0.1441 -0.1582  0.1405
13512TIP3    H161951   0.469   5.046   0.920 -0.1924 -0.1406 -0.1243
13512TIP3    H261952   0.338   5.106   0.873 -0.5772 -1.7339 -1.1464
13513TIP3   OH261953   3.972   1.870   6.680 -0.8903  0.4928 -0.1130
13513TIP3    H161954   4.062   1.902   6.676 -0.6162 -0.1132  0.6966
13513TIP3    H261955   3.973   1.806   6.751 -1.7739 -0.1356 -0.6438
13514TIP3   OH261956   0.923   1.662   2.384  0.9479 -0.2891  0.5190
13514TIP3    H161957   0.916   1.661   2.289 -0.0467 -0.9274  0.5858
13514TIP3    H261958   1.004   1.616   2.403  0.4147 -1.4850  0.0170
13515TIP3   OH261959   2.731   4.599  12.184  0.3541  0.0718  0.0410
13515TIP3    H161960   2.780   4.531  12.138  1.2320  0.5502  0.2595
13515TIP3    H261961   2.662   4.551  12.231  0.4870 -0.5833 -0.4210
13516TIP3   OH261962   1.873   3.934  12.761 -0.3112  0.4399  0.0853
13516TIP3    H161963   1.814   3.986  12.816  0.6404  0.4207  1.1588
13516TIP3    H261964   1.950   3.918  12.816 -0.3670 -1.7299 -0.3745
13517TIP3   OH261965   6.212   3.833   0.575 -0.3647  0.3321 -0.3011
13517TIP3    H161966   6.148   3.803   0.510  1.5073  0.8588 -2.5372
13517TIP3    H261967   6.285   3.865   0.523  1.0836  1.2257  2.1208
13518TIP3   OH261968   2.238   4.893  14.831  0.1060 -0.0886 -0.1119
13518TIP3    H161969   2.148   4.924  14.836 -0.1411 -0.7249 -0.3976
13518TIP3    H261970   2.238   4.814  14.885  0.6893  0.3432  0.5227
13519TIP3   OH261971   6.348   2.048  15.348 -0.3822 -0.1058 -0.3210
13519TIP3    H161972   6.285   2.035  15.277  1.0964 -2.3763 -1.3067
13519TIP3    H261973   6.318   1.990  15.418 -0.4887  0.3212 -0.0097
13520TIP3   OH261974   1.299   3.885   1.004 -0.1428  1.0876 -0.0416
13520TIP3    H161975   1.276   3.869   1.096 -0.7233  0.8113 -0.2329
13520TIP3    H261976   1.256   3.815   0.956 -0.1160  1.4251 -0.5643
13521TIP3   OH261977   6.423   5.859  12.855 -0.0551  0.4081 -0.8885
13521TIP3    H161978   6.370   5.923  12.901 -0.9445  0.9341 -2.5580
13521TIP3    H261979   6.392   5.774  12.887 -1.3261  0.7360 -1.2023
13522TIP3   OH261980   3.328   5.635  11.197 -0.3300  0.0591 -0.2248
13522TIP3    H161981   3.309   5.600  11.110 -0.2806 -1.2427  0.2706
13522TIP3    H261982   3.391   5.705  11.182  0.2647 -0.6621 -1.1693
13523TIP3   OH261983   4.768   2.631   0.771  0.1273  0.2048 -0.5647
13523TIP3    H161984   4.752   2.555   0.715  3.3913 -0.3247 -1.0004
13523TIP3    H261985   4.792   2.594   0.855 -0.5971  0.8603 -0.0585
13524TIP3   OH261986   1.179   6.013  12.030 -0.9896 -0.7450 -0.0064
13524TIP3    H161987   1.226   5.930  12.020 -0.0700 -0.3636  0.9796
13524TIP3    H261988   1.126   6.020  11.950  0.4488 -1.2995 -1.0478
13525TIP3   OH261989   2.866   2.064   2.458 -0.4829 -0.3929 -0.1942
13525TIP3    H161990   2.783   2.022   2.432 -0.9849  0.6768 -0.3547
13525TIP3    H261991   2.915   2.071   2.376 -0.8297  0.2698 -0.3486
13526TIP3   OH261992   2.474   3.730   5.317 -0.5548 -0.4828  0.0024
13526TIP3    H161993   2.454   3.708   5.408  1.3197 -0.2091  0.5209
13526TIP3    H261994   2.565   3.758   5.319 -1.1140  1.6522 -1.6156
13527TIP3   OH261995   4.718   4.313  16.528  0.6476 -0.3479  0.5933
13527TIP3    H161996   4.705   4.250  16.457  2.5608 -0.1600  0.0265
13527TIP3    H261997   4.796   4.283  16.574  1.1597  1.1775  0.7810
13528TIP3   OH261998   1.253   2.889  13.993  0.4537  0.1334 -0.0300
13528TIP3    H161999   1.304   2.824  13.945  2.1913 -0.7217  2.7503
13528TIP3    H262000   1.272   2.972  13.949  1.6397 -0.6380 -1.0386
13529TIP3   OH262001   1.370   3.808  14.758 -0.0244  0.3257  0.6833
13529TIP3    H162002   1.359   3.719  14.727 -0.5070  0.4812  0.3983
13529TIP3    H262003   1.452   3.807  14.807 -0.8388 -0.6570  2.0732
13530TIP3   OH262004   4.153   3.431   3.948 -0.5543 -0.1803  0.0541
13530TIP3    H162005   4.081   3.368   3.955 -0.9389  0.4099  1.8447
13530TIP3    H262006   4.201   3.423   4.031 -0.5091  1.7288  0.2525
13531TIP3   OH262007   1.353   5.701   3.767  0.1965 -0.0649  0.2010
13531TIP3    H162008   1.321   5.791   3.772 -0.8398 -0.4282  0.3502
13531TIP3    H262009   1.448   5.709   3.765  0.1149  1.0254  0.3362
13532TIP3   OH262010   1.562   6.644  17.374 -0.0153  0.4212  0.0117
13532TIP3    H162011   1.584   6.697  17.298 -0.2220  0.1342 -0.2473
13532TIP3    H262012   1.467   6.636  17.371  0.0305 -0.0850 -0.0258
13533TIP3   OH262013   3.546   6.691   0.519  0.2576  0.1562 -0.3668
13533TIP3    H162014   3.542   6.784   0.542  1.2779  0.5573 -1.6857
13533TIP3    H262015   3.622   6.683   0.462 -0.6939 -1.2013 -1.5356
13534TIP3   OH262016   2.267   6.368   5.136 -0.2393 -0.2998 -0.3152
13534TIP3    H162017   2.331   6.439   5.139 -0.6548  0.1989 -1.8749
13534TIP3    H262018   2.182   6.413   5.142 -0.4762 -0.8001  0.1115
13535TIP3   OH262019   0.704   3.464  13.190 -0.4253 -0.5116 -0.0269
13535TIP3    H162020   0.650   3.483  13.113  0.2191  0.0912 -0.3378
13535TIP3    H262021   0.759   3.390  13.163  2.1457  1.7185 -1.3629
13536TIP3   OH262022   5.999   5.629   1.052 -0.0168  0.5178 -0.0940
13536TIP3    H162023   5.971   5.647   0.962  0.0336  0.2876 -0.1547
13536TIP3    H262024   6.011   5.716   1.091 -4.6272  0.8635  1.1425
13537TIP3   OH262025   2.364   0.241  14.307 -0.1184  0.4782 -0.4767
13537TIP3    H162026   2.458   0.260  14.310 -0.1227  0.3888  0.2560
13537TIP3    H262027   2.355   0.159  14.354 -0.3442 -0.4308 -2.0345
13538TIP3   OH262028   4.401   5.405   5.544 -0.0414 -0.8551  0.7730
13538TIP3    H162029   4.463   5.457   5.597  1.0152 -1.3038  0.0062
13538TIP3    H262030   4.380   5.330   5.599 -1.3710  0.2045  1.7833
13539TIP3   OH262031   1.950   6.347   2.318 -0.5952  0.3457  0.1276
13539TIP3    H162032   1.893   6.287   2.269  0.3272 -0.6889  0.2743
13539TIP3    H262033   1.921   6.338   2.409  0.8175 -1.4681  0.4671
13540TIP3   OH262034   5.009   5.676  14.222 -0.1601 -0.1208  0.3333
13540TIP3    H162035   5.066   5.653  14.149 -0.8338  0.9116 -0.5593
13540TIP3    H262036   5.043   5.760  14.254 -0.5655  0.0036  0.4440
13541TIP3   OH262037   1.498   3.154  11.864 -0.1923 -0.5166  0.0839
13541TIP3    H162038   1.468   3.130  11.777  0.1566  0.6757 -0.3886
13541TIP3    H262039   1.564   3.222  11.849 -0.2725 -0.1406  1.2793
13542TIP3   OH262040   6.329   0.199  13.112  0.3644  0.2928 -0.0134
13542TIP3    H162041   6.324   0.245  13.197  0.2321 -1.2263  0.8342
13542TIP3    H262042   6.263   0.243  13.058 -1.1473 -0.1327  1.4056
13543TIP3   OH262043   2.460   1.371   0.456  0.0338 -1.1655 -0.3460
13543TIP3    H162044   2.486   1.458   0.428  2.0050 -1.7363 -0.4252
13543TIP3    H262045   2.364   1.374   0.459  0.0420  0.7856 -0.9664
13544TIP3   OH262046   1.667   4.075   2.934 -0.0289  0.0512 -0.3770
13544TIP3    H162047   1.647   4.126   3.013 -0.2240 -0.1578 -0.2939
13544TIP3    H262048   1.613   4.114   2.866 -0.4691 -0.2995 -0.2267
13545TIP3   OH262049   3.767   6.269   0.723 -0.1664 -0.4602 -0.2227
13545TIP3    H162050   3.781   6.203   0.790  1.9063 -0.9575 -1.0906
13545TIP3    H262051   3.764   6.352   0.771  0.3196 -0.8921  0.5708
13546TIP3   OH262052   3.591   0.756  16.068  0.0497 -0.0377 -0.2223
13546TIP3    H162053   3.611   0.763  16.161 -1.5138  1.9237  0.0409
13546TIP3    H262054   3.515   0.812  16.056  0.3790 -0.0244 -2.7439
13547TIP3   OH262055   4.905   2.009   5.766  0.2251  0.2872 -0.8150
13547TIP3    H162056   4.857   2.041   5.689 -1.6164  0.0030  0.1375
13547TIP3    H262057   4.852   2.038   5.840  1.9048  0.4737  0.3608
13548TIP3   OH262058   4.233   4.274  17.279 -0.8149 -0.3016 -0.5425
13548TIP3    H162059   4.204   4.200  17.226 -1.5575 -0.5076  0.1335
13548TIP3    H262060   4.328   4.272  17.273 -0.8777 -0.1503 -2.0844
13549TIP3   OH262061   1.923   0.280  16.516 -0.2164  0.4666 -0.6762
13549TIP3    H162062   1.977   0.352  16.482  0.1562  0.9409  0.8666
13549TIP3    H262063   1.964   0.201  16.479  0.6593  0.9095 -0.6930
13550TIP3   OH262064   2.283   5.587   1.186 -0.1625 -0.3210 -0.0668
13550TIP3    H162065   2.261   5.668   1.232  1.9122  0.4240 -0.2674
13550TIP3    H262066   2.364   5.608   1.139  0.9828 -2.7636  0.6352
13551TIP3   OH262067   6.531   0.818  15.588 -0.0571  0.2237  0.4569
13551TIP3    H162068   6.618   0.787  15.563 -0.1537  0.3286 -0.0280
13551TIP3    H262069   6.541   0.912  15.597  0.1586  0.0976  1.6008
13552TIP3   OH262070   5.629   2.404  11.598 -0.3232  0.2863  0.2164
13552TIP3    H162071   5.577   2.463  11.543 -0.7973  0.9968  1.3706
13552TIP3    H262072   5.713   2.448  11.607  0.1777 -0.4091 -0.8861
13553TIP3   OH262073   5.046   4.360  15.248  0.2276 -0.0582 -0.0296
13553TIP3    H162074   5.119   4.381  15.190 -1.0721  0.4368 -1.5617
13553TIP3    H262075   4.970   4.404  15.208 -0.6650  0.6574  2.2748
13554TIP3   OH262076   2.867   4.259  14.385 -1.0190 -0.1387 -0.6402
13554TIP3    H162077   2.823   4.259  14.300  1.8128 -0.7530 -2.2263
13554TIP3    H262078   2.868   4.167  14.411  0.7717 -0.4017 -1.4965
13555TIP3   OH262079   1.939   2.641   1.742  0.9225  0.0453  0.1352
13555TIP3    H162080   1.984   2.617   1.823 -1.7477 -1.8521  1.1790
13555TIP3    H262081   1.851   2.604   1.750  0.3832  0.1043 -3.4683
13556TIP3   OH262082   3.412   1.112  14.643  0.3991  0.1651 -0.5726
13556TIP3    H162083   3.461   1.182  14.600 -0.8025  0.4808 -1.4822
13556TIP3    H262084   3.469   1.035  14.637  1.6512  0.9870  0.2725
13557TIP3   OH262085   4.529   4.904   3.471  0.4183  0.2864  0.7630
13557TIP3    H162086   4.492   4.931   3.387 -0.4350 -2.8016  0.0168
13557TIP3    H262087   4.620   4.881   3.451  0.6706  1.0311  1.0374
13558TIP3   OH262088   5.922   0.977  11.245 -0.0043  0.3416 -0.3730
13558TIP3    H162089   5.981   1.050  11.260  0.1755  0.2444 -0.5998
13558TIP3    H262090   5.858   1.009  11.181  0.0070  0.3362 -0.3866
13559TIP3   OH262091   2.578   0.057  15.047 -0.1617 -0.2898  0.2538
13559TIP3    H162092   2.653   0.091  15.095 -0.4236 -0.6900  0.9632
13559TIP3    H262093   2.613   0.030  14.962  0.3632  0.1496  0.3313
13560TIP3   OH262094   0.615   5.072   1.520 -0.0179  0.1662 -0.5970
13560TIP3    H162095   0.653   5.115   1.443  3.1367  0.6558  1.0419
13560TIP3    H262096   0.597   5.143   1.581  2.0314 -0.4511  0.8391
13561TIP3   OH262097   1.117   0.771   3.089  0.0417 -0.1955 -0.4390
13561TIP3    H162098   1.195   0.824   3.107  0.0334  0.1034 -1.2450
13561TIP3    H262099   1.152   0.685   3.066  0.1330 -0.0980 -0.6724
13562TIP3   OH262100   4.749   1.398  15.786  0.2253  0.9297 -0.9131
13562TIP3    H162101   4.803   1.430  15.713  3.5317 -2.4801 -0.2733
13562TIP3    H262102   4.804   1.413  15.864 -1.0818  0.0308  0.2198
13563TIP3   OH262103   1.343   4.354   3.479 -0.3431  0.0869 -0.4678
13563TIP3    H162104   1.326   4.439   3.519  0.0798  0.2912 -0.7115
13563TIP3    H262105   1.309   4.290   3.541  2.0850  0.2961  1.2110
13564TIP3   OH262106   4.978   1.617  12.559  0.1211 -0.1402 -0.3733
13564TIP3    H162107   5.031   1.697  12.561 -0.5564  0.3115 -0.1762
13564TIP3    H262108   4.932   1.621  12.475 -1.9375  1.0423  0.7270
13565TIP3   OH262109   6.227   1.210   2.665  0.4440  0.7245 -0.0396
13565TIP3    H162110   6.239   1.145   2.595  1.9913  0.2205  0.6405
13565TIP3    H262111   6.313   1.252   2.673 -0.1625  1.9119  0.4699
13566TIP3   OH262112   3.470   1.831   0.200  0.2045  0.2509 -0.7443
13566TIP3    H162113   3.479   1.860   0.291 -1.9090  0.2104 -0.4708
13566TIP3    H262114   3.435   1.907   0.154  0.0112 -0.1320 -1.2380
13567TIP3   OH262115   1.910   5.035   3.464 -0.2874 -0.3325 -0.0981
13567TIP3    H162116   1.818   5.031   3.490 -0.7613 -1.4393 -1.7765
13567TIP3    H262117   1.908   5.070   3.375  0.9850  0.3193  0.1128
13568TIP3   OH262118   1.828   6.702  11.973 -0.2189  0.2943 -0.1863
13568TIP3    H162119   1.777   6.713  12.053 -0.4328  1.1988 -0.4323
13568TIP3    H262120   1.871   6.617  11.983  0.8000  0.9616  1.4796
13569TIP3   OH262121   3.712   6.714  16.523  0.0013 -0.4024  0.6383
13569TIP3    H162122   3.720   6.807  16.543  0.7624 -0.2790 -0.1840
13569TIP3    H262123   3.717   6.670  16.608  0.2057  0.2703  0.9790
13570TIP3   OH262124   2.211   5.960  16.988 -0.7571  0.0929 -0.1030
13570TIP3    H162125   2.257   5.876  16.993  0.1730  0.5356 -0.9357
13570TIP3    H262126   2.148   5.949  16.917 -0.6099  0.1224 -0.2358
13571TIP3   OH262127   4.624   4.701  15.643 -0.1825  0.1528 -0.4051
13571TIP3    H162128   4.596   4.788  15.672 -0.3407  0.1947 -0.6715
13571TIP3    H262129   4.604   4.700  15.549  0.4047  0.0572 -0.5309
13572TIP3   OH262130   3.579   3.423  17.121 -0.2499 -0.2807 -0.1339
13572TIP3    H162131   3.612   3.396  17.036  1.8708 -0.3281  0.6485
13572TIP3    H262132   3.636   3.496  17.148 -2.0274  0.9700  0.4674
13573TIP3   OH262133   3.856   3.100  14.019 -0.3873  0.8063 -0.9848
13573TIP3    H162134   3.775   3.104  13.968 -1.6041  1.8562  0.9069
13573TIP3    H262135   3.835   3.145  14.101  2.6680  2.8012 -1.1388
13574TIP3   OH262136   5.884   3.220  15.422 -0.3825 -0.0444  0.3646
13574TIP3    H162137   5.885   3.259  15.509 -0.4068 -1.3096  0.9554
13574TIP3    H262138   5.798   3.242  15.386  0.1208  1.6156  0.1064
13575TIP3   OH262139   6.585   0.562  16.510  0.0224  0.0355  0.0754
13575TIP3    H162140   6.587   0.604  16.595 -2.3378 -0.9511  0.7056
13575TIP3    H262141   6.584   0.468  16.530 -0.4670 -0.2083 -1.0113
13576TIP3   OH262142   1.958   2.342  15.892 -0.0920  0.4468  0.2216
13576TIP3    H162143   1.887   2.277  15.898  0.4623 -0.1396  0.5652
13576TIP3    H262144   1.998   2.325  15.807  0.4943 -0.1346  0.6060
13577TIP3   OH262145   6.468   3.930  14.489  0.0479  0.3568 -0.4252
13577TIP3    H162146   6.420   3.955  14.410  0.3209 -0.3059 -0.8160
13577TIP3    H262147   6.429   3.982  14.559  2.2155  3.7493 -1.5202
13578TIP3   OH262148   6.129   6.559   6.010 -0.0436  0.3290  0.3430
13578TIP3    H162149   6.143   6.474   5.968 -0.3454  0.2743  0.3552
13578TIP3    H262150   6.183   6.619   5.959 -0.4490  0.2740 -0.1644
13579TIP3   OH262151   5.210   6.330   2.526 -0.8461 -0.2192  0.4942
13579TIP3    H162152   5.240   6.305   2.614 -0.5175  0.2958  0.5300
13579TIP3    H262153   5.290   6.351   2.478 -0.8897 -1.8884 -0.3892
13580TIP3   OH262154   2.376   6.502   4.285 -0.3841 -0.3681 -0.3259
13580TIP3    H162155   2.425   6.420   4.275 -1.8985 -1.6665  1.8666
13580TIP3    H262156   2.285   6.473   4.295 -0.8359  1.5092  1.4886
13581TIP3   OH262157   2.933   1.200   0.989 -0.5046 -0.6228  0.1087
13581TIP3    H162158   2.925   1.211   1.084 -1.7672  0.6837 -0.1188
13581TIP3    H262159   2.991   1.124   0.978  1.1197  0.2851  1.9047
13582TIP3   OH262160   3.586   0.838   2.609  0.9614  0.2883  0.2979
13582TIP3    H162161   3.611   0.769   2.671 -1.3271  0.8014  1.9294
13582TIP3    H262162   3.575   0.916   2.663  0.8526  1.2556 -1.0900
13583TIP3   OH262163   5.344   1.534   0.799  0.2044  0.6752 -0.5597
13583TIP3    H162164   5.284   1.608   0.807 -0.0252  0.4945 -0.6210
13583TIP3    H262165   5.415   1.555   0.860 -1.0691 -0.2396  1.3112
13584TIP3   OH262166   0.617   5.386   4.858  0.2358  0.3483 -0.0322
13584TIP3    H162167   0.658   5.300   4.862 -0.9158 -0.2965 -1.2054
13584TIP3    H262168   0.551   5.385   4.927  0.1698  0.2464 -0.0958
13585TIP3   OH262169   1.348   6.207  14.419 -0.4199 -0.3548 -0.3115
13585TIP3    H162170   1.439   6.234  14.427 -0.5146 -0.4328  1.2064
13585TIP3    H262171   1.302   6.285  14.388 -0.3206  0.6814  1.9401
13586TIP3   OH262172   2.662   4.453   3.504  0.1359  0.2250  0.2166
13586TIP3    H162173   2.684   4.397   3.430  1.5927  0.1172  0.7085
13586TIP3    H262174   2.567   4.467   3.496 -0.2850 -2.2067  0.0168
13587TIP3   OH262175   1.459   4.207  14.511  0.0912  0.3158  0.0055
13587TIP3    H162176   1.386   4.185  14.569  1.0723 -1.7099  0.5633
13587TIP3    H262177   1.440   4.160  14.429 -0.5736  2.0245 -0.8784
13588TIP3   OH262178   4.698   4.616   5.082 -0.0360  0.1876  0.5696
13588TIP3    H162179   4.759   4.642   5.150  1.5128  1.2814 -1.1390
13588TIP3    H262180   4.626   4.679   5.088  1.0665  1.5676 -0.0440
13589TIP3   OH262181   5.682   1.552   4.354 -0.4059 -0.1172 -0.2719
13589TIP3    H162182   5.622   1.488   4.394 -0.2186 -0.0503  0.1222
13589TIP3    H262183   5.754   1.499   4.319 -0.9632 -0.2519 -1.2564
13590TIP3   OH262184   5.577   1.033   4.141  0.6323  0.5118  0.4382
13590TIP3    H162185   5.544   0.958   4.192  0.2490 -0.4198 -1.1012
13590TIP3    H262186   5.501   1.091   4.133 -0.0435 -0.5049 -1.0829
13591TIP3   OH262187   2.858   0.889  15.152 -0.0069  0.3295  0.1856
13591TIP3    H162188   2.860   0.984  15.158  0.1855  0.2404  2.5164
13591TIP3    H262189   2.949   0.862  15.163 -0.3032 -0.1583  1.7284
13592TIP3   OH262190   2.914   1.579   1.041 -0.6430  0.5629  0.6078
13592TIP3    H162191   2.912   1.660   1.092 -1.3156 -0.1288  1.7183
13592TIP3    H262192   2.823   1.558   1.023 -0.4658  0.1927  0.1018
13593TIP3   OH262193   0.452   0.563   0.091  0.3042 -0.1357 -0.2670
13593TIP3    H162194   0.446   0.483   0.039  0.0177 -0.1678 -0.1887
13593TIP3    H262195   0.480   0.535   0.178 -0.9429 -0.3061  0.1057
13594TIP3   OH262196   4.500   3.517   0.475  0.0979  0.6423 -0.5799
13594TIP3    H162197   4.455   3.597   0.502  1.2640  1.1024  0.0623
13594TIP3    H262198   4.429   3.454   0.459 -0.7559  1.1806  0.8972
13595TIP3   OH262199   3.135   4.328  16.796  0.2415 -0.3930 -0.4535
13595TIP3    H162200   3.073   4.258  16.774 -0.9411  0.7403 -0.9212
13595TIP3    H262201   3.140   4.381  16.717  0.9138  0.2020 -0.0251
13596TIP3   OH262202   5.009   4.983   4.605 -0.8454 -0.1700 -0.0453
13596TIP3    H162203   4.917   4.956   4.607 -1.3424  1.4385 -0.0928
13596TIP3    H262204   5.007   5.075   4.581  0.8446 -0.3171 -0.8928
13597TIP3   OH262205   5.966   4.164  15.116  0.2285  0.2802 -0.0957
13597TIP3    H162206   5.970   4.109  15.037  1.2150 -0.9731  0.7806
13597TIP3    H262207   5.875   4.159  15.144 -0.1130  0.6546 -1.0780
13598TIP3   OH262208   2.253   0.675   0.188  0.0358  0.4527 -0.6243
13598TIP3    H162209   2.331   0.718   0.153  0.3109  0.3950 -0.0857
13598TIP3    H262210   2.266   0.674   0.283 -0.5133  0.2350 -0.5476
13599TIP3   OH262211   4.600   5.857   5.366  0.0452 -1.1566  0.1726
13599TIP3    H162212   4.689   5.851   5.402  0.1343 -3.0425 -0.2527
13599TIP3    H262213   4.595   5.786   5.303 -0.9123  0.5984 -1.8275
13600TIP3   OH262214   1.030   1.287  12.170  0.1268  0.0072 -0.3190
13600TIP3    H162215   0.991   1.218  12.115 -0.6581  0.7662 -0.7534
13600TIP3    H262216   1.071   1.347  12.107  1.8040 -0.6408  0.1236
13601TIP3   OH262217   1.295   6.579   0.646 -0.3307  0.1266  1.0234
13601TIP3    H162218   1.257   6.583   0.558  1.0269 -1.1956  0.3174
13601TIP3    H262219   1.384   6.614   0.634  0.1193 -0.7518  1.6880
13602TIP3   OH262220   3.531   1.794  16.406 -0.0960 -0.3136  0.0897
13602TIP3    H162221   3.533   1.854  16.331 -0.8462 -2.4592 -1.7763
13602TIP3    H262222   3.621   1.764  16.415  0.0126  0.0110  0.0911
13603TIP3   OH262223   2.041   1.427  17.009  0.1404  0.4130 -0.0768
13603TIP3    H162224   2.087   1.367  17.068  0.4860  1.6319  0.9214
13603TIP3    H262225   2.067   1.398  16.922  0.4548 -0.7661  0.3833
13604TIP3   OH262226   4.391   5.704  10.929 -0.1028 -0.0417  0.2281
13604TIP3    H162227   4.439   5.742  11.002  0.2032 -2.3899  1.3513
13604TIP3    H262228   4.439   5.732  10.851  0.6876  0.9621  1.0496
13605TIP3   OH262229   5.922   4.305   0.600  0.4482  0.2943  0.3926
13605TIP3    H162230   5.927   4.390   0.555  0.3453  0.1848  0.1767
13605TIP3    H262231   6.002   4.259   0.573  1.5980  1.1274  2.1474
13606TIP3   OH262232   5.136   3.020  14.644  0.0357  0.3804 -0.5994
13606TIP3    H162233   5.192   3.023  14.566  0.8204  2.3165 -0.0118
13606TIP3    H262234   5.130   3.111  14.673 -1.4541 -0.1057  0.7766
13607TIP3   OH262235   0.324   3.170   2.172  0.0734  0.7573 -0.4263
13607TIP3    H162236   0.320   3.183   2.267  0.8852  2.1588 -0.5458
13607TIP3    H262237   0.236   3.191   2.141 -1.2400 -2.9730  0.2781
13608TIP3   OH262238   4.216   0.951  15.492  0.6861 -0.1916 -0.1061
13608TIP3    H162239   4.311   0.942  15.499  0.8661  1.9707  1.4617
13608TIP3    H262240   4.203   1.028  15.436 -0.1444 -0.4412 -0.2736
13609TIP3   OH262241   0.136   4.436   3.358  0.2382 -0.0412  0.6224
13609TIP3    H162242   0.175   4.518   3.386 -0.2708  0.5267 -0.2650
13609TIP3    H262243   0.196   4.402   3.292 -0.1934  0.2920  0.0411
13610TIP3   OH262244   1.989   2.766   6.015 -0.2075 -0.0182 -0.1559
13610TIP3    H162245   1.981   2.676   6.048  0.3815  0.1798  0.5549
13610TIP3    H262246   1.940   2.818   6.078  2.0008  0.5318  1.2325
13611TIP3   OH262247   6.019   1.838  12.694  0.5570 -0.1741  0.6084
13611TIP3    H162248   5.958   1.850  12.766  1.4965 -0.9746  1.5717
13611TIP3    H262249   5.979   1.770  12.640 -0.1539  0.4369  0.3458
13612TIP3   OH262250   0.891   5.289   2.861 -0.1262 -0.2048  0.0114
13612TIP3    H162251   0.854   5.376   2.871 -0.1063 -0.2129  0.1547
13612TIP3    H262252   0.976   5.294   2.905  0.6122  0.1834 -1.3854
13613TIP3   OH262253   1.639   2.722  13.331  0.2423 -0.3266 -0.3999
13613TIP3    H162254   1.613   2.645  13.382  0.3254 -0.2023 -0.1698
13613TIP3    H262255   1.710   2.692  13.274 -1.5964 -1.1776 -2.4136
13614TIP3   OH262256   3.005   5.297   6.609 -0.3326  0.0908  0.1954
13614TIP3    H162257   2.968   5.217   6.571 -0.0382  0.9015 -1.9747
13614TIP3    H262258   2.977   5.367   6.549 -0.0015  1.5156  1.6402
13615TIP3   OH262259   3.117   0.925  14.604 -0.3373  0.2614 -0.5624
13615TIP3    H162260   3.196   0.921  14.550  0.5682  0.3614  0.7006
13615TIP3    H262261   3.073   1.005  14.576 -1.5257 -1.2096 -3.2593
13616TIP3   OH262262   1.112   0.764  11.612 -0.6080 -0.6753  0.3305
13616TIP3    H162263   1.135   0.795  11.525 -1.2629  1.1910  0.7630
13616TIP3    H262264   1.052   0.691  11.597 -1.6721  0.3893 -0.8213
13617TIP3   OH262265   2.928   3.462  13.825  0.3254 -0.3659  0.0856
13617TIP3    H162266   2.875   3.515  13.766  0.1379  0.7198  1.1661
13617TIP3    H262267   2.956   3.387  13.773 -1.0496 -0.2097 -0.9323
13618TIP3   OH262268   0.175   6.147  15.401 -0.1763  0.1004 -0.2463
13618TIP3    H162269   0.169   6.053  15.421  0.9013 -0.0113 -0.3974
13618TIP3    H262270   0.115   6.160  15.328  0.0612 -0.5764 -0.5686
13619TIP3   OH262271   2.445   3.638  13.500  0.4862 -0.0051 -0.1962
13619TIP3    H162272   2.482   3.553  13.526 -1.9347 -0.6636  1.4621
13619TIP3    H262273   2.369   3.616  13.446  0.8173  1.1894 -1.1822
13620TIP3   OH262274   4.371   0.581  11.610 -0.6285 -0.1545 -0.2995
13620TIP3    H162275   4.413   0.607  11.691 -1.0200 -0.9576  0.1656
13620TIP3    H262276   4.279   0.603  11.622 -1.0539 -2.0562  0.2644
13621TIP3   OH262277   0.995   3.629  14.944 -0.2574  0.4968  0.2473
13621TIP3    H162278   0.982   3.685  14.868  1.3404 -0.8179 -1.0745
13621TIP3    H262279   0.938   3.553  14.929  2.2344 -1.2202 -1.2849
13622TIP3   OH262280   6.148   5.619   4.987  0.0328 -0.4076  0.0027
13622TIP3    H162281   6.153   5.711   4.960  1.2297  0.2068  2.0471
13622TIP3    H262282   6.237   5.586   4.977  0.0000 -0.8092  0.9475
13623TIP3   OH262283   2.870   0.535  12.894 -0.8771  0.2732  0.6048
13623TIP3    H162284   2.793   0.500  12.849 -1.0870 -1.3332  2.0797
13623TIP3    H262285   2.836   0.573  12.975 -0.1838 -0.3195  1.2001
13624TIP3   OH262286   4.836   4.730  14.628  0.0903 -0.3305 -0.6934
13624TIP3    H162287   4.884   4.800  14.671  2.5892 -1.8801 -0.7822
13624TIP3    H262288   4.773   4.775  14.572  1.2640  1.8152 -0.3956
13625TIP3   OH262289   2.706   3.935   3.602  0.1015 -0.6633  0.4929
13625TIP3    H162290   2.673   3.915   3.689  0.2424  2.0552  1.2673
13625TIP3    H262291   2.793   3.972   3.616  1.2575 -2.5964 -1.0716
13626TIP3   OH262292   6.425   0.863   3.550  0.0513  0.5927 -0.5755
13626TIP3    H162293   6.436   0.953   3.522 -0.0054  1.0116  0.6988
13626TIP3    H262294   6.334   0.857   3.577  0.5202  0.7118  1.1617
13627TIP3   OH262295   1.170   4.423  14.324 -0.2829  0.1343 -0.3064
13627TIP3    H162296   1.152   4.395  14.414 -1.8719  0.8386 -0.3736
13627TIP3    H262297   1.258   4.460  14.328 -0.6167  0.8402  1.1333
13628TIP3   OH262298   2.054   2.728   2.649 -0.0276  0.2389 -0.0374
13628TIP3    H162299   2.011   2.763   2.571  1.0080  1.0010 -0.2927
13628TIP3    H262300   2.124   2.672   2.615  0.6493  0.8445  0.3141
13629TIP3   OH262301   4.996   0.589   0.688 -0.1127 -0.5481  0.4857
13629TIP3    H162302   4.912   0.636   0.691  0.4841  0.5626  0.4410
13629TIP3    H262303   5.021   0.592   0.596  0.1016 -0.6329  0.5415
13630TIP3   OH262304   2.956   2.876   1.564  0.1967 -0.1180 -0.3784
13630TIP3    H162305   2.926   2.924   1.487 -1.3960  2.1716  1.5076
13630TIP3    H262306   2.908   2.794   1.562  0.0126  0.0044 -1.6845
13631TIP3   OH262307   1.867   6.101   5.982  0.1036 -0.1243 -0.4883
13631TIP3    H162308   1.935   6.049   5.939  0.6144  1.0099 -1.0723
13631TIP3    H262309   1.799   6.111   5.916 -1.9954 -3.5545  0.8855
13632TIP3   OH262310   5.999   3.860  12.671 -0.8424 -0.5705 -0.0317
13632TIP3    H162311   6.055   3.807  12.727 -0.9915 -0.1684  0.5078
13632TIP3    H262312   5.997   3.946  12.713 -0.4944 -0.0861 -0.9570
13633TIP3   OH262313   4.933   5.899   4.143  0.0151  0.4166 -0.1135
13633TIP3    H162314   4.922   5.883   4.049  0.8340  1.8797 -0.4920
13633TIP3    H262315   5.011   5.849   4.167  1.8634  2.6548 -1.0229
13634TIP3   OH262316   2.986   5.226  15.349  0.3003  0.4688  0.2651
13634TIP3    H162317   3.040   5.288  15.300  0.6392 -0.2321 -0.2526
13634TIP3    H262318   2.913   5.206  15.292  1.7563 -1.9756 -0.9148
13635TIP3   OH262319   4.251   1.389  16.249  0.7927 -0.9191  0.1042
13635TIP3    H162320   4.173   1.334  16.255  0.6222 -0.6450  0.4591
13635TIP3    H262321   4.322   1.333  16.278  0.6689 -1.0463  0.1635
13636TIP3   OH262322   0.766   0.133   4.663  0.1604 -0.4299  0.6200
13636TIP3    H162323   0.746   0.045   4.696  0.0493 -0.7207 -0.2088
13636TIP3    H262324   0.720   0.191   4.723 -0.2845 -0.9629  0.8084
13637TIP3   OH262325   6.192   5.339   4.479  0.1638 -0.8000 -0.0429
13637TIP3    H162326   6.255   5.323   4.409 -0.2569 -1.4477 -0.2827
13637TIP3    H262327   6.128   5.400   4.441  1.1652  0.6814  0.5210
13638TIP3   OH262328   3.703   4.823  13.357  0.2934  0.3642 -0.2687
13638TIP3    H162329   3.717   4.806  13.264 -0.9018 -0.7255 -0.2862
13638TIP3    H262330   3.625   4.772  13.378  0.9860  0.0067  1.5175
13639TIP3   OH262331   4.259   4.589  13.814 -0.7781  0.5792  0.0929
13639TIP3    H162332   4.307   4.508  13.834 -0.5390  0.2359 -1.7145
13639TIP3    H262333   4.167   4.563  13.816 -0.7391  0.4534  0.3089
13640TIP3   OH262334   2.687   5.727  10.376 -0.2603  0.3918 -0.1712
13640TIP3    H162335   2.664   5.638  10.349 -2.3081  0.8702 -0.1473
13640TIP3    H262336   2.617   5.781  10.341  0.3713  1.8646  0.7654
13641TIP3   OH262337   5.973   3.726   0.441 -0.5998 -0.0036  0.3034
13641TIP3    H162338   5.931   3.742   0.525  0.6276 -0.6142  1.0665
13641TIP3    H262339   5.912   3.669   0.394 -1.4219  0.5639  0.6623
13642TIP3   OH262340   1.221   3.203  16.719  1.0009  0.4621  0.3461
13642TIP3    H162341   1.181   3.226  16.635 -2.0131 -3.2709  0.4436
13642TIP3    H262342   1.204   3.279  16.775 -0.6885  1.4288 -1.3525
13643TIP3   OH262343   1.916   5.123  12.095  0.6983 -0.0241  0.2489
13643TIP3    H162344   1.999   5.153  12.060 -0.6301  0.5286 -2.7476
13643TIP3    H262345   1.890   5.192  12.156  0.8892  1.5574 -1.3837
13644TIP3   OH262346   5.034   4.122   1.327  0.0346 -0.0368 -0.0921
13644TIP3    H162347   4.972   4.053   1.302 -0.3325  0.3852 -0.3643
13644TIP3    H262348   4.979   4.199   1.344  0.3475 -0.0781  1.2221
13645TIP3   OH262349   4.716   4.174   1.114  0.6015 -0.1577 -0.5144
13645TIP3    H162350   4.747   4.181   1.204  0.8018  1.0617 -0.6645
13645TIP3    H262351   4.640   4.232   1.110 -0.0417 -1.0089 -0.8698
13646TIP3   OH262352   1.203   4.096  15.142 -0.0138 -0.1255  0.5378
13646TIP3    H162353   1.187   4.173  15.088 -0.9484 -0.0573  0.8988
13646TIP3    H262354   1.250   4.129  15.218 -0.9493  0.1965  0.9853
13647TIP3   OH262355   3.484   0.035   1.574  0.3893  0.2431 -0.0391
13647TIP3    H162356   3.475   0.079   1.490  0.2309  0.5745  0.1476
13647TIP3    H262357   3.431  -0.044   1.567 -1.7126  1.5157  0.6062
13648TIP3   OH262358   6.572   5.219  11.518  0.4867 -0.1633  0.7172
13648TIP3    H162359   6.544   5.229  11.427  1.4683  1.6579  0.5822
13648TIP3    H262360   6.561   5.125  11.536  0.4887 -0.5976 -1.3386
13649TIP3   OH262361   1.656   3.366   4.458 -0.0108  0.7709 -0.2856
13649TIP3    H162362   1.748   3.365   4.484  0.0949  0.8779 -0.6414
13649TIP3    H262363   1.642   3.280   4.417 -0.7640 -0.3069  2.0567
13650TIP3   OH262364   5.391   0.122  11.647  0.0665  0.0567  0.2653
13650TIP3    H162365   5.357   0.033  11.643 -1.3139  0.5749  0.1183
13650TIP3    H262366   5.423   0.132  11.737 -0.3164 -0.3907  0.4542
13651TIP3   OH262367   4.893   6.451   4.741  0.3387 -0.1981  0.4902
13651TIP3    H162368   4.921   6.370   4.699  0.8489 -0.2980  0.9964
13651TIP3    H262369   4.879   6.512   4.669 -0.2679 -0.7945  0.0914
13652TIP3   OH262370   2.494   2.426  16.661  0.3122 -0.0586  0.3343
13652TIP3    H162371   2.489   2.403  16.753  0.5655  2.7148  1.1341
13652TIP3    H262372   2.563   2.492  16.656  0.8849 -0.7228 -2.0100
13653TIP3   OH262373   5.606   1.023   5.277  0.2061  0.0679  0.1134
13653TIP3    H162374   5.551   0.977   5.340 -1.3206  1.5437 -0.0783
13653TIP3    H262375   5.665   1.076   5.331  2.0538 -2.0663  0.3386
13654TIP3   OH262376   1.079   2.253   2.128 -0.1869  0.0348  0.6291
13654TIP3    H162377   1.131   2.232   2.051  0.7719  3.0781  0.3193
13654TIP3    H262378   1.139   2.244   2.202  0.2700  1.4998  0.4815
13655TIP3   OH262379   3.644   5.120   1.910  0.5010  0.4598  0.4170
13655TIP3    H162380   3.578   5.187   1.889 -0.3688 -0.3092  0.6304
13655TIP3    H262381   3.615   5.043   1.862  0.1468 -0.4644  2.0355
13656TIP3   OH262382   5.201   3.521  13.957 -0.3294 -0.7789  0.3909
13656TIP3    H162383   5.295   3.515  13.969 -0.1677  1.2969  0.5769
13656TIP3    H262384   5.166   3.537  14.044 -0.8403 -1.3716  0.2997
13657TIP3   OH262385   5.909   4.148  12.035  0.4053 -0.3302  0.0852
13657TIP3    H162386   5.973   4.209  12.072  1.3950 -0.0620 -1.9268
13657TIP3    H262387   5.884   4.187  11.951  1.0044 -2.5609 -1.2421
13658TIP3   OH262388   4.062   1.397  12.452 -0.0833 -0.6590  0.4814
13658TIP3    H162389   4.060   1.369  12.361 -0.0733  1.5891 -0.2824
13658TIP3    H262390   4.153   1.425  12.466  0.2657 -2.2069  1.6383
13659TIP3   OH262391   6.362   0.046   0.966  0.0536  0.2662  0.0759
13659TIP3    H162392   6.342   0.087   0.882 -3.0477 -1.5178 -0.2156
13659TIP3    H262393   6.429  -0.019   0.946  2.1781  2.3975 -0.1674
13660TIP3   OH262394   1.546   5.124  17.021 -0.2926 -0.5837  0.5019
13660TIP3    H162395   1.584   5.207  17.051 -0.3814  0.1903 -1.3483
13660TIP3    H262396   1.515   5.143  16.933 -1.9659 -2.1191  0.7010
13661TIP3   OH262397   5.011   4.559  14.508  0.5973  0.1563  0.1911
13661TIP3    H162398   4.943   4.620  14.535 -0.3851 -0.7025 -0.2855
13661TIP3    H262399   5.068   4.611  14.452  0.6152  1.0060  0.9639
13662TIP3   OH262400   2.763   1.894   6.425 -0.3350 -0.0889  0.2041
13662TIP3    H162401   2.834   1.958   6.430 -0.1197 -0.3312  0.2743
13662TIP3    H262402   2.685   1.942   6.451 -0.1366  0.0881  0.4748
13663TIP3   OH262403   5.800   2.375   6.086  0.1818  0.0972  0.0294
13663TIP3    H162404   5.811   2.300   6.143  2.8784  0.9304  0.7385
13663TIP3    H262405   5.823   2.451   6.140 -0.7520  1.2831 -1.1455
13664TIP3   OH262406   6.003   0.943  16.980 -0.2004  0.2536  0.1714
13664TIP3    H162407   6.030   1.031  17.004  1.2362 -0.4506  1.2571
13664TIP3    H262408   6.083   0.898  16.956 -0.8924 -0.8123 -0.2363
13665TIP3   OH262409   1.872   2.858  12.590  0.0623 -0.0558 -0.6838
13665TIP3    H162410   1.938   2.894  12.650 -0.6093 -0.9517  0.6490
13665TIP3    H262411   1.794   2.849  12.645 -0.8166 -0.1394 -1.9280
13666TIP3   OH262412   3.202   1.821   2.799 -0.5683  0.3550  0.1747
13666TIP3    H162413   3.159   1.864   2.725 -0.0147 -0.7661 -0.8374
13666TIP3    H262414   3.244   1.744   2.761 -0.0162 -0.0950  1.6169
13667TIP3   OH262415   4.386   2.983   4.198 -0.0237  0.0687 -0.2784
13667TIP3    H162416   4.338   3.025   4.270  0.6008  2.4835 -1.1797
13667TIP3    H262417   4.459   3.042   4.180  1.5051 -1.9171 -1.0464
13668TIP3   OH262418   6.023   5.383   6.093  0.4072 -0.0405  0.2636
13668TIP3    H162419   6.089   5.380   6.162  1.1565 -1.9796 -0.4517
13668TIP3    H262420   6.069   5.355   6.014 -1.5767 -3.6712  0.1198
13669TIP3   OH262421   3.638   0.407   3.797  0.3428  0.3081 -0.0512
13669TIP3    H162422   3.673   0.318   3.807 -0.1107 -0.0042 -1.0478
13669TIP3    H262423   3.714   0.464   3.793  0.7308 -0.2550 -1.2431
13670TIP3   OH262424   4.848   4.795  16.481  0.5741 -0.1995  0.1059
13670TIP3    H162425   4.818   4.820  16.394  2.8726  0.8386 -0.4678
13670TIP3    H262426   4.795   4.719  16.504 -1.1315  0.4193 -1.5412
13671TIP3   OH262427   3.215   6.650   3.087  0.0948  0.5551 -0.1228
13671TIP3    H162428   3.238   6.557   3.079  2.2413  1.1088 -0.8719
13671TIP3    H262429   3.173   6.656   3.173 -0.2853 -1.1245 -0.1492
13672TIP3   OH262430   2.581   2.742   1.674  0.2593 -0.1034  0.5089
13672TIP3    H162431   2.517   2.761   1.741 -0.5041 -3.7740  1.0269
13672TIP3    H262432   2.593   2.825   1.627  0.1108  2.3786  4.4339
13673TIP3   OH262433   2.534   3.854   5.795 -0.0018 -0.1584  0.3663
13673TIP3    H162434   2.517   3.926   5.857 -0.5692 -0.2869  0.3719
13673TIP3    H262435   2.526   3.775   5.849 -0.9733 -0.2958  0.0503
13674TIP3   OH262436   2.699   0.226   4.944  0.6977 -0.3287  0.2376
13674TIP3    H162437   2.622   0.179   4.913 -0.4261  0.8882  1.0625
13674TIP3    H262438   2.759   0.158   4.973 -1.1493 -1.2919  2.0572
13675TIP3   OH262439   1.113   2.781   3.276 -0.1968 -0.8816 -0.4150
13675TIP3    H162440   1.136   2.838   3.203 -1.1346 -2.0145 -1.6376
13675TIP3    H262441   1.196   2.766   3.322  0.1869  0.8180 -0.5000
13676TIP3   OH262442   1.973   0.991  11.856  0.0399  0.0126  0.3573
13676TIP3    H162443   1.970   0.909  11.807  0.0793 -0.8702  1.7591
13676TIP3    H262444   1.976   1.059  11.790 -0.2132 -1.1138 -0.8470
13677TIP3   OH262445   3.958   5.146  15.699  0.3232  0.4265  0.1553
13677TIP3    H162446   3.962   5.113  15.609  0.0062 -1.1359  0.6783
13677TIP3    H262447   4.034   5.107  15.742 -1.3178 -1.6491  1.3889
13678TIP3   OH262448   2.387   2.706  13.761  0.3827 -0.1811  0.5201
13678TIP3    H162449   2.375   2.739  13.672 -1.4462  0.4143  0.9412
13678TIP3    H262450   2.477   2.673  13.762  1.0698  1.4156 -1.0183
13679TIP3   OH262451   0.929   1.348   0.731  0.1206 -0.3507 -0.2240
13679TIP3    H162452   0.999   1.377   0.790 -0.0293 -3.0534  1.4250
13679TIP3    H262453   0.924   1.254   0.744 -0.7424 -0.9405 -3.7764
13680TIP3   OH262454   1.020   0.534  16.472  0.1285  0.4180 -0.3044
13680TIP3    H162455   0.962   0.469  16.511 -0.9544  0.2417 -2.0753
13680TIP3    H262456   1.102   0.488  16.456 -0.2289 -0.1785 -0.4434
13681TIP3   OH262457   4.039   6.729  13.309  0.0369 -0.0795 -0.1550
13681TIP3    H162458   4.026   6.634  13.303 -2.0465  0.0878  0.7100
13681TIP3    H262459   4.037   6.759  13.218 -0.6784 -0.7229 -0.3645
13682TIP3   OH262460   6.158   5.440   0.325  0.1491  0.1225  0.5557
13682TIP3    H162461   6.109   5.463   0.404  0.8219 -2.4167  1.8335
13682TIP3    H262462   6.092   5.432   0.256 -1.2506 -2.4648  2.0428
13683TIP3   OH262463   5.962   4.909  13.658  0.0127 -0.3475 -0.3771
13683TIP3    H162464   6.025   4.978  13.676 -2.4218  1.8252  0.3333
13683TIP3    H262465   5.989   4.874  13.572  2.1187  0.4739 -0.0996
13684TIP3   OH262466   2.321   6.379   6.497 -0.0112  0.2939  0.3644
13684TIP3    H162467   2.320   6.288   6.525  0.2215  1.0017  2.9515
13684TIP3    H262468   2.360   6.378   6.410 -1.0004 -2.1615 -0.1154
13685TIP3   OH262469   1.478   2.019  16.350  0.5123 -0.2985 -0.0144
13685TIP3    H162470   1.449   1.965  16.424 -0.9705  0.6307  0.1178
13685TIP3    H262471   1.455   2.108  16.375  0.5385  0.0991 -1.3512
13686TIP3   OH262472   5.904   0.375  11.820  0.5272  0.2431  0.4743
13686TIP3    H162473   5.844   0.447  11.840  0.6807  0.9061 -1.2842
13686TIP3    H262474   5.950   0.404  11.742  0.9828 -1.5593  0.0458
13687TIP3   OH262475   4.442   0.868   1.704 -0.4930 -0.1554 -0.1884
13687TIP3    H162476   4.443   0.871   1.800 -0.4981 -3.6405  0.0744
13687TIP3    H262477   4.360   0.823   1.683 -0.5013  0.5964 -1.8452
13688TIP3   OH262478   6.670   6.348   5.825 -0.1028 -0.2212 -0.3771
13688TIP3    H162479   6.665   6.280   5.893  1.2552  0.5323  0.5216
13688TIP3    H262480   6.592   6.402   5.840  0.1283 -0.1182  0.5487
13689TIP3   OH262481   6.091   4.040   0.832 -0.5792 -0.1581  0.0233
13689TIP3    H162482   6.086   4.115   0.772 -0.0816  0.5854  0.9015
13689TIP3    H262483   6.142   3.975   0.784 -0.3028  0.3736 -0.4218
13690TIP3   OH262484   3.956   2.462  11.545  0.0602 -0.7853 -0.0048
13690TIP3    H162485   3.998   2.394  11.598  1.0168 -0.2482 -0.0513
13690TIP3    H262486   3.995   2.453  11.458 -0.6057 -0.8716 -0.2975
13691TIP3   OH262487   1.262   3.069  15.093 -0.3424  0.0854 -0.0442
13691TIP3    H162488   1.193   3.013  15.057  0.4938 -1.2657  0.3680
13691TIP3    H262489   1.338   3.053  15.037 -0.2955  1.4472 -0.4064
13692TIP3   OH262490   6.726   4.268   0.707 -0.0860 -0.3566  0.6356
13692TIP3    H162491   6.683   4.200   0.758  1.6236 -1.4320  0.7099
13692TIP3    H262492   6.655   4.326   0.679 -1.3646 -1.2175  1.9950
13693TIP3   OH262493   6.740   2.305  12.854 -0.5348  0.2973  0.3154
13693TIP3    H162494   6.833   2.325  12.841 -0.5137  0.5577  0.8569
13693TIP3    H262495   6.701   2.388  12.882 -0.8139  0.0370  0.7045
13694TIP3   OH262496   2.658   4.162   6.278 -0.4327  0.6190  0.8515
13694TIP3    H162497   2.720   4.089   6.288 -0.9682 -0.0741 -0.6789
13694TIP3    H262498   2.711   4.233   6.241  0.2330  1.2706  2.9180
13695TIP3   OH262499   5.547   5.631   4.912  0.0592  0.2775 -0.0514
13695TIP3    H162500   5.608   5.589   4.973 -0.6299 -0.6994 -0.0197
13695TIP3    H262501   5.460   5.606   4.944 -0.3770  1.6158 -0.1211
13696TIP3   OH262502   1.177   1.410   3.623  0.0599 -0.2061  0.1688
13696TIP3    H162503   1.203   1.450   3.540 -0.0202  1.3864  0.8749
13696TIP3    H262504   1.093   1.368   3.605  0.4322 -0.5685 -0.7463
13697TIP3   OH262505   6.399   3.885   1.591  0.1792  0.2178  0.0971
13697TIP3    H162506   6.379   3.975   1.618 -0.8996  0.2688 -0.7718
13697TIP3    H262507   6.314   3.841   1.590  0.2680 -0.0259 -2.1974
13698TIP3   OH262508   2.081   5.685   3.321  0.2769 -0.6021 -0.3575
13698TIP3    H162509   2.142   5.674   3.394 -1.3765  2.1104  1.6444
13698TIP3    H262510   2.059   5.778   3.323 -0.1655 -0.4642 -4.1725
13699TIP3   OH262511   0.587   3.896   3.073  0.1945  0.4635  0.0477
13699TIP3    H162512   0.562   3.988   3.078  0.3417  0.4406  1.5667
13699TIP3    H262513   0.674   3.897   3.035  1.5911  1.2510  3.0009
13700TIP3   OH262514   4.845   1.018   3.852 -0.0366  0.1114 -0.1072
13700TIP3    H162515   4.852   0.924   3.834  1.6798  0.1599  0.2211
13700TIP3    H262516   4.931   1.053   3.832 -0.5689  1.5851  0.0698
13701TIP3   OH262517   5.848   2.948   1.569  0.2688  0.5889  0.5768
13701TIP3    H162518   5.886   2.994   1.645 -2.3092  0.8752  1.7964
13701TIP3    H262519   5.754   2.948   1.586 -0.0549 -3.6632 -0.2029
13702TIP3   OH262520   4.860   0.452   3.141 -0.6464 -0.4556 -0.0781
13702TIP3    H162521   4.784   0.476   3.087 -0.2716  1.6989  0.2778
13702TIP3    H262522   4.927   0.516   3.117  1.1541 -2.4140 -0.5072
13703TIP3   OH262523   6.001   2.456  16.217  0.7519  0.7070 -0.5083
13703TIP3    H162524   6.030   2.366  16.200 -2.5196 -0.5951 -0.0535
13703TIP3    H262525   5.910   2.458  16.186  0.1922  3.3930  0.9526
13704TIP3   OH262526   4.342   2.119   4.020  0.1739 -0.1412  0.1598
13704TIP3    H162527   4.320   2.208   4.050  0.0096  0.1946 -0.9043
13704TIP3    H262528   4.326   2.121   3.926  1.0168 -1.0506 -0.0233
13705TIP3   OH262529   1.964   1.281   3.464  0.2411  0.4525 -0.1435
13705TIP3    H162530   1.986   1.280   3.371  0.1979 -0.0599 -0.1529
13705TIP3    H262531   1.961   1.188   3.489  0.1931  0.5827  0.3532
13706TIP3   OH262532   0.101   5.669   4.807  0.1054 -0.6777 -0.0329
13706TIP3    H162533   0.098   5.582   4.846 -3.0981 -0.3643  0.6760
13706TIP3    H262534   0.157   5.720   4.865 -0.0490 -1.6334  0.9828
13707TIP3   OH262535   4.982   4.895   2.096  0.0761 -0.6182  0.7813
13707TIP3    H162536   5.070   4.862   2.077  0.6788  0.5379  1.4631
13707TIP3    H262537   4.953   4.934   2.014  1.1463  1.0096  1.1327
13708TIP3   OH262538   0.472   0.562  11.709  0.3405  0.6992 -0.5171
13708TIP3    H162539   0.403   0.617  11.745  1.8003  1.9931  0.4665
13708TIP3    H262540   0.511   0.615  11.639  0.6626  0.2057 -0.7159
13709TIP3   OH262541   0.750   0.419   5.612  0.0462 -0.1822  0.1949
13709TIP3    H162542   0.694   0.494   5.632 -2.5349 -2.0407  0.4986
13709TIP3    H262543   0.729   0.355   5.680  2.1247 -1.2462 -0.0854
13710TIP3   OH262544   4.005   0.175   1.172 -0.5984  0.0371 -0.2933
13710TIP3    H162545   4.075   0.110   1.166 -0.0258  0.7474 -1.6330
13710TIP3    H262546   4.029   0.229   1.247 -0.5751 -0.6951  0.2408
13711TIP3   OH262547   6.351   3.171   1.316 -0.1982  0.3874 -0.1721
13711TIP3    H162548   6.332   3.213   1.232  0.6903  1.1108 -0.0205
13711TIP3    H262549   6.400   3.093   1.294 -0.0261  0.5402 -0.3358
13712TIP3   OH262550   2.429   2.451  15.524 -0.3322  1.0857 -0.2584
13712TIP3    H162551   2.441   2.521  15.460 -0.6492  1.9124  0.5733
13712TIP3    H262552   2.427   2.495  15.608  0.9028 -0.0626  0.4201
13713TIP3   OH262553   4.967   3.510  12.331  0.0488 -0.3000 -0.3300
13713TIP3    H162554   5.020   3.589  12.330  0.0062 -0.2366  0.9007
13713TIP3    H262555   4.905   3.523  12.403 -0.4542 -1.1340 -0.5892
13714TIP3   OH262556   5.053   5.211  12.882 -0.5193 -0.0843 -0.5172
13714TIP3    H162557   5.014   5.130  12.915 -1.4639  0.1989 -0.9067
13714TIP3    H262558   5.012   5.280  12.934 -1.4706  0.3145 -1.7436
13715TIP3   OH262559   3.856   3.282   3.812  0.3331 -0.5835 -0.1379
13715TIP3    H162560   3.817   3.197   3.791 -1.3344  0.0900  0.0349
13715TIP3    H262561   3.878   3.275   3.905 -1.8141 -0.1608  0.4679
13716TIP3   OH262562   1.789   3.062  12.261 -0.0905  0.2571  0.4599
13716TIP3    H162563   1.698   3.035  12.263  0.4747 -1.9042  0.4117
13716TIP3    H262564   1.797   3.129  12.328 -1.5244 -0.1942  1.1004
13717TIP3   OH262565   0.214   6.039  16.247 -0.2647 -0.0983 -0.2280
13717TIP3    H162566   0.252   6.113  16.294 -0.9433  0.5534 -0.6797
13717TIP3    H262567   0.147   6.005  16.307  0.3223 -0.6106  0.1469
13718TIP3   OH262568   2.706   2.028  12.400  0.4493 -0.4516  0.3872
13718TIP3    H162569   2.621   2.004  12.363  0.7272  0.3081 -0.8260
13718TIP3    H262570   2.694   2.022  12.495 -0.6329 -1.3869  0.2131
13719TIP3   OH262571   6.144   4.262   3.148 -0.3489  0.0798 -0.0773
13719TIP3    H162572   6.212   4.317   3.109 -1.1445  1.7255  0.7509
13719TIP3    H262573   6.123   4.198   3.080  0.5640  0.8354 -1.1059
13720TIP3   OH262574   4.377   4.853   1.750  0.0849 -0.2877 -0.0405
13720TIP3    H162575   4.427   4.884   1.675 -0.5870 -0.3538 -0.5250
13720TIP3    H262576   4.313   4.923   1.767 -0.9475 -1.0403 -0.6744
13721TIP3   OH262577   5.105   5.817  11.597  1.1059 -0.7552 -0.8539
13721TIP3    H162578   5.122   5.910  11.588 -0.9818 -0.4522 -2.3522
13721TIP3    H262579   5.132   5.796  11.686  0.7279  1.4899 -0.1619
13722TIP3   OH262580   2.845   0.665   0.451  0.1595 -0.0141  0.0619
13722TIP3    H162581   2.936   0.673   0.422  0.1271 -3.1801 -1.2911
13722TIP3    H262582   2.797   0.724   0.393  1.1216  0.2470 -0.5060
13723TIP3   OH262583   6.542   6.067  14.241  0.1248 -0.2713 -0.3860
13723TIP3    H162584   6.583   6.031  14.320 -2.3281  0.0121  1.0918
13723TIP3    H262585   6.583   6.018  14.169  1.7864 -1.1699  1.0810
13724TIP3   OH262586   2.646   5.784  14.951 -0.4863 -0.4310  0.1833
13724TIP3    H162587   2.658   5.689  14.947 -1.9394 -0.5902 -1.1983
13724TIP3    H262588   2.697   5.811  15.027  1.8253 -2.0031 -0.6894
13725TIP3   OH262589   5.173   3.749  14.222 -0.4643 -0.2987 -0.9244
13725TIP3    H162590   5.239   3.776  14.158  0.8759 -2.6461 -0.6586
13725TIP3    H262591   5.167   3.823  14.283  3.4468 -0.6127  0.1445
13726TIP3   OH262592   1.021   6.587  13.724  0.2706 -0.0490 -0.2565
13726TIP3    H162593   0.938   6.580  13.772  0.2102  0.4295 -0.2888
13726TIP3    H262594   1.001   6.552  13.638 -0.0882  0.7018 -0.4871
13727TIP3   OH262595   5.498   1.093   4.797  0.1863  0.3152 -0.8290
13727TIP3    H162596   5.482   1.000   4.784 -0.3741 -0.0977  2.1419
13727TIP3    H262597   5.585   1.097   4.837  1.0085  1.2832 -2.5915
13728TIP3   OH262598   0.712   5.336   3.207 -0.1612  0.0421  0.1518
13728TIP3    H162599   0.807   5.343   3.216 -0.2047 -0.5186  1.0943
13728TIP3    H262600   0.700   5.272   3.137  0.1485  2.4645 -2.2802
13729TIP3   OH262601   4.687   0.341   2.743  0.1162  0.0006  0.2416
13729TIP3    H162602   4.738   0.324   2.664  0.9676  3.3718 -0.1121
13729TIP3    H262603   4.729   0.418   2.782 -2.2995  0.4616  2.1637
13730TIP3   OH262604   4.105   1.486   3.620  0.2369 -0.7221  0.3510
13730TIP3    H162605   4.191   1.491   3.661  0.7752 -0.0462 -0.7946
13730TIP3    H262606   4.050   1.546   3.672  1.4266  1.7213 -1.0349
13731TIP3   OH262607   1.086   0.213   3.503 -0.4078  0.3695 -0.1419
13731TIP3    H162608   1.077   0.299   3.544  1.3213  0.6990 -0.3563
13731TIP3    H262609   1.022   0.212   3.432 -1.0243  1.1388  0.3946
13732TIP3   OH262610   0.165   6.642  16.480 -0.0507 -0.2905  0.4242
13732TIP3    H162611   0.220   6.657  16.403 -0.4701  0.1146  0.1996
13732TIP3    H262612   0.114   6.723  16.489 -0.8092 -0.7677  0.4604
13733TIP3   OH262613   4.904   1.275   4.519  0.5614 -0.0231  0.3073
13733TIP3    H162614   4.840   1.321   4.465  0.2131 -2.0330 -1.0940
13733TIP3    H262615   4.985   1.280   4.468  0.1125 -2.3752 -0.7761
13734TIP3   OH262616   1.182   5.561  16.668  0.3829  0.1175  0.5060
13734TIP3    H162617   1.197   5.609  16.587 -1.1199  0.9088  0.6790
13734TIP3    H262618   1.117   5.612  16.715  0.2246 -1.0475  1.6042
13735TIP3   OH262619   0.197   0.227   3.444 -0.2845 -0.0778  0.7427
13735TIP3    H162620   0.131   0.254   3.507 -0.1344  0.8088  0.5245
13735TIP3    H262621   0.280   0.255   3.482 -0.2203  0.7560  0.0032
13736TIP3   OH262622   4.420   1.158   1.168  0.1756 -0.4523 -0.7331
13736TIP3    H162623   4.422   1.137   1.075 -0.1675 -1.2070 -0.5757
13736TIP3    H262624   4.422   1.073   1.212  2.0873 -0.0849 -0.0018
13737TIP3   OH262625   3.882   3.272   1.252  0.1485  0.8717 -0.3557
13737TIP3    H162626   3.834   3.228   1.323  0.5666  1.4895  0.3246
13737TIP3    H262627   3.830   3.349   1.231  0.7899  1.5278  0.3642
13738TIP3   OH262628   4.641   2.464   0.158 -0.5125 -0.8732 -0.5113
13738TIP3    H162629   4.605   2.422   0.236  1.9888 -1.4723  0.4167
13738TIP3    H262630   4.642   2.557   0.179  2.0101 -1.1843  1.1070
13739TIP3   OH262631   2.351   2.242  14.680 -0.1344 -0.1690 -0.1869
13739TIP3    H162632   2.435   2.247  14.633  0.4420 -2.2214  0.5303
13739TIP3    H262633   2.289   2.208  14.616 -0.0145 -0.2940 -0.2369
13740TIP3   OH262634   0.565   4.508   0.734 -0.5370  0.3270 -0.2056
13740TIP3    H162635   0.507   4.533   0.662 -1.5827  0.0264  0.5056
13740TIP3    H262636   0.598   4.591   0.768  0.6668  0.4349 -1.5743
13741TIP3   OH262637   0.797   0.265   2.308  0.6927 -0.1987 -0.2482
13741TIP3    H162638   0.710   0.304   2.294  1.3655  3.7249  4.1429
13741TIP3    H262639   0.780   0.189   2.364  0.0666  0.7848  0.9295
13742TIP3   OH262640   3.571   0.061  12.803  0.4798  0.3852 -0.2774
13742TIP3    H162641   3.618  -0.020  12.785 -0.4873 -0.4202  0.7511
13742TIP3    H262642   3.520   0.043  12.881 -1.0564  1.4380 -0.9907
13743TIP3   OH262643   0.182   0.988  15.432 -0.3520  0.2237 -0.2728
13743TIP3    H162644   0.137   1.069  15.457  0.2012 -0.1230  2.1246
13743TIP3    H262645   0.258   1.016  15.382  0.3692  1.3185  1.3429
13744TIP3   OH262646   3.542   1.532   5.639  0.2131  0.1495  0.8625
13744TIP3    H162647   3.604   1.533   5.712  2.1741  1.9373 -0.7155
13744TIP3    H262648   3.486   1.608   5.654  1.6563  1.4826 -0.2649
13745TIP3   OH262649   4.994   1.649   4.870 -0.3265  0.0074 -0.1747
13745TIP3    H162650   4.999   1.713   4.941  1.5651 -1.2059  0.8636
13745TIP3    H262651   4.963   1.569   4.912  0.0055 -0.5077 -0.8954
13746TIP3   OH262652   1.009   4.490   3.576  0.1251 -0.9178 -0.6558
13746TIP3    H162653   1.062   4.569   3.578  0.2153 -0.9899  1.0497
13746TIP3    H262654   1.041   4.441   3.500 -1.0407  1.3780 -2.7603
13747TIP3   OH262655   1.467   1.771   3.310 -0.7871  0.2240 -0.0414
13747TIP3    H162656   1.529   1.816   3.368 -2.0634 -0.1450  1.7094
13747TIP3    H262657   1.520   1.740   3.238  0.9946  0.3315  1.1584
13748TIP3   OH262658   1.190   0.920  12.907  0.4633 -0.3215 -0.2661
13748TIP3    H162659   1.279   0.915  12.874  1.4656  3.4889  1.2970
13748TIP3    H262660   1.143   0.973  12.843 -0.1627 -0.7572 -0.1771
13749TIP3   OH262661   5.780   6.335  13.074 -0.2211  0.2855 -0.1568
13749TIP3    H162662   5.827   6.283  13.138  0.5153  0.6404 -0.4037
13749TIP3    H262663   5.691   6.343  13.110 -0.1712 -0.6111  0.1777
13750TIP3   OH262664   3.848   1.851   4.853 -0.0528 -0.5783  0.1325
13750TIP3    H162665   3.758   1.839   4.823  0.6255 -1.5599 -1.6576
13750TIP3    H262666   3.851   1.942   4.884 -1.7205 -0.6338  0.5678
13751TIP3   OH262667   4.729   2.989  16.707 -0.4880  0.1844  0.5267
13751TIP3    H162668   4.685   3.036  16.778  0.6873  0.9596  0.7631
13751TIP3    H262669   4.681   3.015  16.628 -0.3636  1.1514  0.7549
13752TIP3   OH262670   3.841   1.999   4.082  0.6494  0.0787  0.4652
13752TIP3    H162671   3.869   2.014   3.992  0.9313  0.4002  0.6032
13752TIP3    H262672   3.898   2.055   4.135 -0.5827  1.1460  0.7172
13753TIP3   OH262673   1.685   1.168   2.143  0.6485  0.3149  0.2464
13753TIP3    H162674   1.624   1.094   2.142 -1.8310  2.2033 -2.0229
13753TIP3    H262675   1.729   1.165   2.058 -0.4530  2.1017 -0.4410
13754TIP3   OH262676   4.582   6.684  14.307  0.2742  0.2535 -0.3984
13754TIP3    H162677   4.502   6.652  14.265 -0.6458  1.1670  0.6109
13754TIP3    H262678   4.606   6.761  14.256  0.7761 -0.2674 -0.9680
13755TIP3   OH262679   4.910   5.359   1.852 -0.7238 -0.2424 -0.0957
13755TIP3    H162680   4.903   5.308   1.771  0.4220 -2.3712  1.0576
13755TIP3    H262681   4.981   5.420   1.836 -0.6531 -0.4959 -0.7752
13756TIP3   OH262682   5.754   0.199  17.030 -0.1693  0.0176  0.7083
13756TIP3    H162683   5.735   0.108  17.051  0.1664 -0.4282 -0.8618
13756TIP3    H262684   5.802   0.231  17.107 -0.7106 -0.9685  1.4880
13757TIP3   OH262685   5.335   4.898  11.242 -0.3231  0.5174  0.0803
13757TIP3    H162686   5.351   4.974  11.187  0.0521 -0.1295 -0.7304
13757TIP3    H262687   5.305   4.830  11.181  0.2392 -0.2554  0.6425
13758TIP3   OH262688   3.410   0.208  14.033  0.1314  0.2635  0.1345
13758TIP3    H162689   3.468   0.271  14.074  0.8428  0.2140 -0.7524
13758TIP3    H262690   3.370   0.255  13.960  3.3959 -1.1006 -2.8864
13759TIP3   OH262691   2.419   5.856  11.711  0.0513 -0.1844 -0.0162
13759TIP3    H162692   2.376   5.921  11.654 -0.8190 -0.9752 -0.3002
13759TIP3    H262693   2.507   5.848  11.676 -0.2172 -0.0420 -0.7441
13760TIP3   OH262694   5.362   6.045   1.119 -0.2347  0.3477 -0.1078
13760TIP3    H162695   5.324   6.045   1.031  0.9696  3.2504 -0.7644
13760TIP3    H262696   5.396   5.957   1.131 -0.8936 -0.2765 -2.3590
13761TIP3   OH262697   2.308   5.061  13.099  0.6982  0.2127 -0.0062
13761TIP3    H162698   2.233   5.091  13.150  1.0676 -0.6058  1.0415
13761TIP3    H262699   2.273   5.048  13.010  0.1230  1.9608 -0.0857
13762TIP3   OH262700   1.783   6.521   0.115 -0.0283  0.1916 -0.1036
13762TIP3    H162701   1.698   6.563   0.105  0.3507  0.8998 -0.3690
13762TIP3    H262702   1.776   6.442   0.061 -0.8946 -0.3473  0.7510
13763TIP3   OH262703   5.906   4.804  12.266  0.4914 -0.0979 -0.6125
13763TIP3    H162704   5.882   4.817  12.174 -0.9618  2.0430  0.0086
13763TIP3    H262705   5.955   4.721  12.266  1.4093  0.3360 -3.4403
13764TIP3   OH262706   1.062   6.580   4.644  0.5187  0.0220 -0.2817
13764TIP3    H162707   0.996   6.596   4.577  1.1145  1.0212 -0.6560
13764TIP3    H262708   1.104   6.665   4.657 -0.8412  0.3340  2.7703
13765TIP3   OH262709   6.400   6.276  12.144  0.5755  0.3375  0.1480
13765TIP3    H162710   6.388   6.198  12.090  1.7188 -0.7346  1.3577
13765TIP3    H262711   6.469   6.326  12.100  0.1850  0.4173 -0.3743
13766TIP3   OH262712   2.904   4.800  14.169  0.1594  0.0071  0.4308
13766TIP3    H162713   2.932   4.880  14.213  2.6613 -0.3958 -0.2189
13766TIP3    H262714   2.916   4.732  14.235  3.3804 -0.5155 -0.4698
13767TIP3   OH262715   5.417   4.577  12.625 -0.0073 -0.1486  1.0000
13767TIP3    H162716   5.504   4.560  12.660  0.6165 -0.4259 -0.5782
13767TIP3    H262717   5.379   4.490  12.612 -0.0632 -0.0711  0.6300
13768TIP3   OH262718   0.817   4.520  15.887 -0.2248  0.5871  0.2055
13768TIP3    H162719   0.853   4.552  15.805  0.2763  0.4171  0.3553
13768TIP3    H262720   0.800   4.427  15.872 -1.1319  0.7870 -0.0426
13769TIP3   OH262721   1.780   0.577  11.767 -0.0081  0.1532  0.7232
13769TIP3    H162722   1.873   0.599  11.758 -0.1549  0.5871  0.2146
13769TIP3    H262723   1.735   0.646  11.718 -0.5281 -0.7330 -0.0746
13770TIP3   OH262724   3.973   1.648  14.310 -0.3096 -0.4205 -0.2849
13770TIP3    H162725   3.921   1.727  14.298  2.0731  1.0036 -2.2573
13770TIP3    H262726   3.933   1.584  14.252  0.0607  0.6469 -1.7716
13771TIP3   OH262727   6.722   4.171  16.636 -0.2692 -0.5957  0.5700
13771TIP3    H162728   6.681   4.097  16.679 -1.1842 -0.2352  0.3353
13771TIP3    H262729   6.663   4.245  16.652  0.5359  0.0522  0.6575
13772TIP3   OH262730   2.683   3.995  11.125 -0.1066 -0.3738  0.6520
13772TIP3    H162731   2.718   4.028  11.207  0.3365  0.4347  0.1510
13772TIP3    H262732   2.648   3.909  11.147 -0.5032  0.0623  1.8042
13773TIP3   OH262733   3.328   2.205  10.947  0.0042 -0.6206 -0.1326
13773TIP3    H162734   3.265   2.177  10.881 -1.0362 -1.3044  1.0896
13773TIP3    H262735   3.402   2.144  10.937 -0.7238 -1.5840  0.1911
13774TIP3   OH262736   5.948   4.274   4.416 -0.1162 -0.4368  0.0553
13774TIP3    H162737   6.022   4.242   4.364 -0.9313 -0.7574 -0.9401
13774TIP3    H262738   5.878   4.210   4.401 -0.0924 -1.0910  2.3457
13775TIP3   OH262739   0.947   4.942   3.347 -0.0436  0.4663 -0.3098
13775TIP3    H162740   0.907   5.007   3.405  1.5806 -0.2599  1.7351
13775TIP3    H262741   0.988   4.879   3.406  1.1472 -0.6946 -2.2659
13776TIP3   OH262742   3.236   3.089   1.396 -0.1317 -0.5917 -0.1678
13776TIP3    H162743   3.216   3.082   1.490  0.0246  0.7270 -0.0121
13776TIP3    H262744   3.196   3.173   1.370 -0.6188 -1.1894 -1.4016
13777TIP3   OH262745   6.365   1.845   3.257  0.1495  0.0628 -0.0101
13777TIP3    H162746   6.451   1.859   3.217  0.1290 -0.2921 -0.1786
13777TIP3    H262747   6.359   1.751   3.269  1.1379  0.2702  2.9647
13778TIP3   OH262748   4.849   6.067   5.419 -0.2623 -0.7507  0.2004
13778TIP3    H162749   4.936   6.098   5.444 -0.4190  0.1088 -0.2981
13778TIP3    H262750   4.857   5.972   5.417  1.3788 -0.6535 -2.3353
13779TIP3   OH262751   2.331   1.575  15.916 -0.6455 -0.6093 -0.3062
13779TIP3    H162752   2.296   1.648  15.968 -0.0557  0.1273 -0.9143
13779TIP3    H262753   2.306   1.497  15.965  0.5466  0.0670  1.5082
13780TIP3   OH262754   6.310   4.125   1.742  0.3750  0.1270  0.5098
13780TIP3    H162755   6.346   4.168   1.820 -2.0735 -2.2503  3.1398
13780TIP3    H262756   6.217   4.146   1.744  0.0636 -0.9441 -1.1326
13781TIP3   OH262757   4.641   5.189   3.703 -0.4801  0.0686 -0.2148
13781TIP3    H162758   4.553   5.152   3.713 -0.4630 -0.0106 -0.3480
13781TIP3    H262759   4.635   5.245   3.625 -0.1697 -0.7011 -0.8106
13782TIP3   OH262760   6.351   3.421  15.211  0.3911 -0.5886  0.2786
13782TIP3    H162761   6.353   3.517  15.220  0.5929 -0.6816  1.4785
13782TIP3    H262762   6.291   3.392  15.279 -2.0833 -1.1744 -2.0161
13783TIP3   OH262763   0.844   2.726   4.152 -0.2639  0.3943  0.8286
13783TIP3    H162764   0.854   2.768   4.238 -2.6671  4.1582 -0.4887
13783TIP3    H262765   0.753   2.695   4.151 -0.9740  2.2809 -0.9504
13784TIP3   OH262766   5.977   3.141   2.333 -0.3504 -0.9043  0.2309
13784TIP3    H162767   5.926   3.222   2.331  1.3009  0.2379  1.4682
13784TIP3    H262768   6.032   3.150   2.411 -0.9016 -3.7403  1.0351
13785TIP3   OH262769   2.335   2.683   2.503 -0.0862  0.2783 -0.6182
13785TIP3    H162770   2.320   2.664   2.595 -0.8781 -1.4360 -1.0671
13785TIP3    H262771   2.399   2.617   2.475 -0.2218  0.4692 -1.4098
13786TIP3   OH262772   6.074   0.416  12.327 -0.0824  0.7328 -0.1026
13786TIP3    H162773   5.989   0.372  12.321 -0.3262  0.9242  1.5248
13786TIP3    H262774   6.088   0.453  12.240 -2.9403  3.0182  0.2711
13787TIP3   OH262775   3.594   2.406  16.054 -0.1105  0.3853  0.3431
13787TIP3    H162776   3.555   2.493  16.066  1.3163  0.8326  2.2253
13787TIP3    H262777   3.685   2.424  16.032 -0.0230 -0.6502 -0.1963
13788TIP3   OH262778   4.804   6.560   2.419 -0.5546  0.1984 -0.3348
13788TIP3    H162779   4.821   6.647   2.383  1.9051  0.5130  1.3466
13788TIP3    H262780   4.800   6.574   2.513 -2.4926 -1.2180 -0.1519
13789TIP3   OH262781   0.778   0.309   1.367  0.5805 -0.1570  0.1566
13789TIP3    H162782   0.786   0.219   1.396  0.5239 -0.3536 -0.4276
13789TIP3    H262783   0.737   0.303   1.280  1.0727  0.3932 -0.1195
13790TIP3   OH262784   0.546   0.341  15.059 -0.0166  0.1012 -0.3926
13790TIP3    H162785   0.627   0.384  15.033  0.9812 -1.6086 -0.3221
13790TIP3    H262786   0.482   0.367  14.993  1.4744 -1.1083 -2.4378
13791TIP3   OH262787   0.742   1.256   5.581  0.3860 -0.2280 -0.4350
13791TIP3    H162788   0.720   1.339   5.624 -0.0856 -1.0315  0.9454
13791TIP3    H262789   0.690   1.257   5.500  0.3215  0.7774 -0.3990
13792TIP3   OH262790   3.221   5.510   5.389  0.3389  0.1413 -0.0118
13792TIP3    H162791   3.150   5.446   5.394  0.9148 -0.5744 -0.6641
13792TIP3    H262792   3.287   5.477   5.451  0.6313  0.0947 -0.3420
13793TIP3   OH262793   4.818   3.351   2.536 -0.0886  0.5721 -0.0275
13793TIP3    H162794   4.804   3.340   2.442 -0.5726  1.1973 -0.0293
13793TIP3    H262795   4.760   3.287   2.577 -0.9384  1.2881 -0.1120
13794TIP3   OH262796   0.473   5.558   0.026 -0.4251  0.1618 -0.6802
13794TIP3    H162797   0.380   5.536   0.015 -0.6702 -0.3039  1.7725
13794TIP3    H262798   0.519   5.494  -0.029 -1.5126 -0.4402 -0.9314
13795TIP3   OH262799   6.562   4.567   5.047 -0.3606  0.5529 -0.2948
13795TIP3    H162800   6.580   4.658   5.021 -1.5476  0.7248 -0.5809
13795TIP3    H262801   6.466   4.560   5.045 -0.3744 -0.2326  1.3570
13796TIP3   OH262802   3.307   0.069  11.708  0.0613 -0.0511 -0.0805
13796TIP3    H162803   3.227   0.110  11.675  0.6524 -0.2411 -1.8286
13796TIP3    H262804   3.341   0.132  11.771 -0.1285  1.2314 -1.2059
13797TIP3   OH262805   3.447   5.855  11.890  1.1536 -0.7158  0.1300
13797TIP3    H162806   3.353   5.865  11.876  1.1823 -1.7158 -0.8804
13797TIP3    H262807   3.453   5.796  11.966  0.9770 -0.2303  0.5263
13798TIP3   OH262808   4.555   5.182  14.095  0.1916 -0.1895  0.3241
13798TIP3    H162809   4.466   5.172  14.060 -0.6001  0.8622  1.8916
13798TIP3    H262810   4.554   5.133  14.177  0.6451  0.8776  0.9847
13799TIP3   OH262811   6.735   1.814  14.571 -0.3512  0.1471  0.0686
13799TIP3    H162812   6.644   1.787  14.564 -0.5463  0.2919  1.6691
13799TIP3    H262813   6.733   1.908  14.552 -0.3237 -0.0948 -1.1892
13800TIP3   OH262814   4.876   4.889   1.410 -0.1505 -0.0255 -0.3976
13800TIP3    H162815   4.887   4.912   1.318  2.6684 -0.6383 -0.3012
13800TIP3    H262816   4.964   4.895   1.448 -0.8475 -1.8214  1.7697
13801TIP3   OH262817   1.589   3.164  11.119 -0.0067 -0.4724 -0.3899
13801TIP3    H162818   1.663   3.219  11.143  0.4059 -0.3701 -1.7875
13801TIP3    H262819   1.514   3.223  11.117 -0.3509 -0.7492  1.9332
13802TIP3   OH262820   1.983   6.513  16.504  0.1952  0.0336 -0.7290
13802TIP3    H162821   2.018   6.600  16.526 -1.2288  1.0345 -2.2215
13802TIP3    H262822   1.902   6.507  16.555  0.0612 -0.2399 -0.9788
13803TIP3   OH262823   4.849   3.437   6.533  0.3004  0.1327  0.1257
13803TIP3    H162824   4.882   3.514   6.579 -2.7077  1.5875  0.1039
13803TIP3    H262825   4.882   3.446   6.444 -0.1615  1.5750  0.0651
13804TIP3   OH262826   6.374   0.684  12.914  0.0750  0.1636  0.1847
13804TIP3    H162827   6.406   0.774  12.903 -1.8187  0.8573 -0.1227
13804TIP3    H262828   6.434   0.630  12.863 -0.4908  1.6588 -2.2355
13805TIP3   OH262829   1.114   2.323   5.508 -0.1390 -0.2716  0.1804
13805TIP3    H162830   1.187   2.268   5.535  1.0825  0.2663 -1.7708
13805TIP3    H262831   1.037   2.268   5.517  0.6134 -1.1492  1.4698
13806TIP3   OH262832   0.384   1.868   6.215 -0.1557  0.3422  0.3703
13806TIP3    H162833   0.476   1.889   6.196 -0.6623  2.0136 -0.4694
13806TIP3    H262834   0.371   1.899   6.305 -0.2292  1.3390  0.0241
13807TIP3   OH262835   5.512   5.657  13.174 -0.3460  0.7244 -0.2866
13807TIP3    H162836   5.445   5.677  13.239  0.5449  1.1388  0.5207
13807TIP3    H262837   5.575   5.728  13.182  0.1879  0.3460 -1.0417
13808TIP3   OH262838   3.136   4.478  12.210  1.0676 -0.5327  0.1413
13808TIP3    H162839   3.231   4.488  12.207  1.1264  0.9987  3.3804
13808TIP3    H262840   3.105   4.550  12.265 -1.9547 -1.2600 -0.4033
13809TIP3   OH262841   0.876   2.425  16.574  0.2726  0.0890 -0.0770
13809TIP3    H162842   0.784   2.452  16.573  0.6762  1.6374  1.3755
13809TIP3    H262843   0.879   2.352  16.636  0.1652  0.6412  0.5844
13810TIP3   OH262844   4.506   1.503  12.175 -0.3341  0.5236 -0.1964
13810TIP3    H162845   4.520   1.525  12.083 -0.6808  1.1814 -0.0995
13810TIP3    H262846   4.468   1.582  12.213 -1.0566 -0.0543  0.3107
13811TIP3   OH262847   2.397   5.491   5.595 -0.4677 -0.2294 -0.1548
13811TIP3    H162848   2.475   5.470   5.544 -0.1678 -0.6335  0.4545
13811TIP3    H262849   2.426   5.484   5.686 -1.2576 -0.5555  0.0769
13812TIP3   OH262850   2.291   0.769  17.093 -0.1646 -0.0307  0.4067
13812TIP3    H162851   2.252   0.758  17.179 -0.7792 -1.2535 -0.0046
13812TIP3    H262852   2.217   0.768  17.032  0.4095 -2.1439 -0.3678
13813TIP3   OH262853   6.467   4.873   0.219 -0.0204 -0.2068 -0.1500
13813TIP3    H162854   6.426   4.789   0.198  1.0251 -0.7030 -0.2552
13813TIP3    H262855   6.454   4.882   0.314  2.2512 -1.8633  0.4116
13814TIP3   OH262856   2.571   1.569   4.489  0.1212 -0.3345  0.2912
13814TIP3    H162857   2.532   1.654   4.507  2.3118  0.6807  0.5166
13814TIP3    H262858   2.563   1.558   4.394  1.3421  0.9689 -0.0006
13815TIP3   OH262859   2.186   5.537  11.231  0.1698  0.0307  0.1231
13815TIP3    H162860   2.146   5.620  11.205  1.4002  1.1123  1.5119
13815TIP3    H262861   2.251   5.519  11.163 -0.5908 -0.1883 -0.5585
13816TIP3   OH262862   5.968   1.086  12.733 -0.5941  0.3289  0.1302
13816TIP3    H162863   5.893   1.071  12.676 -0.3106  0.5289 -0.2974
13816TIP3    H262864   6.032   1.021  12.706 -0.6543  0.0788  0.5775
13817TIP3   OH262865   2.800   4.154  14.941  0.0292  0.3644  0.0592
13817TIP3    H162866   2.843   4.069  14.948 -0.4949  0.1593  0.9310
13817TIP3    H262867   2.809   4.193  15.028 -0.4959  0.8286 -0.0862
13818TIP3   OH262868   6.037   2.120  12.598  0.8086  0.2224  0.3436
13818TIP3    H162869   6.061   2.156  12.684  1.8497 -2.2660  1.2067
13818TIP3    H262870   6.021   2.027  12.616 -2.5248  0.2745 -1.5470
13819TIP3   OH262871   6.148   5.860   6.003  0.3457 -0.0035  0.1200
13819TIP3    H162872   6.126   5.930   6.066 -0.8072 -1.4453  1.3944
13819TIP3    H262873   6.102   5.885   5.923 -1.9472 -0.3969  1.2417
13820TIP3   OH262874   2.171   1.969  15.467 -0.9297  0.3388 -0.2830
13820TIP3    H162875   2.233   2.042  15.467  1.8299 -1.8533 -0.7707
13820TIP3    H262876   2.171   1.938  15.558  0.2724 -0.8338 -0.6449
13821TIP3   OH262877   0.311   2.190   0.359 -0.1969 -0.2302  0.2870
13821TIP3    H162878   0.263   2.191   0.442 -1.3099 -0.3292 -0.3338
13821TIP3    H262879   0.299   2.278   0.323  1.9405  0.4660  1.1162
13822TIP3   OH262880   6.735   6.573   2.147 -0.0524  0.0441 -0.0609
13822TIP3    H162881   6.641   6.589   2.160  0.1994  0.7910  1.0209
13822TIP3    H262882   6.751   6.489   2.189 -0.5106 -0.8751 -1.6442
13823TIP3   OH262883   6.452   2.219   5.683 -0.3339  0.1166 -0.3194
13823TIP3    H162884   6.393   2.293   5.667  0.9774  1.2222 -0.3146
13823TIP3    H262885   6.492   2.202   5.598 -1.8736 -1.7767 -0.7219
13824TIP3   OH262886   3.626   5.001   4.154 -0.0407  0.0433 -0.7432
13824TIP3    H162887   3.579   4.984   4.236 -0.8030  2.3264 -0.6196
13824TIP3    H262888   3.647   4.914   4.120 -0.1275 -0.9953  1.6071
13825TIP3   OH262889   5.211   2.090   4.869 -0.9137  0.3779  0.2020
13825TIP3    H162890   5.263   2.044   4.804 -3.6311 -2.4744 -0.2024
13825TIP3    H262891   5.237   2.051   4.953 -1.2687  0.0691  0.1722
13826TIP3   OH262892   2.299   5.527  14.497  0.6978 -0.2411  0.3788
13826TIP3    H162893   2.323   5.612  14.460  0.6087  0.1339  1.1595
13826TIP3    H262894   2.383   5.484  14.513  0.8252  0.3979  1.5561
13827TIP3   OH262895   6.114   3.883  11.334  0.1989  0.1076  0.0023
13827TIP3    H162896   6.110   3.965  11.382  1.9489  0.1150  0.2258
13827TIP3    H262897   6.071   3.819  11.391 -0.3105  0.6739  0.2617
13828TIP3   OH262898   6.041   0.849  16.306 -0.6375 -0.0981  0.1860
13828TIP3    H162899   6.001   0.798  16.376  1.8025 -2.8961 -0.2289
13828TIP3    H262900   6.129   0.870  16.338 -0.2238  0.4220 -1.1949
13829TIP3   OH262901   4.415   0.789  14.280 -0.1897 -0.4039 -0.6887
13829TIP3    H162902   4.322   0.803  14.298 -0.4489 -2.5363 -0.1373
13829TIP3    H262903   4.419   0.771  14.186 -0.5229 -1.4921 -0.5073
13830TIP3   OH262904   6.692   3.424  16.554  0.3018 -0.3700 -0.4616
13830TIP3    H162905   6.745   3.489  16.508  0.8087 -0.1419  0.4215
13830TIP3    H262906   6.695   3.451  16.646 -1.3744 -0.3320 -0.3832
13831TIP3   OH262907   1.304   4.584  16.585 -1.0613 -0.2127  0.0569
13831TIP3    H162908   1.249   4.655  16.553 -0.4875 -0.6461 -2.0317
13831TIP3    H262909   1.316   4.527  16.510  2.6960  0.1498  0.1981
13832TIP3   OH262910   4.163   3.006  13.856 -0.4824  0.3658  0.0066
13832TIP3    H162911   4.088   3.053  13.820 -1.2470 -1.4201 -0.8248
13832TIP3    H262912   4.128   2.958  13.931  0.0048  0.1503  0.1033
13833TIP3   OH262913   6.495   2.887   4.622 -0.3724  0.2981 -0.4534
13833TIP3    H162914   6.579   2.894   4.576 -0.4816  0.4453 -0.6349
13833TIP3    H262915   6.430   2.913   4.556 -0.5239  0.5859 -0.1937
13834TIP3   OH262916   0.515   1.843   1.354  0.3085  0.4246 -0.1085
13834TIP3    H162917   0.594   1.839   1.407 -0.1386 -0.5852  0.5002
13834TIP3    H262918   0.525   1.924   1.303  1.3556  0.7209  0.5313
13835TIP3   OH262919   4.744   5.761   2.766  0.3759  0.5184 -0.1550
13835TIP3    H162920   4.824   5.738   2.718 -0.6958 -1.7846 -0.9508
13835TIP3    H262921   4.763   5.736   2.856  0.6472  0.1999 -0.2961
13836TIP3   OH262922   1.148   2.196  15.076  0.6332  0.3358  0.2140
13836TIP3    H162923   1.158   2.116  15.024 -1.0646  1.7964 -2.5716
13836TIP3    H262924   1.056   2.194  15.104  0.0718  2.1113 -1.3854
13837TIP3   OH262925   0.482   1.115  13.162 -0.3219  0.3616  0.1411
13837TIP3    H162926   0.413   1.051  13.143  0.8357 -0.4298 -1.6369
13837TIP3    H262927   0.463   1.190  13.105  0.8643 -0.3313 -1.2394
13838TIP3   OH262928   4.523   6.499  16.102 -0.7839 -0.5725 -0.2373
13838TIP3    H162929   4.603   6.511  16.154 -0.5559  0.5710 -0.8088
13838TIP3    H262930   4.455   6.478  16.166  0.1632 -2.6667  0.1631
13839TIP3   OH262931   3.082   4.889  13.111  0.5384 -0.2311  0.0490
13839TIP3    H162932   3.028   4.941  13.051  1.9205  1.3334  0.0864
13839TIP3    H262933   3.167   4.883  13.066  0.6990 -1.6029  0.5211
13840TIP3   OH262934   6.395   1.844  11.403  0.4313 -0.8818 -0.3452
13840TIP3    H162935   6.348   1.788  11.465 -2.3170  1.3952 -0.1336
13840TIP3    H262936   6.363   1.933  11.424  4.4374  0.8382 -0.6704
13841TIP3   OH262937   2.787   0.681   3.916 -0.4715 -0.3988  0.2863
13841TIP3    H162938   2.811   0.727   3.835  0.1058 -1.3866 -0.1192
13841TIP3    H262939   2.870   0.664   3.959 -0.7491 -0.2675  0.8790
13842TIP3   OH262940   1.353   4.769   4.413  0.4115  0.4650 -0.2283
13842TIP3    H162941   1.404   4.825   4.471 -0.8693  1.7748 -0.3363
13842TIP3    H262942   1.306   4.829   4.355 -0.6386 -0.7233 -0.6597
13843TIP3   OH262943   1.679   3.325  15.498 -0.0830 -0.5307 -0.0216
13843TIP3    H162944   1.682   3.234  15.467 -2.2741 -0.2964 -1.1170
13843TIP3    H262945   1.682   3.378  15.419  1.2384  0.3971  0.6087
13844TIP3   OH262946   4.549   3.448  12.669 -0.1731 -0.4987  0.5914
13844TIP3    H162947   4.535   3.533  12.709 -0.4345  0.3129 -1.1355
13844TIP3    H262948   4.518   3.385  12.734 -0.7146  0.7469  1.5750
13845TIP3   OH262949   3.011   5.443   2.648  0.6141  1.1914 -0.1107
13845TIP3    H162950   3.044   5.375   2.708 -0.0133 -1.3959 -2.4608
13845TIP3    H262951   3.078   5.449   2.580 -0.5482  0.9349 -1.3117
13846TIP3   OH262952   2.391   2.625  12.171  0.3106 -0.4137  0.4774
13846TIP3    H162953   2.451   2.551  12.162  0.8167 -0.0625  0.8908
13846TIP3    H262954   2.426   2.692  12.113  0.0276 -0.3894  0.3341
13847TIP3   OH262955   2.569   0.208   0.243  0.0128  0.3612 -0.0014
13847TIP3    H162956   2.592   0.278   0.304 -1.8331  1.3906 -0.4096
13847TIP3    H262957   2.475   0.218   0.228 -0.8531 -3.5620  1.5777
13848TIP3   OH262958   1.669   2.231  16.129 -0.5567 -0.1475 -0.1480
13848TIP3    H162959   1.685   2.255  16.038  0.3549  1.0864  0.3064
13848TIP3    H262960   1.655   2.137  16.128  0.2981 -0.2765 -1.4514
13849TIP3   OH262961   5.572   2.221   6.015 -0.0373 -0.4163 -0.0087
13849TIP3    H162962   5.552   2.206   5.923 -0.5976  0.4527 -0.0397
13849TIP3    H262963   5.641   2.287   6.014 -0.1305 -0.3149  0.1910
13850TIP3   OH262964   3.421   0.986   5.265  0.2977  0.1518 -0.1839
13850TIP3    H162965   3.457   1.034   5.190  0.9420  0.6871  0.4602
13850TIP3    H262966   3.368   0.917   5.225  0.0908  0.8282 -1.1381
13851TIP3   OH262967   0.884   4.489   4.602  0.0116 -0.1982  0.0621
13851TIP3    H162968   0.956   4.429   4.616  0.3182 -0.1790 -1.3398
13851TIP3    H262969   0.865   4.524   4.689  1.1891 -0.7603  0.5631
13852TIP3   OH262970   5.760   0.173  13.359 -0.1164  0.1175 -0.2330
13852TIP3    H162971   5.833   0.145  13.304  0.1323  0.3694 -0.0327
13852TIP3    H262972   5.734   0.257  13.322 -0.1761  0.1230 -0.1770
13853TIP3   OH262973   0.333   2.506   5.086  0.3558  0.2504  0.2014
13853TIP3    H162974   0.358   2.464   5.169 -1.6068  0.2059  0.8280
13853TIP3    H262975   0.411   2.554   5.059  1.3254 -0.4380  1.6270
13854TIP3   OH262976   5.567   4.068  16.061  0.4902 -0.0239  0.4423
13854TIP3    H162977   5.489   4.122  16.061  0.8864  0.6466 -1.4832
13854TIP3    H262978   5.545   3.993  16.006  0.7348 -0.6066  1.1129
13855TIP3   OH262979   6.052   3.650   2.652 -0.2295  0.1540  0.1106
13855TIP3    H162980   6.053   3.555   2.662 -1.0653  0.2749  1.5213
13855TIP3    H262981   6.141   3.677   2.674  0.4365 -0.3861 -1.6916
13856TIP3   OH262982   0.425   0.421   5.480 -0.1090  0.2315 -0.1579
13856TIP3    H162983   0.448   0.360   5.550 -0.7765  0.9953  0.7460
13856TIP3    H262984   0.330   0.414   5.471 -0.1902  1.0802 -0.0869
13857TIP3   OH262985   3.963   2.119   1.614 -0.4004  0.0061  0.0348
13857TIP3    H162986   3.969   2.054   1.544 -2.5496  1.7588 -1.9660
13857TIP3    H262987   4.037   2.177   1.599  0.6349 -1.0310  0.8881
13858TIP3   OH262988   2.612   5.680  16.657 -0.7700  0.4085 -0.5311
13858TIP3    H162989   2.684   5.621  16.634 -0.6259  1.2307 -2.3505
13858TIP3    H262990   2.534   5.626  16.653 -0.4408 -0.1036 -0.1998
13859TIP3   OH262991   1.138   4.671   6.621 -0.3927 -0.1149  0.1988
13859TIP3    H162992   1.175   4.654   6.535 -1.0402 -0.6654  0.0226
13859TIP3    H262993   1.091   4.590   6.643 -2.4155  0.9395 -0.0637
13860TIP3   OH262994   2.246   0.283  16.150  0.5256  1.2933 -0.0114
13860TIP3    H162995   2.230   0.278  16.245  0.4954  4.1696  0.2088
13860TIP3    H262996   2.165   0.251  16.111  0.3787  0.4632  0.9117
13861TIP3   OH262997   3.754   5.481  13.144 -0.5333 -0.5808 -0.0019
13861TIP3    H162998   3.761   5.426  13.066  1.5768 -1.4059  0.6962
13861TIP3    H262999   3.739   5.569  13.110 -0.1443 -0.9984 -1.3159
13862TIP3   OH263000   4.412   2.671  13.585 -0.5582 -0.2627  0.1530
13862TIP3    H163001   4.456   2.746  13.625  0.6566 -1.1606  0.5728
13862TIP3    H263002   4.404   2.607  13.656 -2.3765 -0.2195  0.0257
13863TIP3   OH263003   3.858   6.527  15.324  0.0729 -0.3559  0.2906
13863TIP3    H163004   3.888   6.615  15.299  0.4577  0.3244  2.8125
13863TIP3    H263005   3.763   6.533  15.322  0.0604  0.6383  1.8088
13864TIP3   OH263006   3.794   4.642   5.777  0.5431  0.2322 -0.0412
13864TIP3    H163007   3.735   4.713   5.753  1.8269  0.7614 -1.9374
13864TIP3    H263008   3.833   4.670   5.860  0.2057  1.2341 -0.2045
13865TIP3   OH263009   5.394   4.472   2.441  0.1480  0.8336 -0.0770
13865TIP3    H163010   5.442   4.395   2.412  0.0517 -0.0644  1.9649
13865TIP3    H263011   5.313   4.436   2.480  0.4985  1.8487  1.7006
13866TIP3   OH263012   1.101   2.235   3.798  0.0970  0.5164  0.1752
13866TIP3    H163013   1.165   2.209   3.731  2.3635  0.6521  2.1762
13866TIP3    H263014   1.073   2.153   3.837  0.1673  0.5420  0.2797
13867TIP3   OH263015   4.645   0.623  17.054  0.4700 -0.5504 -0.0019
13867TIP3    H163016   4.631   0.713  17.025 -0.4083 -0.3488  0.9882
13867TIP3    H263017   4.686   0.580  16.979 -0.5478  0.2633 -1.0705
13868TIP3   OH263018   1.701   4.687   5.433  0.3301  0.2302 -0.2484
13868TIP3    H163019   1.725   4.613   5.488 -0.6920  0.6222  0.7629
13868TIP3    H263020   1.772   4.750   5.445  0.3678  0.0992  0.2041
13869TIP3   OH263021   3.532   0.378   7.008  0.2971  0.2676  0.4902
13869TIP3    H163022   3.603   0.363   6.946  0.3405  0.9457  0.3681
13869TIP3    H263023   3.469   0.308   6.990  0.2179  0.5634 -0.4613
13870TIP3   OH263024   3.096   2.925  10.310 -0.1120  0.4491  0.0195
13870TIP3    H163025   3.007   2.944  10.280  0.0573 -0.2035 -0.9489
13870TIP3    H263026   3.084   2.860  10.379 -0.3778  0.1178 -0.3319
13871TIP3   OH263027   2.128   4.481   2.294 -0.6403  0.1330  0.0435
13871TIP3    H163028   2.094   4.552   2.238 -0.0334  0.9423  0.6788
13871TIP3    H263029   2.214   4.462   2.258  0.1552  1.3158  1.2504
13872TIP3   OH263030   2.172   3.520   4.048 -0.0686 -0.7849  0.4319
13872TIP3    H163031   2.194   3.473   3.968 -1.0059  0.7903 -0.7937
13872TIP3    H263032   2.188   3.612   4.028 -0.4566 -0.3298  2.0130
13873TIP3   OH263033   0.670   2.929  15.151  0.7234 -0.3274 -0.1502
13873TIP3    H163034   0.588   2.888  15.179  0.3091  0.3735 -0.3183
13873TIP3    H263035   0.659   3.021  15.171  1.7272 -0.3117  0.4080
13874TIP3   OH263036   3.962   2.678  13.829  0.6356 -0.4746  0.4481
13874TIP3    H163037   3.974   2.739  13.901 -0.0640  1.6523 -1.1415
13874TIP3    H263038   3.894   2.618  13.859 -2.7649  2.8889  0.1555
13875TIP3   OH263039   2.584   2.127  14.094 -0.3271  0.7291 -0.0047
13875TIP3    H163040   2.531   2.098  14.169 -1.9557  0.6493 -1.1310
13875TIP3    H263041   2.591   2.222  14.104 -0.3509  0.6940  0.3586
13876TIP3   OH263042   4.502   0.432   0.391 -0.3969  0.4422  0.1419
13876TIP3    H163043   4.500   0.516   0.345  2.4934  1.5868  1.8180
13876TIP3    H263044   4.491   0.454   0.483  1.6713 -0.7869  0.7622
13877TIP3   OH263045   4.582   2.490  15.069  0.4025 -0.0547 -0.1944
13877TIP3    H163046   4.546   2.422  15.012  1.5623  0.7159 -1.9448
13877TIP3    H263047   4.515   2.559  15.069  0.6782  0.2429 -1.2649
13878TIP3   OH263048   1.222   4.996   4.278  0.4566 -0.3120  0.4063
13878TIP3    H163049   1.256   5.052   4.348  1.9333 -2.0150  1.1176
13878TIP3    H263050   1.160   4.937   4.322  0.4812 -0.5999  0.0630
13879TIP3   OH263051   3.489   4.765   0.947  0.0518  0.0123 -0.5480
13879TIP3    H163052   3.486   4.672   0.970 -3.3336  0.3844  1.2517
13879TIP3    H263053   3.436   4.771   0.867  0.5234  0.3661 -0.8368
13880TIP3   OH263054   4.287   3.567   4.622 -0.2565  0.1080 -0.3057
13880TIP3    H163055   4.292   3.568   4.718 -2.1779 -2.7879 -0.0340
13880TIP3    H263056   4.254   3.653   4.598  1.2778  1.2722  1.4931
13881TIP3   OH263057   1.761   5.691   2.751 -0.4555 -0.3333 -0.0094
13881TIP3    H163058   1.685   5.697   2.692 -0.7650 -0.3380  0.3845
13881TIP3    H263059   1.815   5.767   2.728 -0.4370 -0.4848 -0.4844
13882TIP3   OH263060   4.600   5.996  16.921  0.1709 -0.2527  0.1352
13882TIP3    H163061   4.592   6.046  17.002  0.1387  0.7047 -0.4397
13882TIP3    H263062   4.582   6.060  16.852  0.8854 -0.8927 -0.6604
13883TIP3   OH263063   1.479   2.951   2.103 -0.1284 -0.4028 -0.2098
13883TIP3    H163064   1.436   2.899   2.170  0.2266 -0.2771  0.1194
13883TIP3    H263065   1.478   3.041   2.136 -0.1352 -0.3054 -0.4661
13884TIP3   OH263066   2.859   5.000  11.136  0.0106  0.1725  0.0242
13884TIP3    H163067   2.771   4.963  11.131  0.3236 -0.5672 -0.1499
13884TIP3    H263068   2.884   5.015  11.044 -0.1147  0.8197  0.0934
13885TIP3   OH263069   1.741   2.907   2.669  0.5724  0.1982 -0.0150
13885TIP3    H163070   1.752   2.812   2.660 -1.2644 -0.2246  1.5239
13885TIP3    H263071   1.774   2.926   2.757  1.4095  1.1100 -0.5050
13886TIP3   OH263072   3.189   5.969   4.694 -0.0828  0.1282 -0.5653
13886TIP3    H163073   3.126   6.022   4.647  0.5923  0.2976 -1.3080
13886TIP3    H263074   3.183   5.999   4.785 -1.9929 -0.7818 -0.3395
13887TIP3   OH263075   4.029   1.981   5.425 -0.4009  0.8091  0.0492
13887TIP3    H163076   4.081   1.947   5.353 -1.5481  0.3488 -0.6013
13887TIP3    H263077   4.093   2.014   5.488  0.6396  0.6558 -0.8979
13888TIP3   OH263078   4.855   0.895  13.233  0.4059  0.0019  0.3659
13888TIP3    H163079   4.900   0.939  13.305  0.5629  1.8201 -0.8050
13888TIP3    H263080   4.925   0.871  13.172  0.0888  0.1307 -0.0523
13889TIP3   OH263081   4.747   1.992  17.249  0.1338  0.2335 -0.1307
13889TIP3    H163082   4.699   2.030  17.176 -0.5788 -1.1646 -0.4109
13889TIP3    H263083   4.751   2.063  17.314 -2.3270  0.4227 -0.0986
13890TIP3   OH263084   1.104   3.570  13.720 -0.4389  0.4496 -0.1022
13890TIP3    H163085   1.068   3.640  13.774  0.2361  1.1156 -0.5007
13890TIP3    H263086   1.157   3.615  13.654 -1.7736 -0.2604 -1.7613
13891TIP3   OH263087   3.159   2.432  15.205  0.2162  0.0102  0.4343
13891TIP3    H163088   3.223   2.495  15.239 -0.4521  0.2492  1.2748
13891TIP3    H263089   3.171   2.354  15.258  0.3676 -0.2353  0.0442
13892TIP3   OH263090   2.112   4.492  15.404  0.4914  0.2469  0.0293
13892TIP3    H163091   2.193   4.445  15.423  0.7249  0.8118  0.4261
13892TIP3    H263092   2.043   4.429  15.426  0.8012 -0.9178 -2.0091
13893TIP3   OH263093   5.624   1.709   5.323 -0.4570  0.1427  0.7070
13893TIP3    H163094   5.641   1.803   5.316  0.8458 -0.1936 -1.5930
13893TIP3    H263095   5.710   1.668   5.322 -1.0018 -1.1862 -1.5451
13894TIP3   OH263096   5.841   3.096  13.640 -0.2609 -0.3351  0.5919
13894TIP3    H163097   5.752   3.124  13.662 -0.5051  0.5827 -1.3899
13894TIP3    H263098   5.828   3.028  13.574  0.5047 -1.0962  1.2012
13895TIP3   OH263099   2.016   4.131   6.253 -0.1885 -0.2359  0.0538
13895TIP3    H163100   1.984   4.210   6.297 -1.5614 -0.4574 -0.4778
13895TIP3    H263101   2.071   4.088   6.319  0.5054  1.1044  0.3724
13896TIP3   OH263102   1.999   6.522  13.781 -0.1753  0.1926  1.0390
13896TIP3    H163103   1.982   6.526  13.687  0.4737  1.2063  0.9442
13896TIP3    H263104   2.024   6.431  13.796 -0.7951 -0.1133  0.3326
13897TIP3   OH263105   1.394   6.122   4.835  0.1474 -0.3518 -0.2509
13897TIP3    H163106   1.305   6.108   4.801  0.2296 -1.1016 -0.1636
13897TIP3    H263107   1.383   6.190   4.901 -0.1527  0.5099 -1.1464
13898TIP3   OH263108   4.118   3.221   0.066  0.3800  0.5407 -0.1015
13898TIP3    H163109   4.052   3.173   0.016 -0.1534  1.1604 -0.0048
13898TIP3    H263110   4.071   3.297   0.101  0.8255  0.3094  1.0422
13899TIP3   OH263111   4.401   0.211   3.717 -0.0165 -0.0467 -0.4111
13899TIP3    H163112   4.459   0.203   3.641  0.7103 -0.0361  0.1358
13899TIP3    H263113   4.340   0.138   3.708  1.9898 -1.9645  0.6243
13900TIP3   OH263114   5.816   1.145   5.416 -1.2257  0.0920  0.4700
13900TIP3    H163115   5.804   1.220   5.474 -1.7383 -1.3325  2.2878
13900TIP3    H263116   5.890   1.097   5.454  0.8071  0.9479 -2.1332
13901TIP3   OH263117   6.043   0.096  14.727  0.2347 -0.0026 -0.5603
13901TIP3    H163118   6.064   0.127  14.639  2.6115  1.7180  0.4938
13901TIP3    H263119   5.950   0.117  14.738  0.6055  2.5716 -1.6083
13902TIP3   OH263120   1.721   6.604  15.311  0.0601 -0.0475  0.2506
13902TIP3    H163121   1.630   6.577  15.306 -0.7375  2.2130  1.2090
13902TIP3    H263122   1.752   6.604  15.221 -1.6135  1.3005 -0.3826
13903TIP3   OH263123   1.000   0.177   2.126  0.2605 -0.3776  0.1698
13903TIP3    H163124   0.933   0.211   2.186 -0.0950 -0.7804  0.0017
13903TIP3    H263125   1.061   0.129   2.183  0.8634  0.6726  0.4332
13904TIP3   OH263126   2.569   2.054  14.748 -0.1884 -0.3810 -0.6566
13904TIP3    H163127   2.545   2.125  14.807  0.8042  1.6177 -2.5371
13904TIP3    H263128   2.662   2.039  14.764 -0.3390 -1.1661 -0.4276
13905TIP3   OH263129   6.328   5.603   0.167  0.0923  0.7339 -0.7573
13905TIP3    H163130   6.240   5.588   0.132  0.1033  0.1758 -0.5646
13905TIP3    H263131   6.321   5.581   0.260  0.0505  2.2737 -0.3824
13906TIP3   OH263132   6.421   0.410  14.986  0.7761 -0.4052 -0.2842
13906TIP3    H163133   6.426   0.402  15.081 -0.1220 -0.3489 -0.2185
13906TIP3    H263134   6.327   0.413  14.967  0.9511  0.9162 -1.0695
13907TIP3   OH263135   4.846   2.204   1.931  0.2238  0.0585  0.0121
13907TIP3    H163136   4.859   2.258   1.852  1.7805  0.7807  0.7251
13907TIP3    H263137   4.858   2.114   1.901 -0.3470  0.2362 -0.7905
13908TIP3   OH263138   6.753   3.915   6.655 -0.6042 -0.0715  0.6342
13908TIP3    H163139   6.792   3.898   6.741  0.2627  0.5429  0.3748
13908TIP3    H263140   6.678   3.857   6.652 -1.9946  1.4508  2.7161
13909TIP3   OH263141   0.350   0.666   5.643  0.5244  0.2272 -0.8063
13909TIP3    H163142   0.397   0.619   5.574  1.1541  0.5000 -0.5758
13909TIP3    H263143   0.287   0.721   5.597 -1.2270 -1.8481 -1.0452
13910TIP3   OH263144   2.688   1.286   0.333  0.1676 -1.0053 -0.4035
13910TIP3    H163145   2.637   1.255   0.259 -0.3844  2.0151 -1.4472
13910TIP3    H263146   2.632   1.270   0.409 -0.2007 -2.1598 -0.8949
13911TIP3   OH263147   5.830   2.314  11.985 -0.3836  0.4936  0.3030
13911TIP3    H163148   5.885   2.266  11.924  0.2541 -1.8638  2.5714
13911TIP3    H263149   5.752   2.337  11.935  0.8234  0.1775 -1.8199
13912TIP3   OH263150   1.981   2.291   4.039  0.2563 -0.3363  0.7609
13912TIP3    H163151   1.893   2.322   4.021 -0.0435 -1.7248 -0.2657
13912TIP3    H263152   1.991   2.302   4.134 -0.1926  1.8494  0.6215
13913TIP3   OH263153   0.510   4.237   4.009  0.0141 -0.5436  0.0341
13913TIP3    H163154   0.470   4.153   4.029  0.1385 -0.9174 -1.1986
13913TIP3    H263155   0.596   4.215   3.973 -0.5609  0.0002 -1.7857
13914TIP3   OH263156   6.139   5.584   2.042  0.5367  0.0209  0.5565
13914TIP3    H163157   6.218   5.611   1.995  0.4659 -1.0327 -0.2042
13914TIP3    H263158   6.161   5.597   2.135  2.3288 -1.9713  0.4983
13915TIP3   OH263159   1.392   0.278  11.078  0.7592 -0.2102 -0.7352
13915TIP3    H163160   1.302   0.245  11.077  1.0926 -1.1193 -1.1034
13915TIP3    H263161   1.391   0.350  11.014  0.4133 -0.5484 -1.1202
13916TIP3   OH263162   1.041   1.634   4.969  0.1372  0.2608  0.0891
13916TIP3    H163163   1.034   1.699   5.038 -2.5265  1.1123 -0.8825
13916TIP3    H263164   1.063   1.553   5.014  1.0299  1.2970  1.5988
13917TIP3   OH263165   5.882   6.343   0.359 -0.5352 -0.4613 -0.0913
13917TIP3    H163166   5.901   6.369   0.269  0.2295  1.0868  0.4673
13917TIP3    H263167   5.795   6.378   0.376 -0.2196  0.2496  0.1068
13918TIP3   OH263168   5.083   5.139  11.455  0.1849  0.2280  0.0716
13918TIP3    H163169   5.024   5.157  11.528 -0.0816 -0.7041  0.0975
13918TIP3    H263170   5.170   5.161  11.488  0.0398  0.0240  0.5840
13919TIP3   OH263171   0.783   2.363   7.012  0.1879 -0.3573  0.4913
13919TIP3    H163172   0.778   2.269   6.994  0.1072 -0.3756  0.6030
13919TIP3    H263173   0.738   2.404   6.938  2.8387 -0.2113 -1.1578
13920TIP3   OH263174   4.512   3.682  15.311 -1.1922  0.5158  0.2991
13920TIP3    H163175   4.526   3.588  15.301 -0.1888  0.4757  1.7357
13920TIP3    H263176   4.455   3.706  15.238  0.8865 -0.6510 -1.8668
13921TIP3   OH263177   3.460   3.856  14.670 -0.0659 -0.0012  0.3778
13921TIP3    H163178   3.549   3.877  14.698 -0.2352  1.4601 -0.0937
13921TIP3    H263179   3.470   3.791  14.601  0.5294 -1.0673  1.4347
13922TIP3   OH263180   0.572   5.568   2.257 -0.4658 -0.5886  1.0140
13922TIP3    H163181   0.589   5.657   2.287  0.5679  0.0627 -1.2366
13922TIP3    H263182   0.577   5.514   2.336  0.8887  1.0909  2.1500
13923TIP3   OH263183   1.087   1.863  11.862  0.2264 -0.1481 -0.5539
13923TIP3    H163184   1.141   1.892  11.936 -1.5034  0.3838  0.5669
13923TIP3    H263185   1.088   1.938  11.802 -0.1382  0.2767 -0.0347
13924TIP3   OH263186   0.525   5.689  12.452 -0.0872 -0.2614  0.5182
13924TIP3    H163187   0.466   5.704  12.525  0.1330 -3.7247  1.6056
13924TIP3    H263188   0.486   5.615  12.405  1.1905  0.1356 -1.2811
13925TIP3   OH263189   3.089   4.038   0.050 -0.1384  0.1743  0.7519
13925TIP3    H163190   3.146   4.024  -0.025 -1.6373 -2.6862 -0.0001
13925TIP3    H263191   3.146   4.026   0.126  0.4661 -2.0186  0.0263
13926TIP3   OH263192   0.083   5.303  11.834  0.1037 -0.3550  0.0282
13926TIP3    H163193   0.051   5.385  11.796 -0.7696 -1.4665 -1.8144
13926TIP3    H263194   0.173   5.297  11.802  0.2314 -0.0164  0.3245
13927TIP3   OH263195   3.715   0.981  12.672 -0.2026 -0.1693  0.5224
13927TIP3    H163196   3.698   0.989  12.766  0.7100  1.4961  0.5749
13927TIP3    H263197   3.799   1.025  12.659 -1.1903  1.3218 -1.3499
13928TIP3   OH263198   1.349   2.063   3.755 -0.1026 -0.0303 -0.0967
13928TIP3    H163199   1.390   2.041   3.671  1.0000 -1.3275  0.7239
13928TIP3    H263200   1.271   2.007   3.759  0.7140 -1.1792  0.4004
13929TIP3   OH263201   3.234   4.763   2.234 -0.0865 -0.3002 -0.2350
13929TIP3    H163202   3.215   4.730   2.322  2.2227 -0.4819  0.2630
13929TIP3    H263203   3.158   4.815   2.211  0.0480  1.4446  2.7159
13930TIP3   OH263204   6.361   2.093  11.511 -0.5635 -0.2496 -0.1128
13930TIP3    H163205   6.319   2.147  11.444 -0.4848 -2.3185 -1.9016
13930TIP3    H263206   6.452   2.124  11.513 -0.0118 -1.5062 -2.5302
13931TIP3   OH263207   0.175   6.164   0.830  0.0576  0.0847  0.0860
13931TIP3    H163208   0.254   6.210   0.804 -0.3008  1.2385  0.9575
13931TIP3    H263209   0.199   6.119   0.911  0.1326 -0.4868 -0.2496
13932TIP3   OH263210   3.852   4.928  16.472 -0.5884  0.0503 -0.4122
13932TIP3    H163211   3.793   4.852  16.472  0.9845 -1.2178  0.1126
13932TIP3    H263212   3.891   4.928  16.384  2.9285 -2.7117  0.9033
13933TIP3   OH263213   4.456   3.736   2.990 -0.1515  0.2712  0.4583
13933TIP3    H163214   4.473   3.642   2.988  0.7086  0.1594  4.3464
13933TIP3    H263215   4.369   3.745   2.951 -0.6706 -2.2838  0.8137
13934TIP3   OH263216   2.599   6.379   0.190 -0.1311 -0.8008 -0.4461
13934TIP3    H163217   2.504   6.367   0.196 -0.4123  1.4130  0.2488
13934TIP3    H263218   2.635   6.291   0.203 -2.0220 -1.3898  1.4717
13935TIP3   OH263219   0.581   0.785   1.584 -0.1075 -0.0002  0.4019
13935TIP3    H163220   0.567   0.740   1.668  0.7551 -0.3577  0.3642
13935TIP3    H263221   0.676   0.791   1.576 -0.1673 -0.5897 -0.8875
13936TIP3   OH263222   3.505   0.545   2.327  0.0174  0.1753  0.1851
13936TIP3    H163223   3.481   0.469   2.380 -0.7863 -0.3701 -0.9182
13936TIP3    H263224   3.465   0.620   2.372 -0.4800 -0.2552  0.4677
13937TIP3   OH263225   5.676   3.492   5.483  0.2053 -0.2548  0.2206
13937TIP3    H163226   5.700   3.489   5.391 -1.4742 -2.9850 -0.2219
13937TIP3    H263227   5.757   3.519   5.528  2.1912 -2.4678 -1.7277
13938TIP3   OH263228   5.870   6.749   1.609 -0.1240 -0.1372 -0.1665
13938TIP3    H163229   5.776   6.767   1.597 -0.6866 -2.0802  0.8888
13938TIP3    H263230   5.911   6.836   1.607 -1.9070  0.7530 -0.8651
13939TIP3   OH263231   6.140   3.315  11.670 -0.2769  0.7790 -0.5800
13939TIP3    H163232   6.233   3.325  11.650 -0.1364  0.2482 -0.1932
13939TIP3    H263233   6.136   3.244  11.733 -0.8867  1.2231 -0.1000
13940TIP3   OH263234   0.701   6.171  14.073 -0.3983 -0.3062  0.0130
13940TIP3    H163235   0.731   6.133  14.155  3.5849  0.9107 -0.6481
13940TIP3    H263236   0.704   6.099  14.010  0.5518 -0.4046  0.1531
13941TIP3   OH263237   4.979   4.259   2.118 -0.3742 -0.2911 -0.0609
13941TIP3    H163238   5.055   4.258   2.177  0.1898 -1.5026 -0.7809
13941TIP3    H263239   4.936   4.175   2.134  1.3727 -1.9781 -3.3269
13942TIP3   OH263240   3.259   2.385  13.571 -0.1715 -0.5829 -0.0331
13942TIP3    H163241   3.259   2.429  13.656 -0.2472  0.5576 -0.6030
13942TIP3    H263242   3.301   2.301  13.587 -0.7331 -0.6399  1.2573
13943TIP3   OH263243   1.864   4.936   0.434 -0.3591 -0.9256 -0.1318
13943TIP3    H163244   1.777   4.937   0.474  0.1185 -0.5449  0.9546
13943TIP3    H263245   1.899   5.023   0.452  0.5589 -1.3463  0.1708
13944TIP3   OH263246   4.050   1.925  14.904  0.2844 -0.2392 -0.2945
13944TIP3    H163247   4.001   1.878  14.972  1.6225  0.5626  1.2696
13944TIP3    H263248   4.002   2.007  14.893  0.3513 -0.1486  0.0679
13945TIP3   OH263249   4.901   4.290   6.792 -0.4419  0.7424 -0.1843
13945TIP3    H163250   4.962   4.218   6.807 -2.9228 -1.5063 -0.1406
13945TIP3    H263251   4.943   4.366   6.831  1.9640 -0.8165  0.4558
13946TIP3   OH263252   3.429   4.475   0.374 -0.3861 -0.4743  0.4591
13946TIP3    H163253   3.431   4.401   0.313 -0.0967 -0.8313  0.8965
13946TIP3    H263254   3.353   4.459   0.430 -0.1657 -0.5831  0.7291
13947TIP3   OH263255   4.898   5.611  13.337 -0.2097  0.0105  0.0640
13947TIP3    H163256   4.945   5.566  13.267 -0.2256  0.2210 -0.0840
13947TIP3    H263257   4.871   5.695  13.298  0.7387  0.6117  0.6575
13948TIP3   OH263258   4.556   2.293   3.812 -0.2424 -0.1600 -0.3189
13948TIP3    H163259   4.485   2.239   3.779 -0.4763 -1.0996  1.6232
13948TIP3    H263260   4.634   2.238   3.807 -0.1496 -0.0655  0.0333
13949TIP3   OH263261   2.305   3.169   2.814  0.6256  0.3507 -0.6095
13949TIP3    H163262   2.364   3.217   2.756 -0.7744  1.0809 -1.4598
13949TIP3    H263263   2.221   3.215   2.808 -0.0553 -0.6768  0.5532
13950TIP3   OH263264   6.751   2.637   0.676 -0.3665  0.5734 -0.3514
13950TIP3    H163265   6.777   2.575   0.744 -0.1977 -0.8456 -1.6692
13950TIP3    H263266   6.657   2.648   0.688 -0.3712  0.1928 -0.0107
13951TIP3   OH263267   2.927   1.114   1.307 -0.0340 -0.8002 -0.0485
13951TIP3    H163268   3.006   1.074   1.345  0.2413 -0.8336 -0.6413
13951TIP3    H263269   2.873   1.040   1.281  0.4745 -0.8080 -1.1437
13952TIP3   OH263270   1.941   5.905   0.683 -0.4039 -0.1916  0.4245
13952TIP3    H163271   1.907   5.958   0.755  0.1770  1.3647 -0.3897
13952TIP3    H263272   1.996   5.839   0.726 -1.7509 -0.6616  1.5142
13953TIP3   OH263273   4.056   4.935   4.171  0.4032  0.7234 -0.2135
13953TIP3    H163274   4.131   4.941   4.231  2.7382 -0.0973 -2.8226
13953TIP3    H263275   4.030   4.843   4.174  1.2266  0.4380 -1.1542
13954TIP3   OH263276   0.043   6.319   3.091 -0.5461  0.1886 -0.0215
13954TIP3    H163277   0.010   6.342   3.178  0.7152  1.0676  0.2443
13954TIP3    H263278   0.136   6.303   3.103 -1.0083 -3.7883 -0.4692
13955TIP3   OH263279   3.582   3.520  11.428  0.0810  0.3905 -0.5372
13955TIP3    H163280   3.537   3.438  11.448  1.3336 -1.2788 -3.7974
13955TIP3    H263281   3.511   3.582  11.410 -0.8824 -0.2986  0.7458
13956TIP3   OH263282   2.802   2.968   6.090  0.0097 -0.5155 -0.4195
13956TIP3    H163283   2.849   3.034   6.140  2.8324 -3.2682  0.9173
13956TIP3    H263284   2.724   2.949   6.142  0.3721  0.1411  0.3795
13957TIP3   OH263285   6.298   1.626  14.704  0.2680 -0.2105 -0.0622
13957TIP3    H163286   6.276   1.655  14.793 -0.8659 -0.2355 -0.3139
13957TIP3    H263287   6.373   1.680  14.679  0.9357 -0.5693  1.0981
13958TIP3   OH263288   0.106   3.728  11.793 -0.0765  0.6717 -0.2451
13958TIP3    H163289   0.118   3.660  11.728  0.2541 -1.0482  1.5325
13958TIP3    H263290   0.062   3.685  11.866  0.9485  2.1160  1.3214
13959TIP3   OH263291   5.143   2.767   4.598  0.2238  0.6663 -0.6151
13959TIP3    H163292   5.156   2.680   4.562 -3.5554 -0.7351  0.9283
13959TIP3    H263293   5.173   2.761   4.689  3.1854  2.1430 -1.3603
13960TIP3   OH263294   5.298   3.765  15.030 -0.2207 -0.2214 -0.2244
13960TIP3    H163295   5.248   3.685  15.045  0.5403 -0.8550 -0.9468
13960TIP3    H263296   5.233   3.829  15.000 -0.8041 -0.6130  0.1860
13961TIP3   OH263297   1.560   6.713   1.678 -0.6199 -0.6321  0.0015
13961TIP3    H163298   1.473   6.737   1.709 -1.9743 -2.0054 -2.4442
13961TIP3    H263299   1.580   6.631   1.723 -0.7682 -0.5264  0.2590
13962TIP3   OH263300   2.517   0.798   1.741 -0.4661  0.2326  0.0895
13962TIP3    H163301   2.496   0.739   1.668  1.3642 -0.3604 -0.0062
13962TIP3    H263302   2.557   0.874   1.700 -0.1155  0.2270  0.4149
13963TIP3   OH263303   1.920   2.429   2.623 -0.1564 -0.2855  0.1672
13963TIP3    H163304   1.975   2.412   2.545 -0.1253 -1.2024  0.3757
13963TIP3    H263305   1.877   2.345   2.640 -0.9773  0.2021  0.5185
13964TIP3   OH263306   5.036   0.594   1.878 -0.7130 -0.1493  0.0718
13964TIP3    H163307   4.972   0.528   1.852 -2.8888  1.3402  1.3336
13964TIP3    H263308   5.017   0.611   1.970  0.5566  1.3979  0.0965
13965TIP3   OH263309   4.530   3.582  16.571  0.3902 -0.1073  0.2508
13965TIP3    H163310   4.480   3.627  16.640 -0.8261  1.1578 -1.3711
13965TIP3    H263311   4.469   3.519  16.534 -0.7414  2.5009 -2.7840
13966TIP3   OH263312   1.217   3.894   2.981 -0.1133  0.4239  0.8136
13966TIP3    H163313   1.166   3.953   3.036  0.9788  0.9707  1.2713
13966TIP3    H263314   1.221   3.938   2.896 -0.4799  0.3343  0.7498
13967TIP3   OH263315   6.202   1.177  15.527  0.3164 -0.3650  0.2659
13967TIP3    H163316   6.167   1.265  15.517  1.9259  0.4538  1.4194
13967TIP3    H263317   6.138   1.132  15.582 -0.3328  0.1851 -0.0285
13968TIP3   OH263318   5.758   6.626   5.352 -0.5093 -0.3685  0.3050
13968TIP3    H163319   5.850   6.633   5.328 -0.4574 -0.4390  0.4794
13968TIP3    H263320   5.711   6.639   5.269 -0.3858  0.6834  0.3862
13969TIP3   OH263321   3.414   4.781  11.714  0.2464 -0.4059  0.2214
13969TIP3    H163322   3.378   4.851  11.768  0.6632 -1.8377  2.5569
13969TIP3    H263323   3.339   4.744  11.668  0.1425  1.9915 -1.6941
13970TIP3   OH263324   6.383   0.129   0.676 -0.3145  0.8579 -0.6428
13970TIP3    H163325   6.439   0.084   0.613  0.7050  1.0419  0.1099
13970TIP3    H263326   6.392   0.222   0.654  0.2719  0.9458 -0.0611
13971TIP3   OH263327   5.326   4.596   3.763  0.3175 -0.0296  0.0645
13971TIP3    H163328   5.396   4.635   3.815  0.4560  0.5486 -0.5390
13971TIP3    H263329   5.261   4.666   3.754  0.1001 -0.2594 -0.1732
13972TIP3   OH263330   3.487   1.575  12.166 -0.3370  0.8221  0.1796
13972TIP3    H163331   3.483   1.670  12.177  1.2563  0.8294  1.0210
13972TIP3    H263332   3.450   1.559  12.079  0.5449  2.3434 -0.5167
13973TIP3   OH263333   4.996   0.374  16.217  0.1217 -0.4525  0.5668
13973TIP3    H163334   4.986   0.463  16.253  0.7484 -0.3154  0.4087
13973TIP3    H263335   4.926   0.367  16.151 -0.0166 -0.1238  0.6765
13974TIP3   OH263336   2.888   3.756   2.035  0.4380  0.0329 -0.1776
13974TIP3    H163337   2.955   3.778   2.100  1.6901  2.5867 -2.1910
13974TIP3    H263338   2.816   3.817   2.053 -1.8561 -3.0265  2.3180
13975TIP3   OH263339   5.474   1.801   6.433 -0.4956  0.4923  0.3859
13975TIP3    H163340   5.529   1.826   6.507 -0.5043 -0.4899  0.7376
13975TIP3    H263341   5.427   1.881   6.410  1.7077  1.6373 -0.5129
13976TIP3   OH263342   2.504   3.529  15.580 -0.0556  0.2115 -0.0335
13976TIP3    H163343   2.592   3.507  15.609  0.2471  1.1211 -0.2304
13976TIP3    H263344   2.514   3.554  15.488 -0.6450 -0.4542 -0.2856
13977TIP3   OH263345   3.807   1.094   5.064  0.1409 -0.5032  0.0820
13977TIP3    H163346   3.779   1.027   5.125  0.2634 -0.5308  0.1096
13977TIP3    H263347   3.902   1.080   5.056 -0.0246 -1.1621 -0.9079
13978TIP3   OH263348   2.767   3.803   4.734  0.1048 -0.4190  0.0729
13978TIP3    H163349   2.701   3.851   4.683  1.4562  0.5766 -0.8366
13978TIP3    H263350   2.759   3.839   4.822  0.3498  0.7165 -0.3478
13979TIP3   OH263351   5.614   3.825   0.242  0.4145  0.2355 -0.1321
13979TIP3    H163352   5.522   3.842   0.221  0.5936  0.7582 -0.5166
13979TIP3    H263353   5.612   3.752   0.304 -0.2691  0.3824  0.0199
13980TIP3   OH263354   0.885   6.030   5.152  0.0670 -0.3301 -0.2897
13980TIP3    H163355   0.957   5.980   5.189  1.1129  0.0998 -1.6686
13980TIP3    H263356   0.819   5.964   5.128  0.8054 -0.9165 -0.7382
13981TIP3   OH263357   5.871   5.951   0.679  0.6334 -0.2528  0.3416
13981TIP3    H163358   5.844   5.966   0.589 -3.9575 -1.4768  1.2667
13981TIP3    H263359   5.872   5.855   0.689  1.0245 -0.1462  1.6209
13982TIP3   OH263360   5.713   2.449   5.283  0.3628  0.4570 -0.0171
13982TIP3    H163361   5.777   2.436   5.213 -0.4242  0.6770 -0.8068
13982TIP3    H263362   5.655   2.373   5.278 -0.7811  1.3408 -0.8284
13983TIP3   OH263363   2.827   3.607  11.374 -0.4084  0.1315  0.1033
13983TIP3    H163364   2.897   3.654  11.418  0.2824 -1.3024  0.6155
13983TIP3    H263365   2.776   3.567  11.445 -1.1505  0.3353 -0.3008
13984TIP3   OH263366   2.950   0.375   6.810  0.0294  0.4549 -0.3239
13984TIP3    H163367   2.932   0.295   6.761  1.2956  0.9163 -1.5754
13984TIP3    H263368   2.928   0.446   6.750 -1.7456  1.1289  0.9980
13985TIP3   OH263369   1.472   0.974  12.080 -0.1901  0.4930  0.3940
13985TIP3    H163370   1.433   1.061  12.087 -0.5696  0.3387  0.2298
13985TIP3    H263371   1.410   0.923  12.028 -0.9032 -0.3955  2.0160
13986TIP3   OH263372   2.561   4.004  16.279 -0.3099 -0.1438 -0.1239
13986TIP3    H163373   2.610   3.954  16.214 -0.9910 -0.2267 -0.5752
13986TIP3    H263374   2.480   4.029  16.235 -0.2468  0.8447  0.2865
13987TIP3   OH263375   1.789   0.228   3.980 -0.0250  0.1133  0.2342
13987TIP3    H163376   1.879   0.206   4.005  0.8734  1.9479 -1.0702
13987TIP3    H263377   1.783   0.202   3.888 -0.9440 -0.2931  0.4033
13988TIP3   OH263378   3.370   0.621   0.250  0.4746  0.2043 -0.0602
13988TIP3    H163379   3.279   0.594   0.244  0.2805  1.0104 -1.2113
13988TIP3    H263380   3.372   0.708   0.210  1.9202 -0.2490 -1.0726
13989TIP3   OH263381   2.637   4.541  10.686  0.0655 -0.1050 -0.0993
13989TIP3    H163382   2.697   4.468  10.702 -1.4189 -1.0688  1.2878
13989TIP3    H263383   2.588   4.514  10.608 -0.5482 -0.6736  0.4668
13990TIP3   OH263384   6.390   5.687   3.055  0.1276 -0.2622  0.9159
13990TIP3    H163385   6.428   5.632   3.123  0.5469 -3.0071 -1.3674
13990TIP3    H263386   6.299   5.656   3.047  0.0724  0.0429  0.2677
13991TIP3   OH263387   3.383   5.214  16.978  0.1856 -0.0628 -0.0848
13991TIP3    H163388   3.423   5.280  17.035 -0.6002  0.0149  0.3830
13991TIP3    H263389   3.293   5.206  17.009  0.3916 -1.7248  0.2158
13992TIP3   OH263390   0.343   6.414   0.332 -0.5979 -0.7006 -0.0021
13992TIP3    H163391   0.303   6.341   0.285  1.9646 -2.0135 -0.3110
13992TIP3    H263392   0.417   6.441   0.277  0.7045 -0.3186  1.8428
13993TIP3   OH263393   0.596   6.689   4.547 -0.5940 -0.0842  0.1929
13993TIP3    H163394   0.574   6.745   4.474  0.3044 -1.2046 -0.9883
13993TIP3    H263395   0.679   6.648   4.522 -1.2047 -1.9214  0.9808
13994TIP3   OH263396   5.912   4.302  14.446  0.3188 -0.6470 -0.1612
13994TIP3    H163397   5.875   4.380  14.489 -0.7021 -1.1834 -0.0352
13994TIP3    H263398   5.836   4.251  14.420  0.9790 -1.6917 -0.0910
13995TIP3   OH263399   6.698   1.906   6.557 -0.2228  0.1926  0.2866
13995TIP3    H163400   6.690   1.852   6.478  1.9795  2.2432 -1.4876
13995TIP3    H263401   6.791   1.901   6.580 -0.6748  0.2999  2.3177
13996TIP3   OH263402   5.659   5.377  13.964  0.1275  0.0421  0.0320
13996TIP3    H163403   5.690   5.418  13.883  2.2751 -0.2260  0.6609
13996TIP3    H263404   5.675   5.442  14.032 -1.2536  0.0934  0.3398
13997TIP3   OH263405   6.199   0.350   4.580 -0.2275 -0.3513  0.1607
13997TIP3    H163406   6.286   0.387   4.594  0.9074 -2.0107 -1.9887
13997TIP3    H263407   6.139   0.424   4.593  1.5127  0.9521  1.1365
13998TIP3   OH263408   5.143   5.517   1.824  0.3561 -0.3048  0.4267
13998TIP3    H163409   5.083   5.582   1.860  2.2234  1.8066  0.0219
13998TIP3    H263410   5.187   5.479   1.900  0.2073 -0.0870  0.6211
13999TIP3   OH263411   1.572   1.863  13.550  0.1799  0.2327  0.1202
13999TIP3    H163412   1.619   1.780  13.547  0.5780  0.4228  0.7404
13999TIP3    H263413   1.641   1.929  13.546 -0.1349  0.5357 -0.4143
14000TIP3   OH263414   4.961   5.660   4.945 -0.1933  0.4948 -0.2860
14000TIP3    H163415   5.042   5.700   4.915 -0.2269  0.3984 -0.5076
14000TIP3    H263416   4.984   5.568   4.958 -0.6488  0.1312 -1.8506
14001TIP3   OH263417   0.038   2.860  15.899 -0.1597  1.0404 -0.5482
14001TIP3    H163418   0.084   2.808  15.834 -1.4396 -0.2170 -0.4969
14001TIP3    H263419  -0.055   2.842  15.883 -0.5145 -0.3577  2.3670
14002TIP3   OH263420   4.882   0.941   0.900  0.6431  0.2162  0.2443
14002TIP3    H163421   4.940   0.984   0.837  2.1602  0.1469  1.5113
14002TIP3    H263422   4.929   0.862   0.926 -0.7610 -0.6802  0.1600
14003TIP3   OH263423   3.978   0.566  13.821 -0.1436  0.3198 -0.4554
14003TIP3    H163424   4.042   0.637  13.812  0.1765  0.1928  0.6815
14003TIP3    H263425   4.031   0.486  13.817 -0.0940  0.2264  1.2309
14004TIP3   OH263426   2.984   4.941  14.499  0.2285 -0.8698 -0.2852
14004TIP3    H163427   2.966   4.879  14.570 -1.1921  1.0887  1.1750
14004TIP3    H263428   3.077   4.964  14.510 -0.6992  2.2299  3.5540
14005TIP3   OH263429   1.635   2.115  16.977 -0.4547 -0.2636  0.3408
14005TIP3    H163430   1.569   2.180  17.000 -0.7529 -0.3643 -0.2199
14005TIP3    H263431   1.658   2.134  16.886  0.2731 -0.2449  0.5201
14006TIP3   OH263432   1.191   0.993   2.723 -0.1606  0.0145 -0.1331
14006TIP3    H163433   1.225   1.075   2.687  1.2533 -0.2602  0.5124
14006TIP3    H263434   1.247   0.925   2.685 -0.0211 -0.4570  0.8861
14007TIP3   OH263435   6.080   6.103   0.839 -0.4246 -0.1034 -0.6088
14007TIP3    H163436   6.112   6.023   0.880 -0.0157 -0.2252 -1.1578
14007TIP3    H263437   6.007   6.074   0.783 -0.1183 -0.1316 -0.9970
14008TIP3   OH263438   3.162   3.848  13.119  0.3057  0.1714 -0.1690
14008TIP3    H163439   3.227   3.859  13.049  0.4056 -0.8388 -0.2460
14008TIP3    H263440   3.163   3.755  13.138  0.2332  0.4325  1.1575
14009TIP3   OH263441   4.884   6.472  15.846  0.4167 -0.3247 -0.1015
14009TIP3    H163442   4.877   6.505  15.757 -1.9572 -1.6833 -0.4707
14009TIP3    H263443   4.800   6.492  15.886  0.7950 -1.3471  1.2758
14010TIP3   OH263444   3.785   2.054   6.004 -0.2806 -0.1840  0.1699
14010TIP3    H163445   3.798   2.055   6.099  0.2353  1.3128  0.1062
14010TIP3    H263446   3.691   2.064   5.993 -0.3865 -0.7360  0.5129
14011TIP3   OH263447   2.842   5.352  13.657 -0.2603 -0.3540  0.3280
14011TIP3    H163448   2.773   5.378  13.718 -0.1216 -0.1149  0.3844
14011TIP3    H263449   2.795   5.330  13.576 -0.3357  0.6761  0.0800
14012TIP3   OH263450   4.913   5.174   2.164  0.0220  0.1693  0.6910
14012TIP3    H163451   4.929   5.184   2.258 -1.5039  1.3579  0.8713
14012TIP3    H263452   4.880   5.084   2.155 -2.1595  0.7882  1.7202
14013TIP3   OH263453   3.409   0.868   0.105 -0.0764 -0.1975  0.1914
14013TIP3    H163454   3.434   0.956   0.133  1.0746 -0.3535 -0.2866
14013TIP3    H263455   3.322   0.878   0.067 -0.6413  0.4479  1.5688
14014TIP3   OH263456   3.705   6.722   6.649  0.3079  0.3990 -0.1625
14014TIP3    H163457   3.770   6.669   6.694  0.7990  0.7973 -0.4017
14014TIP3    H263458   3.732   6.812   6.663 -0.2191  0.5706 -0.2220
14015TIP3   OH263459   3.252   4.043  13.813 -0.7824 -0.6657  0.1273
14015TIP3    H163460   3.329   4.094  13.838 -0.6004 -1.2711  0.8264
14015TIP3    H263461   3.178   4.099  13.837 -0.5701 -0.1710 -0.3525
14016TIP3   OH263462   4.999   2.170   5.210  0.6679 -0.4258 -0.0447
14016TIP3    H163463   5.011   2.174   5.115  0.0865 -0.2921 -0.1152
14016TIP3    H263464   5.047   2.246   5.243  2.6616 -1.6128 -0.0267
14017TIP3   OH263465   2.670   4.306   0.313 -0.5151 -0.3341 -0.3611
14017TIP3    H163466   2.760   4.304   0.281 -0.8030 -0.6968 -1.1783
14017TIP3    H263467   2.656   4.219   0.351 -0.8961 -0.6930 -1.3130
14018TIP3   OH263468   4.474   4.782  17.325  0.6248  0.2536 -0.3854
14018TIP3    H163469   4.520   4.776  17.409 -0.1190  0.2192  0.0266
14018TIP3    H263470   4.463   4.691  17.298 -0.8528  0.1578  0.4441
14019TIP3   OH263471   0.445   4.847   3.196 -0.5218 -0.0983 -0.1499
14019TIP3    H163472   0.413   4.916   3.139 -1.0506 -0.8615 -0.7943
14019TIP3    H263473   0.461   4.772   3.138 -1.3764 -0.9887  0.7282
14020TIP3   OH263474   5.833   4.728  16.726  0.6625 -0.2058 -0.0091
14020TIP3    H163475   5.867   4.807  16.686 -0.2281 -0.7002 -1.8460
14020TIP3    H263476   5.910   4.677  16.749  1.2139  0.3569 -0.5867
14021TIP3   OH263477   2.525   6.253  14.115  0.1342 -0.0019  0.4184
14021TIP3    H163478   2.437   6.248  14.153 -0.4327 -2.3519 -1.0166
14021TIP3    H263479   2.509   6.277  14.023  1.1186  0.9777  0.4936
14022TIP3   OH263480   6.569   2.973  13.563  0.0287  0.5054  0.5235
14022TIP3    H163481   6.546   2.906  13.628  0.0628 -1.2934 -1.2409
14022TIP3    H263482   6.500   3.039  13.572 -1.6375 -1.1402  0.4638
14023TIP3   OH263483   5.083   2.559  15.022 -0.3366  0.0503  0.1113
14023TIP3    H163484   5.004   2.521  14.985 -0.4893  1.6429 -1.3182
14023TIP3    H263485   5.154   2.528  14.965 -0.3467  1.1503 -0.5087
14024TIP3   OH263486   2.099   3.489  15.439 -0.2832 -0.3762 -0.0762
14024TIP3    H163487   2.072   3.573  15.401 -1.8237 -0.8715 -0.1412
14024TIP3    H263488   2.139   3.441  15.366  0.8798  0.3817  0.0287
14025TIP3   OH263489   3.990   6.686  12.615 -0.2802 -0.9365 -0.3291
14025TIP3    H163490   4.014   6.773  12.648 -1.4711 -1.1140  1.1122
14025TIP3    H263491   4.068   6.656  12.569  0.1820  0.8634 -0.8308
14026TIP3   OH263492   2.289   4.315   1.189 -0.1540  0.1226 -0.1145
14026TIP3    H163493   2.273   4.260   1.112  0.1465  2.2591 -1.7916
14026TIP3    H263494   2.227   4.283   1.254 -0.8611 -1.3533 -1.4285
14027TIP3   OH263495   2.922   5.337   1.559  0.4833  0.1189  0.4982
14027TIP3    H163496   2.999   5.394   1.553 -0.2620  1.0579 -0.9220
14027TIP3    H263497   2.939   5.267   1.496  1.0189 -0.7912  1.6232
14028TIP3   OH263498   4.174   5.362   5.189 -0.0172 -0.0717 -0.6094
14028TIP3    H163499   4.167   5.267   5.182  2.8699 -0.3991 -0.3536
14028TIP3    H263500   4.118   5.385   5.263  0.6151 -1.8178  0.4636
14029TIP3   OH263501   5.470   3.358  16.588  0.3628  0.2102  0.0204
14029TIP3    H163502   5.482   3.409  16.508 -2.6744 -0.0040 -0.7211
14029TIP3    H263503   5.494   3.269  16.564  1.4467  0.5045 -0.0103
14030TIP3   OH263504   3.658   0.293  13.495 -0.0819 -0.5191  0.0894
14030TIP3    H163505   3.744   0.315  13.531  0.3472 -0.8965 -0.6810
14030TIP3    H263506   3.675   0.221  13.435 -0.8722 -0.3067 -0.4007
14031TIP3   OH263507   4.391   4.079   2.348  0.0245 -0.0378 -0.6864
14031TIP3    H163508   4.384   4.175   2.353  1.0617  0.0328 -0.3209
14031TIP3    H263509   4.415   4.062   2.257 -2.8202 -0.1746 -1.5091
14032TIP3   OH263510   0.297   2.978   0.053 -0.7079  0.4214 -0.0192
14032TIP3    H163511   0.257   2.938   0.130 -0.8687 -3.6178 -1.9185
14032TIP3    H263512   0.390   2.955   0.059 -0.4706  1.2326 -0.3924
14033TIP3   OH263513   5.914   1.204   5.149 -0.8487 -0.5535 -0.0665
14033TIP3    H163514   5.874   1.201   5.236 -1.6771 -0.8600 -0.4475
14033TIP3    H263515   5.941   1.295   5.138  0.0468 -0.6933  0.8522
14034TIP3   OH263516   1.417   1.835  12.642  0.0434 -0.0268 -0.0871
14034TIP3    H163517   1.434   1.742  12.658 -0.2359  0.0517  0.6848
14034TIP3    H263518   1.463   1.881  12.712 -0.9392  0.3331  0.3447
14035TIP3   OH263519   3.234   3.455  13.760 -0.0639 -0.6456  0.4224
14035TIP3    H163520   3.197   3.528  13.711 -0.2919  0.3832  2.0407
14035TIP3    H263521   3.188   3.378  13.727 -0.4865  0.0555 -0.6725
14036TIP3   OH263522   2.273   1.474   2.105 -0.1641 -0.0178 -0.0001
14036TIP3    H163523   2.345   1.426   2.064 -0.1507  1.1971 -1.4641
14036TIP3    H263524   2.278   1.562   2.068 -2.3619  0.1308 -0.0777
14037TIP3   OH263525   2.339   6.389   1.703  0.3303  0.5642  0.2062
14037TIP3    H163526   2.386   6.431   1.630  1.8959 -0.7841  0.3704
14037TIP3    H263527   2.408   6.349   1.755 -1.0389 -3.6496 -0.8413
14038TIP3   OH263528   5.571   3.003   3.011  0.5219 -0.1988 -0.9097
14038TIP3    H163529   5.614   3.009   2.926 -0.6632  1.0865 -1.4347
14038TIP3    H263530   5.644   2.993   3.073  1.4027 -1.1648 -2.0428
14039TIP3   OH263531   2.365   1.561  12.787 -0.0069 -0.3192 -0.1024
14039TIP3    H163532   2.404   1.637  12.829 -1.0609 -0.1960  0.6975
14039TIP3    H263533   2.271   1.577  12.791 -0.3921 -2.4404  1.6915
14040TIP3   OH263534   4.362   6.241   1.240  0.2200  0.0125  0.7389
14040TIP3    H163535   4.340   6.180   1.311 -0.0391 -1.0876 -0.2616
14040TIP3    H263536   4.277   6.274   1.211  0.1046 -1.3872 -0.6368
14041TIP3   OH263537   3.841   1.888  14.280 -0.6434  0.1135 -0.3231
14041TIP3    H163538   3.757   1.843  14.272 -0.3038 -0.6805  0.3702
14041TIP3    H263539   3.846   1.913  14.373  1.0013 -2.1962  0.3145
14042TIP3   OH263540   1.954   5.187   4.593  0.4180 -0.3542 -0.0275
14042TIP3    H163541   1.889   5.228   4.650  0.6495  1.3389 -0.9135
14042TIP3    H263542   2.027   5.249   4.591  0.8978 -0.9190 -1.2385
14043TIP3   OH263543   4.525   6.520  13.651  0.4796 -0.3143 -0.2292
14043TIP3    H163544   4.432   6.537  13.663  0.2054  0.1941 -2.5456
14043TIP3    H263545   4.567   6.551  13.731 -1.1008  1.6072 -0.0996
14044TIP3   OH263546   1.487   0.215   2.258 -0.0835 -0.6134  0.1881
14044TIP3    H163547   1.519   0.194   2.170  0.2171 -0.3113  0.2224
14044TIP3    H263548   1.410   0.269   2.243  1.1844  1.2420  0.0995
14045TIP3   OH263549   4.313   6.230  11.576 -0.0393  0.5973  0.5741
14045TIP3    H163550   4.391   6.283  11.592  0.7272  0.0549 -1.1402
14045TIP3    H263551   4.330   6.187  11.492 -2.7496  1.5213 -0.5638
14046TIP3   OH263552   0.094   2.956   4.781 -0.4051 -0.6212 -0.4552
14046TIP3    H163553   0.167   2.983   4.837 -0.9577  0.3491 -0.1823
14046TIP3    H263554   0.117   2.990   4.695 -1.3851  1.3439  0.0114
14047TIP3   OH263555   2.488   5.778  16.205 -0.0488  0.3456  0.4131
14047TIP3    H163556   2.440   5.827  16.137 -0.4403  1.9684  1.7830
14047TIP3    H263557   2.580   5.802  16.191  0.0440 -0.3900 -0.3421
14048TIP3   OH263558   1.740   0.635  16.554 -0.3166 -0.8594 -0.6793
14048TIP3    H163559   1.783   0.595  16.478  1.9650  1.9034 -1.0029
14048TIP3    H263560   1.801   0.621  16.626 -1.6124 -1.8385  0.2739
14049TIP3   OH263561   3.585   4.169  14.911 -0.2452 -0.6415 -0.4592
14049TIP3    H163562   3.634   4.088  14.930  0.2068 -0.6029 -1.4041
14049TIP3    H263563   3.524   4.177  14.983  0.8482 -0.9403  0.5379
14050TIP3   OH263564   5.907   2.660  11.126  0.7291 -0.1319 -0.3368
14050TIP3    H163565   5.851   2.623  11.058 -0.1027  2.2932 -1.0690
14050TIP3    H263566   5.893   2.603  11.202 -0.9695 -0.9123 -1.1803
14051TIP3   OH263567   4.632   1.228   5.403 -0.4913 -0.3473  0.5143
14051TIP3    H163568   4.687   1.249   5.478  0.2112 -1.2171  0.2551
14051TIP3    H263569   4.694   1.208   5.333 -1.1359  0.4088 -0.2906
14052TIP3   OH263570   0.006   6.654   5.066  0.6127 -0.0443  0.5048
14052TIP3    H163571  -0.038   6.580   5.024  0.7318  0.1532  0.0348
14052TIP3    H263572   0.098   6.630   5.068  1.1009  1.2530 -2.1863
14053TIP3   OH263573   4.260   4.108   3.146  0.2095  0.6818 -0.3808
14053TIP3    H163574   4.249   4.044   3.076 -0.1699  0.0141  0.2659
14053TIP3    H263575   4.244   4.193   3.105  2.9233  0.6208 -1.7711
14054TIP3   OH263576   0.081   5.254  15.712 -0.0523 -0.2007  0.5108
14054TIP3    H163577   0.035   5.260  15.795 -0.5021  0.2005  0.2407
14054TIP3    H263578   0.095   5.345  15.686  1.0200 -0.3108  0.6533
14055TIP3   OH263579   6.615   0.341  15.661  0.7118 -0.1367 -0.4649
14055TIP3    H163580   6.540   0.371  15.609  0.5383 -0.4630 -0.4068
14055TIP3    H263581   6.657   0.275  15.606  0.3525 -0.6977 -0.0644
14056TIP3   OH263582   2.605   2.107   4.429 -0.1788 -0.1902  0.1670
14056TIP3    H163583   2.615   2.157   4.348 -0.0560 -1.1193 -0.4082
14056TIP3    H263584   2.638   2.020   4.407  0.0189 -0.4066  1.2718
14057TIP3   OH263585   0.659   0.520   0.521 -0.0218  0.1110 -0.0750
14057TIP3    H163586   0.724   0.480   0.463 -0.5078  0.1993 -0.6894
14057TIP3    H263587   0.709   0.583   0.573  0.5571 -0.5207  0.1546
14058TIP3   OH263588   1.885   2.181   0.754  0.1941  0.0375  0.3216
14058TIP3    H163589   1.913   2.271   0.770 -1.5913  0.8467 -0.7148
14058TIP3    H263590   1.851   2.151   0.838  0.8811  0.2841  0.6972
14059TIP3   OH263591   3.790   3.456  11.864  0.4984  0.0547  0.2530
14059TIP3    H163592   3.856   3.388  11.854  0.7266  0.5589 -2.5710
14059TIP3    H263593   3.777   3.490  11.775 -0.9740  2.4079  1.2634
14060TIP3   OH263594   0.805   3.365   6.276 -0.5226 -0.3387 -0.0766
14060TIP3    H163595   0.820   3.429   6.345 -1.2909  0.4498 -0.6109
14060TIP3    H263596   0.722   3.324   6.298 -0.7143 -0.1655 -0.4584
14061TIP3   OH263597   3.671   1.883   0.729 -0.7217 -0.3066 -0.6988
14061TIP3    H163598   3.626   1.903   0.646  0.6316  0.3794 -1.3099
14061TIP3    H263599   3.735   1.954   0.738 -2.0220  0.6406  1.8618
14062TIP3   OH263600   6.517   1.756   2.713  0.5232  0.0045  0.1300
14062TIP3    H163601   6.555   1.686   2.765  1.4345  0.9805  0.8115
14062TIP3    H263602   6.430   1.724   2.689  1.6282 -2.1718 -1.2498
14063TIP3   OH263603   1.475   5.868   1.605 -0.1233 -0.2359 -0.3478
14063TIP3    H163604   1.382   5.842   1.610 -0.2749  0.3619  0.0071
14063TIP3    H263605   1.503   5.838   1.519 -1.1192  1.0565 -1.1681
14064TIP3   OH263606   0.785   1.570  13.901 -0.4431 -0.2413  0.3959
14064TIP3    H163607   0.822   1.489  13.935 -1.0416  0.5131  3.0231
14064TIP3    H263608   0.859   1.614  13.859  0.4387 -1.0828  1.0148
14065TIP3   OH263609   4.670   6.220  11.186 -0.1538 -0.1127  0.0164
14065TIP3    H163610   4.635   6.133  11.204 -1.6558  0.3756 -0.3254
14065TIP3    H263611   4.682   6.223  11.091  1.2178 -0.3889  0.1600
14066TIP3   OH263612   3.967   6.761   5.425 -0.4381  0.1935 -0.5510
14066TIP3    H163613   3.972   6.711   5.506  0.0308 -0.5328 -1.0147
14066TIP3    H263614   3.976   6.695   5.355 -1.8551  0.6687 -1.2190
14067TIP3   OH263615   5.598   2.035   1.413 -0.2812  0.4737 -0.1622
14067TIP3    H163616   5.532   2.062   1.476 -1.4699  0.1586 -1.2230
14067TIP3    H263617   5.560   1.959   1.369  1.1789 -0.2851 -0.1856
14068TIP3   OH263618   2.722   2.347   6.310  0.4600 -0.1033  0.4789
14068TIP3    H163619   2.708   2.253   6.293 -1.0285  0.0885  0.5251
14068TIP3    H263620   2.758   2.350   6.399 -1.8208 -0.5354  1.4933
14069TIP3   OH263621   6.395   2.777  15.604  0.1828  0.2186  0.1787
14069TIP3    H163622   6.350   2.713  15.550 -1.2298 -0.0078  1.5745
14069TIP3    H263623   6.326   2.824  15.650  1.3055 -0.4299  2.7244
14070TIP3   OH263624   3.674   3.284   5.283 -0.1081  0.6212 -0.3947
14070TIP3    H163625   3.583   3.264   5.261 -0.4747  0.8473  0.8641
14070TIP3    H263626   3.726   3.235   5.219 -1.0977 -0.0199 -0.7160
14071TIP3   OH263627   0.259   2.058  12.830 -0.2774  0.1798  0.3380
14071TIP3    H163628   0.222   2.035  12.915 -0.6275 -0.9859 -0.1071
14071TIP3    H263629   0.341   2.103  12.851 -0.3174 -0.1674  1.2932
14072TIP3   OH263630   4.415   4.560  15.155 -0.2843 -0.4314 -0.1186
14072TIP3    H163631   4.426   4.597  15.067  1.0183 -0.9538 -0.1938
14072TIP3    H263632   4.453   4.625  15.213  0.2981 -0.8008 -0.0841
14073TIP3   OH263633   2.266   2.675   5.901  0.5952  0.4831  0.0643
14073TIP3    H163634   2.325   2.730   5.953  0.0075  2.9517 -1.7416
14073TIP3    H263635   2.183   2.722   5.901 -0.3469 -1.1254 -0.4394
14074TIP3   OH263636   4.901   5.246   6.291 -0.3726 -0.2075 -0.2280
14074TIP3    H163637   4.833   5.194   6.334 -0.8454 -0.4080 -1.1892
14074TIP3    H263638   4.965   5.181   6.261 -0.1356 -0.0855  0.0094
14075TIP3   OH263639   6.201   2.210  11.313  0.4377 -0.0688  0.0072
14075TIP3    H163640   6.228   2.247  11.230 -0.5064  0.3431 -0.1356
14075TIP3    H263641   6.120   2.164  11.293  0.6316 -0.6548  0.5445
14076TIP3   OH263642   6.393   4.514   3.401  0.3123  0.5304  0.0658
14076TIP3    H163643   6.472   4.556   3.434 -0.1066 -0.2339  2.1982
14076TIP3    H263644   6.323   4.546   3.458 -0.4630 -0.8548 -0.0680
14077TIP3   OH263645   4.058   2.284   1.250  0.3648  0.3697  0.2773
14077TIP3    H163646   3.973   2.245   1.228  1.2641 -1.8339  0.4898
14077TIP3    H263647   4.036   2.358   1.308 -1.4308  0.4102 -0.3799
14078TIP3   OH263648   0.950   1.416  16.070  0.1713  0.1386  0.0013
14078TIP3    H163649   0.856   1.420  16.086 -0.6731  0.0093 -3.9284
14078TIP3    H263650   0.958   1.407  15.975  4.1817 -0.0170  0.1779
14079TIP3   OH263651   2.239   1.765  13.361 -0.3526 -0.2436  0.0980
14079TIP3    H163652   2.243   1.693  13.298 -3.0162  1.0246 -1.6957
14079TIP3    H263653   2.318   1.817  13.344 -0.1877 -0.8341 -1.0254
14080TIP3   OH263654   4.607   1.530   5.789  0.3944  0.3221 -0.5527
14080TIP3    H163655   4.529   1.563   5.745  0.8741  1.3870 -0.6511
14080TIP3    H263656   4.585   1.531   5.882 -0.2862 -1.0144 -0.6778
14081TIP3   OH263657   5.051   6.706   2.834  0.0061 -0.2044  0.2641
14081TIP3    H163658   5.035   6.799   2.825 -0.8178 -0.3616  0.0536
14081TIP3    H263659   5.146   6.697   2.825  0.0609  0.5781  0.0154
14082TIP3   OH263660   5.459   5.079  17.240  0.2125 -0.3422  0.4587
14082TIP3    H163661   5.522   5.017  17.204  0.3070  0.7683 -1.4362
14082TIP3    H263662   5.404   5.027  17.298  1.2210 -1.8766  0.0918
14083TIP3   OH263663   4.600   5.087   0.675  0.1375  0.3432  0.7267
14083TIP3    H163664   4.616   5.177   0.647 -0.4847  0.4163  0.6041
14083TIP3    H263665   4.582   5.040   0.593 -0.6401  0.3380  0.8980
14084TIP3   OH263666   6.538   5.909  14.551 -0.0931  0.2414 -0.2548
14084TIP3    H163667   6.551   5.826  14.506  3.8020 -0.5832  1.9339
14084TIP3    H263668   6.491   5.885  14.631  0.3395  0.2511  0.0051
14085TIP3   OH263669   1.513   5.294   2.468 -0.0773  0.2198 -0.5941
14085TIP3    H163670   1.493   5.370   2.522 -1.1947  0.4601 -1.3152
14085TIP3    H263671   1.563   5.237   2.526  0.3624  1.2844  0.1087
14086TIP3   OH263672   2.501   0.724   0.630  0.2047 -0.7947 -0.3279
14086TIP3    H163673   2.594   0.702   0.635  0.0708 -1.1230  1.5148
14086TIP3    H263674   2.485   0.743   0.538  1.8908 -1.6247 -0.8204
14087TIP3   OH263675   0.924   5.228  11.190  0.4924 -0.2312 -0.5145
14087TIP3    H163676   0.848   5.277  11.161  0.5225  0.1471  0.0365
14087TIP3    H263677   0.981   5.223  11.113  0.0234 -0.2997 -0.8546
14088TIP3   OH263678   3.281   3.682  11.652  0.4791 -0.1528  0.2049
14088TIP3    H163679   3.275   3.588  11.668 -0.6131 -0.2684 -0.7102
14088TIP3    H263680   3.316   3.689  11.564  1.9845  0.3538  0.8215
14089TIP3   OH263681   5.545   2.598  13.447 -0.1620 -0.2760 -0.5008
14089TIP3    H163682   5.560   2.581  13.540 -0.1636 -1.9240 -0.7854
14089TIP3    H263683   5.487   2.675  13.446  2.1003  1.5839  0.7592
14090TIP3   OH263684   5.067   4.880  13.211 -0.4082  0.0404 -0.0212
14090TIP3    H163685   5.043   4.824  13.137  0.3815  0.1720 -0.3821
14090TIP3    H263686   5.154   4.913  13.189  0.5180 -1.1195  1.6392
14091TIP3   OH263687   3.774   1.693   2.051  0.6696  0.1679 -0.1579
14091TIP3    H163688   3.812   1.686   2.139  0.8108  0.1313 -0.2204
14091TIP3    H263689   3.783   1.785   2.028  2.4293 -0.1503 -0.9143
14092TIP3   OH263690   3.201   5.045  15.456 -0.4206  0.0122  0.3513
14092TIP3    H163691   3.124   5.098  15.436 -0.7660 -0.6567 -0.1215
14092TIP3    H263692   3.245   5.034  15.371 -1.6755 -2.5126 -0.0563
14093TIP3   OH263693   1.550   4.841   6.141  0.5067 -0.2036  0.4931
14093TIP3    H163694   1.510   4.755   6.148 -0.9589  0.5012  1.3922
14093TIP3    H263695   1.533   4.882   6.226 -1.3611  1.9725 -0.8202
14094TIP3   OH263696   3.554   2.764  13.577 -0.1980 -0.3255 -0.1987
14094TIP3    H163697   3.540   2.705  13.652 -0.6109 -0.2092 -0.1874
14094TIP3    H263698   3.646   2.749  13.553 -0.3824 -1.2073 -0.3954
14095TIP3   OH263699   5.082   3.382  11.732  0.0442 -0.3977  0.7121
14095TIP3    H163700   5.093   3.287  11.740 -0.3083 -0.3442  2.1253
14095TIP3    H263701   4.988   3.394  11.718  0.0549 -0.2451  0.7741
14096TIP3   OH263702   3.438   6.767   5.250 -1.1029  0.2496 -0.6596
14096TIP3    H163703   3.413   6.705   5.318  2.1901  0.1683  0.6837
14096TIP3    H263704   3.461   6.847   5.298 -0.0570  0.6764 -1.8120
14097TIP3   OH263705   1.603   6.435   1.717 -0.4129 -0.4551 -0.3566
14097TIP3    H163706   1.660   6.408   1.790 -0.6622 -0.7188 -0.2537
14097TIP3    H263707   1.652   6.411   1.638 -0.0703 -0.0199 -0.2788
14098TIP3   OH263708   3.768   4.239   0.061 -0.2825  0.2531 -0.3170
14098TIP3    H163709   3.727   4.200   0.138  0.6370 -0.3363 -0.1171
14098TIP3    H263710   3.860   4.217   0.068 -0.3391 -0.8109 -2.1713
14099TIP3   OH263711   6.034   2.694  12.215  0.0232 -0.4601 -0.1186
14099TIP3    H163712   6.092   2.755  12.169  0.2019 -0.8151 -0.3676
14099TIP3    H263713   6.026   2.619  12.156 -3.3111  0.8720 -1.6179
14100TIP3   OH263714   3.564   4.972   4.940 -0.1815 -0.5734 -0.3663
14100TIP3    H163715   3.542   4.893   4.890  1.2312  0.0526 -2.0939
14100TIP3    H263716   3.658   4.984   4.926 -0.5262  1.9635 -1.0633
14101TIP3   OH263717   5.089   4.863  16.089 -0.1560 -0.1417  0.5230
14101TIP3    H163718   5.148   4.877  16.162  1.0010  0.7656 -0.5435
14101TIP3    H263719   5.046   4.779  16.108 -0.1325  0.2299  2.3665
14102TIP3   OH263720   1.997   5.536  11.655 -0.0779 -0.0057 -0.4771
14102TIP3    H163721   2.026   5.616  11.612  1.1182 -0.2043 -0.0780
14102TIP3    H263722   1.929   5.500  11.598  1.1439 -0.0268 -1.9607
14103TIP3   OH263723   1.827   6.682   6.002  0.5546  0.0415  0.1737
14103TIP3    H163724   1.790   6.765   6.032 -0.5602 -1.0990  2.1601
14103TIP3    H263725   1.921   6.691   6.018  0.7746  1.6433 -1.6032
14104TIP3   OH263726   6.543   2.654   2.655 -0.0446 -0.2240 -0.4866
14104TIP3    H163727   6.630   2.684   2.630  0.5914 -0.7577  0.9921
14104TIP3    H263728   6.544   2.560   2.636 -0.1548 -0.3048 -0.1100
14105TIP3   OH263729   6.139   2.724   5.559  0.0337  0.4756  0.2714
14105TIP3    H163730   6.210   2.695   5.617  1.7902  1.5680 -1.1984
14105TIP3    H263731   6.100   2.643   5.526  1.6378 -0.1960 -0.0625
14106TIP3   OH263732   1.487   2.466  15.090  0.7572  0.1736 -0.5713
14106TIP3    H163733   1.426   2.429  15.026  0.9393  0.5088 -0.9448
14106TIP3    H263734   1.572   2.461  15.047  1.3260 -2.0042  0.6446
14107TIP3   OH263735   6.602   6.370  16.613 -0.2149  0.0561  0.5994
14107TIP3    H163736   6.578   6.344  16.702 -1.6301  1.5513  0.7006
14107TIP3    H263737   6.574   6.462  16.606 -0.7052 -0.1968 -1.5738
14108TIP3   OH263738   0.959   5.421  15.809  0.3212  0.1752 -0.1895
14108TIP3    H163739   0.924   5.433  15.721  1.6304 -2.2992 -1.1454
14108TIP3    H263740   0.897   5.361  15.851 -0.6738  1.8806  0.8897
14109TIP3   OH263741   1.928   5.254  11.248 -0.0186  0.3267 -0.1963
14109TIP3    H163742   1.934   5.291  11.160  2.5849 -0.8860 -0.6009
14109TIP3    H263743   1.950   5.327  11.306 -0.6296  0.8441 -0.6024
14110TIP3   OH263744   4.494   4.049  14.317 -0.0829  0.3273 -0.2845
14110TIP3    H163745   4.525   4.066  14.406  0.1006 -1.6864  0.0984
14110TIP3    H263746   4.570   4.013  14.272 -0.5048  0.1636 -0.8771
14111TIP3   OH263747   3.568   5.794   6.222 -0.4016 -0.3946 -0.0646
14111TIP3    H163748   3.658   5.805   6.252 -0.6177 -0.5100  0.6516
14111TIP3    H263749   3.515   5.836   6.290 -0.7928  2.0450 -1.7338
14112TIP3   OH263750   3.149   1.165   6.181 -0.1328  0.2268 -0.3056
14112TIP3    H163751   3.122   1.077   6.205  0.7363  0.1330  0.3577
14112TIP3    H263752   3.237   1.155   6.145  0.2555  0.9058  0.4329
14113TIP3   OH263753   4.737   0.469  15.241  0.5796 -0.0928 -0.2075
14113TIP3    H163754   4.775   0.431  15.161  0.3534 -0.0617 -0.3310
14113TIP3    H263755   4.643   0.472  15.223  0.4213 -0.9996  0.4466
14114TIP3   OH263756   4.840   4.463  15.073  0.1514  0.1124  1.0124
14114TIP3    H163757   4.907   4.480  15.007  0.4481  0.2339  1.3434
14114TIP3    H263758   4.786   4.542  15.074 -1.5131 -0.9016 -1.0040
14115TIP3   OH263759   2.415   1.385   4.995  0.5600 -0.6000  0.0428
14115TIP3    H163760   2.418   1.319   5.064 -0.4520 -1.5461 -0.7754
14115TIP3    H263761   2.357   1.347   4.928  0.5436  0.8062 -0.7801
14116TIP3   OH263762   5.711   2.287  15.568  0.1123  0.0924  0.2635
14116TIP3    H163763   5.638   2.348  15.579  1.5555  1.8281  0.7067
14116TIP3    H263764   5.739   2.299  15.478 -0.6590 -1.2181 -0.1755
14117TIP3   OH263765   5.686   3.842   5.689 -0.5769 -0.4967 -0.1997
14117TIP3    H163766   5.776   3.812   5.683 -0.4682 -0.0722 -0.7107
14117TIP3    H263767   5.648   3.822   5.604 -0.6610  0.2917 -0.3512
14118TIP3   OH263768   4.904   4.359   1.296  0.2650  0.2230 -0.6590
14118TIP3    H163769   4.918   4.438   1.245  1.4956 -0.1852 -0.9810
14118TIP3    H263770   4.823   4.376   1.344  1.5977  2.5928  0.9777
14119TIP3   OH263771   3.583   1.188   1.150  0.7892 -0.1139  0.0426
14119TIP3    H163772   3.498   1.144   1.158  1.0008 -0.2903  1.7759
14119TIP3    H263773   3.585   1.220   1.060 -1.2015  0.0679  0.0024
14120TIP3   OH263774   1.916   3.040  16.482  0.5297  0.0329 -0.4372
14120TIP3    H163775   1.842   3.024  16.423  0.2573  0.4284 -0.2050
14120TIP3    H263776   1.968   2.960  16.476  1.1506  0.5199 -2.1320
14121TIP3   OH263777   0.147   0.039   1.655  0.1083  0.3785  0.4066
14121TIP3    H163778   0.238   0.067   1.654 -0.2391  1.6683  1.2512
14121TIP3    H263779   0.122   0.042   1.748 -1.1260  1.2908  0.0778
14122TIP3   OH263780   4.722   5.405   2.308 -0.2617 -0.8646  0.5276
14122TIP3    H163781   4.775   5.359   2.373 -1.2077 -1.8720  0.6121
14122TIP3    H263782   4.646   5.436   2.357  0.5442  1.1996  0.5640
14123TIP3   OH263783   5.819   2.088  15.726  0.5247  0.6978 -0.8191
14123TIP3    H163784   5.841   2.113  15.816  2.8195  0.7923 -1.3373
14123TIP3    H263785   5.791   2.169  15.685 -0.7092  0.6214 -0.1680
14124TIP3   OH263786   0.535   3.897   3.500 -0.2554 -0.0133 -0.4887
14124TIP3    H163787   0.507   3.853   3.580  1.3745  0.0086  0.1301
14124TIP3    H263788   0.468   3.964   3.484 -1.3427 -0.9614  0.0420
14125TIP3   OH263789   2.575   4.423  16.821 -0.0760  0.3619 -0.1189
14125TIP3    H163790   2.492   4.376  16.823  0.3357 -0.4102 -0.5286
14125TIP3    H263791   2.579   4.469  16.905 -0.0879 -1.0562  0.6841
14126TIP3   OH263792   6.711   0.675  16.252 -0.2606 -0.3018 -0.4258
14126TIP3    H163793   6.804   0.659  16.263 -0.1788  0.7061  0.4669
14126TIP3    H263794   6.674   0.669  16.340 -0.9964 -0.4493 -0.7370
14127TIP3   OH263795   2.663   6.588   6.147 -0.5013 -0.6213 -0.0123
14127TIP3    H163796   2.722   6.567   6.220  1.6460  0.0099 -1.4684
14127TIP3    H263797   2.697   6.669   6.111  0.9426 -2.7117 -4.0196
14128TIP3   OH263798   0.668   0.519   4.978  0.1827  0.2897 -0.7165
14128TIP3    H163799   0.755   0.510   5.019  1.3316  4.4542 -1.7406
14128TIP3    H263800   0.607   0.498   5.049  2.0409  0.2011  0.9753
14129TIP3   OH263801   4.068   4.734   5.396  0.2528 -1.0096 -0.3204
14129TIP3    H163802   4.146   4.681   5.380 -0.1219 -1.0554 -2.2366
14129TIP3    H263803   4.007   4.675   5.438  0.1083 -1.9192 -1.7650
14130TIP3   OH263804   5.070   1.082   6.181  0.1837  0.1132 -0.6359
14130TIP3    H163805   5.017   1.045   6.251  1.1036 -0.1976 -0.0888
14130TIP3    H263806   5.098   1.167   6.214  1.2265 -0.3418 -0.2954
14131TIP3   OH263807   3.669   4.679  16.478  0.0159  0.0010  0.1353
14131TIP3    H163808   3.638   4.634  16.400 -0.6017  1.2181 -0.3557
14131TIP3    H263809   3.626   4.635  16.550  0.2267 -0.8355 -0.2390
14132TIP3   OH263810   5.212   6.199  15.068  0.0775  0.5922 -0.2068
14132TIP3    H163811   5.292   6.251  15.068  0.0010  0.7087 -0.2012
14132TIP3    H263812   5.224   6.138  14.995  0.3893  0.2727  0.1074
14133TIP3   OH263813   6.069   3.718  10.624  0.4005 -0.7819  0.5914
14133TIP3    H163814   6.017   3.793  10.598  2.1113  0.2362 -0.0503
14133TIP3    H263815   6.074   3.724  10.720  1.1956  0.4223  0.4923
14134TIP3   OH263816   2.767   0.193  11.818  0.0112  0.3614 -0.6840
14134TIP3    H163817   2.838   0.149  11.864  1.2817  1.5137 -1.4437
14134TIP3    H263818   2.756   0.143  11.737  0.6138  0.7271 -0.9946
14135TIP3   OH263819   5.325   5.519   2.410  0.2427  0.6771 -0.1308
14135TIP3    H163820   5.325   5.513   2.505  1.4547  0.1598 -0.1491
14135TIP3    H263821   5.349   5.431   2.380  2.2269  1.4104 -0.8484
14136TIP3   OH263822   2.306   2.764  15.112 -0.1002 -0.2938  0.0757
14136TIP3    H163823   2.229   2.721  15.074 -1.7428  2.2964  0.2368
14136TIP3    H263824   2.358   2.791  15.037 -0.7618  0.3642 -0.1510
14137TIP3   OH263825   2.848   4.092  14.075 -0.0371 -0.1953 -0.1754
14137TIP3    H163826   2.817   4.007  14.108  1.8188 -0.3294  1.3407
14137TIP3    H263827   2.939   4.076  14.049 -0.0596  1.0500 -1.1046
14138TIP3   OH263828   3.231   2.386  12.947  0.0531  0.0605  0.1089
14138TIP3    H163829   3.204   2.328  13.019 -1.0927  0.4963  0.0603
14138TIP3    H263830   3.270   2.462  12.991  2.3216 -1.0452  0.1551
14139TIP3   OH263831   2.302   2.739   4.092  0.1006 -0.2076 -0.4024
14139TIP3    H163832   2.257   2.788   4.161  1.6227 -0.7673  1.0659
14139TIP3    H263833   2.337   2.662   4.136  1.1451 -0.5797 -1.7929
14140TIP3   OH263834   4.973   2.074  16.540  0.0830  0.4098  0.4473
14140TIP3    H163835   4.945   2.008  16.477  2.6224  0.6807 -1.1102
14140TIP3    H263836   4.923   2.153  16.517 -0.3530  0.0039 -0.0104
14141TIP3   OH263837   2.641   3.731   2.676  1.1445 -0.6144 -0.0598
14141TIP3    H163838   2.681   3.701   2.594  1.0271 -2.5159  0.5237
14141TIP3    H263839   2.706   3.712   2.743  0.6393 -0.4893  0.4757
14142TIP3   OH263840   0.436   3.356  12.809 -0.3616  0.3960  0.8632
14142TIP3    H163841   0.520   3.402  12.806  0.1508 -0.5017  0.9388
14142TIP3    H263842   0.374   3.420  12.844  0.5536  0.6799  2.0147
14143TIP3   OH263843   3.593   0.060  12.376 -0.1269 -0.0170 -0.2451
14143TIP3    H163844   3.540   0.124  12.330 -1.9020 -2.1398 -1.3550
14143TIP3    H263845   3.608   0.097  12.463 -0.0826  2.3422 -1.2076
14144TIP3   OH263846   4.896   2.319  16.432  0.3712  0.0978 -0.3339
14144TIP3    H163847   4.860   2.369  16.505  0.4787  1.1356 -0.9655
14144TIP3    H263848   4.971   2.371  16.402  0.7954 -0.7040 -0.6963
14145TIP3   OH263849   6.027   0.478  12.727 -0.1406  0.0152  0.1090
14145TIP3    H163850   6.090   0.524  12.670  0.9943  0.7007  1.8172
14145TIP3    H263851   6.068   0.393  12.744 -0.5254 -0.2271 -0.1491
14146TIP3   OH263852   2.461   4.586   2.573 -0.0997 -0.2782  0.2200
14146TIP3    H163853   2.407   4.517   2.534  0.6404 -0.4826 -0.4736
14146TIP3    H263854   2.465   4.654   2.506  0.2033 -0.1136  0.4029
14147TIP3   OH263855   3.508   2.061   5.990  0.2508 -0.6192  0.1954
14147TIP3    H163856   3.416   2.049   6.014 -0.8449  2.8072 -1.6068
14147TIP3    H263857   3.512   2.042   5.896  1.0403  0.5948 -0.0454
14148TIP3   OH263858   1.032   4.289   1.440 -0.3362 -0.4161  0.1656
14148TIP3    H163859   1.003   4.218   1.497  1.0599 -1.3809 -0.2845
14148TIP3    H263860   1.015   4.257   1.352  3.2729 -1.6950 -0.2190
14149TIP3   OH263861   2.538   2.357   3.613  0.1847 -0.0540 -0.0661
14149TIP3    H163862   2.539   2.445   3.651  1.5353 -0.8381  1.8570
14149TIP3    H263863   2.593   2.365   3.535 -1.1502  1.1682 -0.9461
14150TIP3   OH263864   0.567   6.518   5.856  0.0037  0.0615 -0.0522
14150TIP3    H163865   0.651   6.485   5.826 -0.5645  0.3522 -2.0935
14150TIP3    H263866   0.588   6.597   5.906  0.8495  1.4563 -2.4670
14151TIP3   OH263867   2.688   6.708   5.649  0.4691  0.2360 -0.2841
14151TIP3    H163868   2.626   6.669   5.711  1.1475 -0.2192  0.1261
14151TIP3    H263869   2.684   6.650   5.573 -1.1840  1.4126 -1.1520
14152TIP3   OH263870   4.945   3.035   5.494  0.0841  0.3540  0.1944
14152TIP3    H163871   4.942   3.109   5.555 -0.9855  0.8033 -0.3802
14152TIP3    H263872   4.974   2.961   5.548 -2.6872  0.2822  1.7819
14153TIP3   OH263873   4.192   3.953   2.912  0.1312  0.3488 -0.3076
14153TIP3    H163874   4.266   3.942   2.853  0.2426 -0.1193 -0.0816
14153TIP3    H263875   4.119   3.911   2.867  0.0741  0.5374 -0.3910
14154TIP3   OH263876   3.315   3.834  12.904  0.2969 -0.0692  0.4285
14154TIP3    H163877   3.279   3.921  12.885 -0.2978 -0.5844 -0.9040
14154TIP3    H263878   3.396   3.830  12.853 -0.1928 -0.6591 -0.3227
14155TIP3   OH263879   1.400   1.555  12.488  0.1495  0.0072 -0.2337
14155TIP3    H163880   1.435   1.565  12.576 -1.0630 -0.6041  0.3429
14155TIP3    H263881   1.470   1.513  12.439  1.1018  0.9936  0.2347
14156TIP3   OH263882   5.229   3.892  17.322  0.0951  0.0655  0.1635
14156TIP3    H163883   5.242   3.985  17.305  0.1003 -0.1491 -1.1722
14156TIP3    H263884   5.165   3.865  17.256 -0.8440 -0.6341  1.3174
14157TIP3   OH263885   4.292   1.677  11.989  1.1024 -0.1972 -0.1244
14157TIP3    H163886   4.295   1.593  11.944 -0.0960 -0.2849 -0.0786
14157TIP3    H263887   4.343   1.736  11.934  0.7079 -0.6010 -0.9432
14158TIP3   OH263888   1.795   6.493  13.282  0.2583  0.1655 -0.2487
14158TIP3    H163889   1.788   6.487  13.187  1.7105  1.8020 -0.5210
14158TIP3    H263890   1.705   6.493  13.313 -0.2499 -0.0043 -1.6638
14159TIP3   OH263891   2.176   1.511   0.039 -0.1995 -0.8363 -0.0968
14159TIP3    H163892   2.185   1.569  -0.037 -0.3029  2.3838  2.1342
14159TIP3    H263893   2.088   1.473   0.030 -0.5902  0.2524 -1.1208
14160TIP3   OH263894   6.232   0.120   5.823  0.2350  0.2355  0.7478
14160TIP3    H163895   6.313   0.144   5.868 -1.3399  1.4826  3.1130
14160TIP3    H263896   6.261   0.070   5.747  3.2097  0.6906  1.4616
14161TIP3   OH263897   1.911   6.473  12.057 -0.2496  0.1956  0.1564
14161TIP3    H163898   2.003   6.490  12.080 -0.0748  1.7118 -1.4377
14161TIP3    H263899   1.873   6.436  12.136  1.6841 -0.2987  0.9223
14162TIP3   OH263900   3.010   0.964  13.540 -0.0497 -0.5532  0.1300
14162TIP3    H163901   2.928   0.979  13.587  0.1978  0.9876  0.1085
14162TIP3    H263902   2.992   0.995  13.451  0.3268 -0.9119 -0.0716
14163TIP3   OH263903   5.198   3.781   5.892 -0.3561  0.9018  0.6876
14163TIP3    H163904   5.169   3.772   5.983 -0.0008  0.3353  0.7492
14163TIP3    H263905   5.285   3.819   5.898 -0.4197  1.0621  0.5776
14164TIP3   OH263906   4.899   1.035   1.916  0.0847  0.0895 -0.0605
14164TIP3    H163907   4.856   1.045   1.832  1.1174 -0.5913 -0.6927
14164TIP3    H263908   4.903   0.941   1.931  4.7205 -0.3131 -1.9526
14165TIP3   OH263909   5.561   3.528  16.411 -0.0727 -0.2999 -0.0368
14165TIP3    H163910   5.562   3.533  16.316  2.0125 -0.8602 -0.0788
14165TIP3    H263911   5.608   3.607  16.439  0.7655 -0.9514  0.4462
14166TIP3   OH263912   0.912   4.150   2.879  0.5334  0.3871  0.0974
14166TIP3    H163913   0.904   4.199   2.797  0.8918 -0.7015 -0.6075
14166TIP3    H263914   0.846   4.189   2.937  0.7125  1.5937 -0.4863
14167TIP3   OH263915   0.716   3.592   0.958  0.0032 -0.5566  0.6881
14167TIP3    H163916   0.695   3.612   0.866  1.4149 -1.6325  0.0959
14167TIP3    H263917   0.795   3.642   0.976 -0.0219 -0.6917  1.1811
14168TIP3   OH263918   4.345   2.084  11.727 -0.0415  0.1561  0.0413
14168TIP3    H163919   4.347   2.052  11.637  1.4462 -1.0370  0.4498
14168TIP3    H263920   4.287   2.160  11.725 -1.1747 -0.7102 -1.6186
14169TIP3   OH263921   6.758   1.215   5.428 -0.8925 -0.4481  0.8385
14169TIP3    H163922   6.692   1.212   5.497 -1.7873  2.1897  0.2306
14169TIP3    H263923   6.708   1.197   5.348 -0.2175 -1.6001  0.6550
14170TIP3   OH263924   4.693   0.305   2.161  0.1524  0.4555 -0.6370
14170TIP3    H163925   4.686   0.297   2.065  4.0498  0.5923 -1.0996
14170TIP3    H263926   4.657   0.392   2.180 -1.7556 -0.0207 -1.7405
14171TIP3   OH263927   1.742   4.461  14.395  0.6081  0.4304 -0.0659
14171TIP3    H163928   1.777   4.550  14.400 -0.5682  0.9027  0.0367
14171TIP3    H263929   1.736   4.433  14.486  1.2366  0.1319 -0.1112
14172TIP3   OH263930   2.073   2.794   2.907 -0.0777  0.3494 -0.2444
14172TIP3    H163931   2.115   2.876   2.881 -0.3513  0.0974 -1.5399
14172TIP3    H263932   2.078   2.739   2.829  1.7361 -1.5681  1.1417
14173TIP3   OH263933   6.344   1.137   3.399 -0.3296  0.0360 -0.1893
14173TIP3    H163934   6.358   1.185   3.480  0.9894  1.0618 -0.9909
14173TIP3    H263935   6.359   1.201   3.330 -1.3451 -0.8382 -1.2679
14174TIP3   OH263936   3.563   2.191   3.014 -0.3511  0.3913  0.1370
14174TIP3    H163937   3.547   2.225   2.925 -0.6459  0.4306  0.2034
14174TIP3    H263938   3.488   2.133   3.031 -0.1909  0.2285  0.2830
14175TIP3   OH263939   4.260   5.627   3.038  0.0255  0.6986  0.3625
14175TIP3    H163940   4.233   5.663   2.953 -0.6007 -0.8633 -0.1405
14175TIP3    H263941   4.298   5.541   3.017  1.5389  1.0446  1.4997
14176TIP3   OH263942   0.529   6.665  15.220 -0.4386 -0.2896 -0.4363
14176TIP3    H163943   0.441   6.702  15.226  0.5788  2.0928  1.4469
14176TIP3    H263944   0.565   6.700  15.138 -1.0358 -0.9043 -0.9784
14177TIP3   OH263945   1.279   6.199   3.920  0.0571  0.7021  0.2912
14177TIP3    H163946   1.271   6.243   4.004 -1.8847  0.5306  0.2355
14177TIP3    H263947   1.259   6.107   3.937  1.1085  0.3775 -0.1196
14178TIP3   OH263948   3.732   5.400   5.132 -0.4998 -0.5159 -0.6406
14178TIP3    H163949   3.727   5.305   5.120 -1.6980 -0.7698  1.3038
14178TIP3    H263950   3.814   5.414   5.179 -0.5388 -0.6581 -0.5276
14179TIP3   OH263951   0.815   2.373  15.557  0.3065  0.0935 -0.0181
14179TIP3    H163952   0.804   2.447  15.498 -1.6911 -0.1603 -0.0134
14179TIP3    H263953   0.876   2.404  15.624  0.6176  1.2252 -0.8030
14180TIP3   OH263954   2.090   5.917   2.406 -0.0800  0.2833 -0.0211
14180TIP3    H163955   2.061   5.932   2.316 -0.4802  0.3964  0.1261
14180TIP3    H263956   2.124   6.001   2.435  1.5415 -0.1398 -0.6027
14181TIP3   OH263957   2.777   6.287  13.552  0.3263 -0.6513 -0.6311
14181TIP3    H163958   2.829   6.287  13.633 -0.3767  0.2694 -0.1675
14181TIP3    H263959   2.821   6.350  13.495  0.6989 -1.1439 -0.8976
14182TIP3   OH263960   6.536   5.278  13.591 -0.2990  0.3900  0.0752
14182TIP3    H163961   6.575   5.329  13.663 -3.2955  2.0430  0.6852
14182TIP3    H263962   6.536   5.188  13.622 -0.1950  0.8667  1.5208
14183TIP3   OH263963   4.940   3.762  11.708 -0.2174  0.3889  0.3363
14183TIP3    H163964   4.940   3.858  11.707 -0.9880  0.3996 -1.1311
14183TIP3    H263965   5.005   3.738  11.643  1.3034 -0.1406  1.9660
14184TIP3   OH263966   0.632   2.880  16.455 -0.0993 -0.0173 -0.6715
14184TIP3    H163967   0.540   2.872  16.479  0.0572 -2.1464 -0.5883
14184TIP3    H263968   0.631   2.911  16.364 -0.8559  0.8600 -0.3731
14185TIP3   OH263969   6.565   5.624   0.023  0.0657  0.0435  0.3762
14185TIP3    H163970   6.490   5.626   0.083  0.2942  2.7298  0.6854
14185TIP3    H263971   6.622   5.695   0.054  2.5596 -1.6291 -0.1109
14186TIP3   OH263972   5.449   0.088  14.374  0.4106  0.3291  0.3734
14186TIP3    H163973   5.444   0.002  14.418  0.5423 -0.4071 -0.9973
14186TIP3    H263974   5.406   0.148  14.435 -1.9921 -1.1566  0.2950
14187TIP3   OH263975   3.865   1.838  13.616  0.6056  0.3544 -0.1596
14187TIP3    H163976   3.796   1.790  13.663 -2.2493  2.7563 -1.5196
14187TIP3    H263977   3.885   1.783  13.540  2.0563 -1.4852  1.4430
14188TIP3   OH263978   5.874   5.194   5.835  0.1100 -0.1437 -0.0132
14188TIP3    H163979   5.781   5.173   5.825 -0.4677  1.4508  1.4209
14188TIP3    H263980   5.882   5.221   5.927  2.5048 -2.5474  0.6274
14189TIP3   OH263981   3.989   3.238   0.829 -0.0109 -0.3527 -0.2741
14189TIP3    H163982   4.040   3.277   0.901  0.7375 -0.2350 -0.8498
14189TIP3    H263983   3.927   3.179   0.873  0.9911 -0.9202  0.4324
14190TIP3   OH263984   1.629   1.760   2.853 -0.2264 -0.0215  0.1060
14190TIP3    H163985   1.712   1.782   2.811 -0.5652 -0.0962 -0.6224
14190TIP3    H263986   1.596   1.685   2.803  0.2985 -1.4115  1.7527
14191TIP3   OH263987   6.344   3.113  13.537 -0.0556 -0.7241  0.5024
14191TIP3    H163988   6.281   3.126  13.467  1.5996  0.3036 -0.8555
14191TIP3    H263989   6.290   3.102  13.616 -1.9145 -0.3707 -0.6667
14192TIP3   OH263990   1.834   1.292   4.560  0.2532  0.2815  0.4742
14192TIP3    H163991   1.766   1.332   4.614 -0.0990 -0.5949  0.6990
14192TIP3    H263992   1.829   1.198   4.580 -0.4609 -0.2115 -1.6607
14193TIP3   OH263993   5.434   1.602   0.443 -0.3457  0.0347 -0.9794
14193TIP3    H163994   5.475   1.602   0.530 -2.6442 -1.8091  0.2431
14193TIP3    H263995   5.506   1.587   0.382  1.0416 -1.1507  0.8416
14194TIP3   OH263996   0.852   2.248   4.116 -0.2327 -0.0727 -0.2440
14194TIP3    H163997   0.784   2.300   4.160 -1.8106 -2.0471 -0.1681
14194TIP3    H263998   0.851   2.280   4.026 -1.0209  0.1998 -0.1525
14195TIP3   OH263999   0.616   2.557  15.027  0.3242  0.1466 -0.4316
14195TIP3    H164000   0.539   2.599  15.066  0.5789  1.2634 -1.0884
14195TIP3    H264001   0.636   2.485  15.086 -1.0398  0.0219 -0.0778
14196TIP3   OH264002   2.527   5.168   5.702  0.7426  0.2592 -0.4130
14196TIP3    H164003   2.452   5.136   5.652 -1.2787  2.3641  1.0723
14196TIP3    H264004   2.586   5.205   5.637 -1.0415  1.4661 -1.4004
14197TIP3   OH264005   3.718   4.524   3.096  0.1008 -0.0705  0.3710
14197TIP3    H164006   3.694   4.431   3.096  0.4834 -0.1833  1.5547
14197TIP3    H264007   3.797   4.528   3.043  0.5706 -0.5727  1.0091
14198TIP3   OH264008   0.112   2.432   2.306  0.1439  0.7910  0.2092
14198TIP3    H164009   0.149   2.349   2.277 -1.0507  0.5335 -0.6707
14198TIP3    H264010   0.164   2.499   2.262  0.3009  0.4669 -0.1009
14199TIP3   OH264011   4.603   6.207  16.738 -0.5055 -0.3785  0.3946
14199TIP3    H164012   4.634   6.293  16.766 -0.2227 -0.2995 -0.1438
14199TIP3    H264013   4.551   6.225  16.660  1.4816 -0.8975 -1.1503
14200TIP3   OH264014   1.190   1.837  12.361  0.1372  0.0720 -0.2085
14200TIP3    H164015   1.242   1.813  12.437 -2.7555  0.3011  2.0032
14200TIP3    H264016   1.174   1.931  12.371 -0.2726  0.1097 -1.1114
14201TIP3   OH264017   4.593   6.735  12.529  0.0685 -0.1258  0.5879
14201TIP3    H164018   4.544   6.735  12.611 -1.0968 -1.8890 -0.0494
14201TIP3    H264019   4.634   6.649  12.526 -0.7880 -0.5157 -1.1446
14202TIP3   OH264020   1.827   5.234  15.703 -0.2295  0.7298 -0.3771
14202TIP3    H164021   1.798   5.245  15.613 -0.9440  0.3304 -0.2032
14202TIP3    H264022   1.748   5.210  15.751  0.2768  0.2237  0.2220
14203TIP3   OH264023   0.623   4.391  12.132 -0.0705  0.2158 -0.4176
14203TIP3    H164024   0.535   4.423  12.154 -0.1431 -0.5455  0.4779
14203TIP3    H264025   0.682   4.461  12.162 -0.3424  0.5171 -0.5760
14204TIP3   OH264026   6.523   1.759  13.595  0.6713  0.6496  0.4200
14204TIP3    H164027   6.544   1.792  13.508 -1.7095  0.2194 -0.3957
14204TIP3    H264028   6.499   1.667  13.582  1.3925  0.2484  1.7240
14205TIP3   OH264029   2.628   0.289  14.578  0.0459  0.0645  0.2260
14205TIP3    H164030   2.552   0.272  14.633  0.3310  0.1307  0.6489
14205TIP3    H264031   2.703   0.266  14.633  0.3840  1.2904  0.3054
14206TIP3   OH264032   6.753   0.047  12.382  0.1893  0.4787  0.1902
14206TIP3    H164033   6.831   0.091  12.415  0.8721 -0.5651  0.0120
14206TIP3    H264034   6.701   0.028  12.460  1.8286 -2.0520  0.7752
14207TIP3   OH264035   5.261   5.947  13.919 -0.0995 -0.2643  0.3781
14207TIP3    H164036   5.310   6.015  13.872 -1.0562  3.1418  3.8237
14207TIP3    H264037   5.329   5.888  13.952  0.9532  0.0306 -1.1359
14208TIP3   OH264038   1.823   2.081  12.626  0.0200  0.0720 -0.0124
14208TIP3    H164039   1.850   2.172  12.642  0.1898 -0.2413  1.6715
14208TIP3    H264040   1.746   2.088  12.570  0.5850  1.2033 -0.6866
14209TIP3   OH264041   3.881   6.157   3.310  0.1566 -0.0473  0.0295
14209TIP3    H164042   3.943   6.084   3.316 -0.9624 -1.1631 -1.3254
14209TIP3    H264043   3.797   6.119   3.335 -0.9232  0.0377 -2.9651
14210TIP3   OH264044   4.076   4.794  14.414  0.1492 -0.2838 -0.3284
14210TIP3    H164045   4.073   4.707  14.455 -2.2999  0.3196  1.0366
14210TIP3    H264046   4.134   4.845  14.470 -0.2963 -0.4498  0.3017
14211TIP3   OH264047   2.286   3.439   0.008  0.6542  0.0017  0.4139
14211TIP3    H164048   2.268   3.356  -0.035  1.8111  0.0527 -0.1920
14211TIP3    H264049   2.381   3.448   0.004  0.8591 -0.0905  3.1670
14212TIP3   OH264050   2.725   5.342   5.159 -0.6323 -0.3364 -0.4715
14212TIP3    H164051   2.647   5.355   5.213  0.1140  1.8237  0.1382
14212TIP3    H264052   2.700   5.376   5.073  0.0964  1.8911  0.1414
14213TIP3   OH264053   3.062   6.049  12.184  0.1796  0.1167  0.0584
14213TIP3    H164054   3.029   5.979  12.127  0.7532  0.6518 -0.9703
14213TIP3    H264055   2.985   6.077  12.234 -0.1108 -1.0688  0.3123
14214TIP3   OH264056   2.970   6.339   5.190  0.5486 -0.0246  0.6799
14214TIP3    H164057   2.952   6.246   5.207 -2.9050  0.7025  1.7696
14214TIP3    H264058   2.930   6.356   5.105 -0.3147  0.7667  1.2227
14215TIP3   OH264059   5.324   6.095   4.757  0.2117 -0.2324  0.4038
14215TIP3    H164060   5.369   6.019   4.720 -1.7673 -0.6519 -1.3742
14215TIP3    H264061   5.233   6.084   4.731 -0.2338  2.5363  0.4425
14216TIP3   OH264062   4.301   6.168  13.208  0.5485 -0.1019 -0.3753
14216TIP3    H164063   4.207   6.152  13.208  0.7597 -1.5098 -1.3081
14216TIP3    H264064   4.317   6.221  13.286 -1.1849  1.2745 -0.9155
14217TIP3   OH264065   2.300   4.605   0.644  0.2509 -0.3368  0.1780
14217TIP3    H164066   2.373   4.667   0.647  0.6702 -0.8079 -0.2575
14217TIP3    H264067   2.223   4.658   0.666  0.7388  0.1286  0.8151
14218TIP3   OH264068   3.128   2.295  11.998  0.8946 -0.3945  1.0239
14218TIP3    H164069   3.106   2.348  12.074  0.4534 -0.4374  0.9319
14218TIP3    H264070   3.219   2.316  11.979  0.6699  0.4664  0.8798
14219TIP3   OH264071   2.054   3.923   4.777  0.4588  0.3581 -0.1167
14219TIP3    H164072   2.076   3.893   4.865  1.3188 -0.8644 -0.7217
14219TIP3    H264073   1.972   3.970   4.788  0.5585  0.2449  1.3372
14220TIP3   OH264074   0.459   5.364  13.376  0.0366  0.1789 -0.1441
14220TIP3    H164075   0.447   5.452  13.340  0.0936  0.2875  0.0966
14220TIP3    H264076   0.513   5.378  13.454  0.2090 -0.0925 -0.2150
14221TIP3   OH264077   2.172   5.813   2.649 -0.6905  0.1213  0.2255
14221TIP3    H164078   2.220   5.833   2.569 -1.8061  1.5231 -0.1311
14221TIP3    H264079   2.239   5.788   2.713  0.1984 -1.2147 -1.1758
14222TIP3   OH264080   4.480   0.286  14.406  0.1771 -0.3054  0.0534
14222TIP3    H164081   4.487   0.274  14.500  0.9921  0.4740  0.1050
14222TIP3    H264082   4.390   0.317  14.392  0.2042  0.0235  0.6172
14223TIP3   OH264083   1.483   0.532  13.007  0.3897 -0.2175 -0.2653
14223TIP3    H164084   1.539   0.555  13.081 -0.0676 -0.1748  0.0683
14223TIP3    H264085   1.429   0.460  13.038  0.8444 -0.8261 -0.8641
14224TIP3   OH264086   1.382   4.725   2.719  0.2434 -0.7698  0.3190
14224TIP3    H164087   1.465   4.685   2.695 -0.0347 -0.7677 -0.6720
14224TIP3    H264088   1.341   4.662   2.778  0.7306 -0.9825  0.4332
14225TIP3   OH264089   5.147   1.761   1.398  0.3839 -0.3547 -0.1053
14225TIP3    H164090   5.112   1.819   1.465  0.5450 -0.7865  0.3588
14225TIP3    H264091   5.089   1.685   1.399  1.2895 -1.0601  0.6478
14226TIP3   OH264092   0.415   5.662  15.235  0.1347 -0.6398 -0.3043
14226TIP3    H164093   0.479   5.733  15.233  1.0401 -1.3983  0.3346
14226TIP3    H264094   0.332   5.703  15.215  0.2217  1.0871  2.3486
14227TIP3   OH264095   1.817   4.179   1.470 -0.0448 -0.0822 -0.7673
14227TIP3    H164096   1.817   4.083   1.471 -1.8956 -0.1860  2.0042
14227TIP3    H264097   1.731   4.203   1.437  0.4281  0.6543 -1.4974
14228TIP3   OH264098   1.771   4.562  12.486 -0.3611  0.3153 -0.0220
14228TIP3    H164099   1.851   4.587  12.441  0.4617 -0.3636  1.0222
14228TIP3    H264100   1.736   4.489  12.434  1.1014 -1.1198  0.9247
14229TIP3   OH264101   4.599   0.812   2.931  0.1036 -0.6506 -0.1831
14229TIP3    H164102   4.587   0.885   2.871 -0.8294 -1.3392 -0.8703
14229TIP3    H264103   4.522   0.815   2.988  1.1129  0.1688  1.2160
14230TIP3   OH264104   5.060   2.664  16.109 -0.2782 -0.1842  0.1183
14230TIP3    H164105   4.975   2.706  16.119 -1.1610 -1.2679 -2.1391
14230TIP3    H264106   5.118   2.733  16.078 -0.5828  0.3177  0.6493
14231TIP3   OH264107   5.804   6.291   3.426  0.2482 -0.4337 -0.0898
14231TIP3    H164108   5.895   6.264   3.440  0.1007 -0.9125 -0.0287
14231TIP3    H264109   5.753   6.230   3.479 -0.1275 -0.3420 -0.3422
14232TIP3   OH264110   3.158   0.218  14.208 -0.5886  0.4141  0.0665
14232TIP3    H164111   3.202   0.198  14.126 -1.1752  0.1890 -0.1994
14232TIP3    H264112   3.222   0.198  14.276 -0.3107  0.0295 -0.3080
14233TIP3   OH264113   6.331   2.363   5.113  0.2784  0.9167  0.3131
14233TIP3    H164114   6.340   2.362   5.018 -2.6679 -0.1370 -0.0486
14233TIP3    H264115   6.268   2.433   5.130 -1.5687 -0.8353  1.1225
14234TIP3   OH264116   5.092   0.007  17.263 -0.3660 -0.2569 -0.0150
14234TIP3    H164117   5.044   0.087  17.245 -1.6173 -1.1855 -0.9745
14234TIP3    H264118   5.029  -0.064  17.248  0.4192 -1.4142  1.7087
14235TIP3   OH264119   4.483   3.797  12.365 -0.7221 -0.3826 -0.2544
14235TIP3    H164120   4.562   3.829  12.408 -0.0427 -2.9143  0.5591
14235TIP3    H264121   4.507   3.710  12.332 -2.3458 -0.0629 -2.5510
14236TIP3   OH264122   3.534   5.819  11.141 -0.4317 -0.1609 -0.3246
14236TIP3    H164123   3.578   5.901  11.120 -0.1508 -0.3190 -0.3670
14236TIP3    H264124   3.573   5.755  11.081 -1.1737 -0.1812 -0.8087
14237TIP3   OH264125   4.848   0.372  15.002 -0.5551 -0.5769 -0.1367
14237TIP3    H164126   4.793   0.367  14.924 -1.3351 -0.3322  0.3828
14237TIP3    H264127   4.865   0.281  15.025  2.1658 -0.7141 -2.2632
14238TIP3   OH264128   4.429   6.336  11.299  0.2099 -0.9296 -0.8170
14238TIP3    H164129   4.511   6.319  11.253  0.0439  0.2409 -1.5758
14238TIP3    H264130   4.383   6.252  11.296  0.7580 -1.2140 -1.6728
14239TIP3   OH264131   4.909   1.803  14.209  0.2898 -0.1277  0.0079
14239TIP3    H164132   4.840   1.743  14.237 -0.8624  0.4106 -1.5234
14239TIP3    H264133   4.933   1.852  14.287  0.0343 -1.3783  0.8980
14240TIP3   OH264134   2.761   5.714  12.265 -0.2174 -0.2279 -0.0598
14240TIP3    H164135   2.798   5.626  12.260 -0.1688 -0.5323  3.3121
14240TIP3    H264136   2.668   5.702  12.248  0.0608 -0.6202 -1.3613
14241TIP3   OH264137   3.036   5.840  13.175 -0.3071 -0.0529  0.2802
14241TIP3    H164138   3.073   5.828  13.087  1.3046 -0.4226  0.9729
14241TIP3    H264139   2.959   5.783  13.176  0.9508 -1.8451 -0.1708
14242TIP3   OH264140   4.118   4.144   3.870 -0.0210  0.0494 -0.0394
14242TIP3    H164141   4.209   4.165   3.850 -0.2780  1.2411 -0.0869
14242TIP3    H264142   4.120   4.106   3.957  0.5967 -0.6547 -0.3541
14243TIP3   OH264143   5.176   1.227  16.250 -0.3285  0.1209 -0.3774
14243TIP3    H164144   5.188   1.175  16.171 -1.1879 -0.6330 -0.0202
14243TIP3    H264145   5.121   1.173  16.307 -3.3328  2.3353 -0.9287
14244TIP3   OH264146   5.692   0.445   6.640 -0.3567 -0.0944 -0.1225
14244TIP3    H164147   5.783   0.417   6.646 -0.0975  0.5182 -1.0847
14244TIP3    H264148   5.664   0.421   6.552 -1.1902 -0.4301  0.2170
14245TIP3   OH264149   3.726   3.966  16.404 -0.0408  0.7867  0.1703
14245TIP3    H164150   3.724   3.950  16.309 -0.9259 -1.4355  0.4913
14245TIP3    H264151   3.636   3.953  16.432  0.1506  1.7514  1.2936
14246TIP3   OH264152   1.907   5.851   1.967  0.2526 -0.6417  0.0135
14246TIP3    H164153   1.993   5.824   1.935  0.0189  0.1532 -1.3331
14246TIP3    H264154   1.845   5.813   1.905 -0.3753 -1.0328  0.8539
14247TIP3   OH264155   0.065   0.743  17.007  0.8986  0.6698  0.4361
14247TIP3    H164156   0.094   0.715  16.920  1.1975 -1.6361  1.2196
14247TIP3    H264157   0.100   0.832  17.016  0.0617  1.3527 -2.1252
14248TIP3   OH264158   4.890   4.655   2.686 -0.4653 -0.0812 -0.3924
14248TIP3    H164159   4.930   4.589   2.629 -0.0953 -0.4419  0.2755
14248TIP3    H264160   4.877   4.731   2.630 -0.2870 -0.4984 -1.0065
14249TIP3   OH264161   2.162   2.660   0.886 -0.6879 -0.4592  0.0610
14249TIP3    H164162   2.164   2.716   0.809  2.2993 -1.1199 -0.4645
14249TIP3    H264163   2.126   2.577   0.855  1.7469 -1.1674 -1.0471
14250TIP3   OH264164   3.734   3.139  16.583 -0.1372 -0.4108 -0.0328
14250TIP3    H164165   3.827   3.154  16.599 -0.0013 -1.2827  0.0080
14250TIP3    H264166   3.729   3.117  16.490 -0.3313 -0.1456 -0.0865
14251TIP3   OH264167   6.517   3.043  14.972 -0.0297  0.0120 -0.5331
14251TIP3    H164168   6.444   3.081  15.021 -0.9791 -1.2758 -0.8802
14251TIP3    H264169   6.583   3.112  14.969 -1.3369  1.3098 -0.4269
14252TIP3   OH264170   1.691   6.071  13.265  0.0265  0.0610 -0.3334
14252TIP3    H164171   1.717   5.980  13.272  0.3937  0.2236  0.6572
14252TIP3    H264172   1.762   6.120  13.305 -1.6553  0.5204  2.3825
14253TIP3   OH264173   6.145   3.170  16.171 -0.2657  0.7559  0.0112
14253TIP3    H164174   6.212   3.107  16.144 -0.6439  0.4496 -0.2240
14253TIP3    H264175   6.147   3.169  16.267  0.3740  1.0849  0.0081
14254TIP3   OH264176   4.584   3.055   2.818  0.1307  0.1583  0.4301
14254TIP3    H164177   4.623   3.031   2.902  0.1806  0.8991  0.6188
14254TIP3    H264178   4.505   3.103   2.841 -1.5258 -2.2192  0.0679
14255TIP3   OH264179   6.155   0.618  15.285 -0.1566 -0.1987  0.4143
14255TIP3    H164180   6.160   0.705  15.325 -1.0193 -0.1859  0.5254
14255TIP3    H264181   6.100   0.567  15.345  1.0151 -1.0665  0.7712
14256TIP3   OH264182   0.853   3.621   5.205  0.1575  0.1159  0.0979
14256TIP3    H164183   0.901   3.677   5.144  0.3722  0.3591  0.4856
14256TIP3    H264184   0.851   3.670   5.287 -1.5726  0.5247 -0.1457
14257TIP3   OH264185   2.239   1.184   4.043 -0.8686  0.0601  0.5550
14257TIP3    H164186   2.323   1.177   4.088 -1.2259  0.6260  1.3428
14257TIP3    H264187   2.206   1.094   4.038  0.3577 -0.3301 -0.9182
14258TIP3   OH264188   5.725   3.075  15.719 -0.4067  0.2863  0.1986
14258TIP3    H164189   5.671   3.153  15.708  0.4146  1.3551  2.8022
14258TIP3    H264190   5.767   3.087  15.805  1.4594 -1.9905 -0.2787
14259TIP3   OH264191   5.307   1.986   1.997 -0.3131 -0.8960  0.3049
14259TIP3    H164192   5.316   1.925   2.070  0.4478 -1.0965  0.0477
14259TIP3    H264193   5.363   1.950   1.928 -0.1935 -0.1363 -0.0014
14260TIP3   OH264194   3.288   1.539  15.339 -0.2328  0.4194 -0.0470
14260TIP3    H164195   3.204   1.508  15.372 -0.1275 -2.1461 -1.9085
14260TIP3    H264196   3.345   1.539  15.416 -0.9897 -1.4728  0.5710
14261TIP3   OH264197   0.523   3.263   1.104  0.0651 -0.2171  0.4918
14261TIP3    H164198   0.521   3.273   1.009  0.2822  0.5245  0.5563
14261TIP3    H264199   0.454   3.320   1.136 -0.3370 -0.8470  0.7557
14262TIP3   OH264200   6.049   1.419  13.673  0.4407  0.3539 -0.5365
14262TIP3    H164201   5.974   1.372  13.638 -1.3215  0.5195  2.6639
14262TIP3    H264202   6.016   1.506  13.695  2.0513  1.0476 -0.6683
14263TIP3   OH264203   0.644   3.215   2.202  0.8991  0.3890  0.3580
14263TIP3    H164204   0.693   3.172   2.273 -0.6287 -1.2750  0.4656
14263TIP3    H264205   0.556   3.178   2.208 -0.3678  3.0854  0.0106
14264TIP3   OH264206   2.072   2.726   5.261  0.3898 -0.2325  0.1415
14264TIP3    H164207   2.052   2.744   5.353 -0.2978 -3.9904  0.8982
14264TIP3    H264208   2.168   2.725   5.257  0.5196  3.1119 -0.0462
14265TIP3   OH264209   1.871   4.488   0.354 -0.5093  0.6339  0.0120
14265TIP3    H164210   1.950   4.542   0.360 -0.1281 -0.0008  1.3244
14265TIP3    H264211   1.822   4.523   0.280 -0.4909  3.0458  1.0707
14266TIP3   OH264212   3.003   1.711   3.013  0.1882  0.1598  0.2375
14266TIP3    H164213   2.947   1.788   3.005  0.1206  0.1007  0.1185
14266TIP3    H264214   3.068   1.721   2.943  0.2615  0.1765  0.3086
14267TIP3   OH264215   0.274   5.542   6.375 -0.4149  0.0364 -0.1217
14267TIP3    H164216   0.249   5.621   6.422 -3.1439 -0.7774 -0.0238
14267TIP3    H264217   0.257   5.562   6.283 -1.1064 -0.4007 -0.0969
14268TIP3   OH264218   2.623   1.327  11.151 -0.1267 -0.6043  0.2154
14268TIP3    H164219   2.570   1.301  11.226 -2.3630  1.8647 -0.3289
14268TIP3    H264220   2.560   1.341  11.080  1.2244  2.1324 -0.5996
14269TIP3   OH264221   3.757   5.695  14.659 -0.1563 -0.4749  0.4808
14269TIP3    H164222   3.697   5.758  14.618 -1.8235 -1.3162  1.5273
14269TIP3    H264223   3.806   5.748  14.723  0.1238  0.1835 -0.2557
14270TIP3   OH264224   0.961   6.291  13.137 -0.0295 -0.0334  0.3878
14270TIP3    H164225   1.023   6.290  13.210 -0.3358 -1.1439  0.6629
14270TIP3    H264226   0.942   6.383  13.123  2.2575  0.4188 -0.2104
14271TIP3   OH264227   3.675   5.353   4.824  0.0370 -0.2291  0.4628
14271TIP3    H164228   3.744   5.338   4.759  0.5336  0.2564  0.8686
14271TIP3    H264229   3.717   5.406   4.892 -1.3657  2.3104 -0.5140
14272TIP3   OH264230   4.181   0.081  16.956  0.1875 -0.3147 -0.4095
14272TIP3    H164231   4.250   0.100  17.019  0.4781  1.0230 -1.0948
14272TIP3    H264232   4.140   0.166  16.939  1.1772 -0.3029 -3.2408
14273TIP3   OH264233   4.146   3.343   4.510 -0.3564 -0.2480 -0.2345
14273TIP3    H164234   4.177   3.419   4.559  2.1627  0.7456 -3.0023
14273TIP3    H264235   4.051   3.349   4.513 -0.2455  1.4585  1.8779
14274TIP3   OH264236   1.584   1.875  11.857  0.1402  0.2627  0.5176
14274TIP3    H164237   1.557   1.853  11.946  0.7059 -0.3690  0.5401
14274TIP3    H264238   1.533   1.953  11.835 -1.1946 -0.5039  0.7858
14275TIP3   OH264239   2.760   2.624   0.166  0.8005  0.5735 -0.1638
14275TIP3    H164240   2.800   2.576   0.094 -1.2330  0.5847 -1.3723
14275TIP3    H264241   2.708   2.693   0.124 -0.2894  0.7197  1.3096
14276TIP3   OH264242   0.681   1.332  11.087 -0.0975 -0.2753  0.1952
14276TIP3    H164243   0.649   1.268  11.024  0.5823 -0.7521  0.3243
14276TIP3    H264244   0.738   1.390  11.036  0.8894 -0.9900  0.4657
14277TIP3   OH264245   5.943   4.686   1.903  0.4854 -0.0013  0.5073
14277TIP3    H164246   6.014   4.734   1.860  1.0874 -0.2211  1.2430
14277TIP3    H264247   5.873   4.750   1.912 -0.3753 -0.3650 -2.3972
14278TIP3   OH264248   4.993   0.414   2.686  0.4262  0.3535  0.1316
14278TIP3    H164249   4.963   0.503   2.706 -0.1973  0.1185  0.2882
14278TIP3    H264250   4.975   0.403   2.593  0.1620  0.2638  0.1932
14279TIP3   OH264251   2.084   1.521  11.670  0.3683  0.0918 -0.2244
14279TIP3    H164252   2.079   1.556  11.758  1.0131  0.6203 -0.3864
14279TIP3    H264253   2.150   1.451  11.676  2.1514  1.6381 -0.7318
14280TIP3   OH264254   5.577   0.993  14.641  0.2068  0.0883 -0.7115
14280TIP3    H164255   5.570   1.075  14.689 -0.1497  0.4942 -1.4419
14280TIP3    H264256   5.666   0.994  14.604 -0.4869  1.1497 -2.4626
14281TIP3   OH264257   4.914   2.029   0.136 -0.8233  0.3885 -0.0194
14281TIP3    H164258   4.993   1.976   0.133 -0.8427  0.3717 -2.4311
14281TIP3    H264259   4.945   2.118   0.152 -0.1196  0.5551 -1.9789
14282TIP3   OH264260   4.606   4.348   5.647  0.0227 -0.3051  0.6653
14282TIP3    H164261   4.660   4.426   5.660 -0.7144  0.1152  1.2468
14282TIP3    H264262   4.656   4.278   5.688  1.7582 -0.6235 -1.7194
14283TIP3   OH264263   0.015   5.628   0.594  0.1429 -0.3933 -0.4038
14283TIP3    H164264   0.036   5.574   0.518  0.0333 -0.7494 -0.1843
14283TIP3    H264265   0.075   5.702   0.588  1.7335 -1.5402  0.3743
14284TIP3   OH264266   2.974   1.869  16.939  0.0694 -0.4681 -0.4324
14284TIP3    H164267   2.937   1.823  17.015 -0.5145  0.6936  0.0098
14284TIP3    H264268   2.912   1.852  16.868 -1.3355  1.3757  0.2762
14285TIP3   OH264269   0.980   1.042   2.427  0.4421 -0.0793  0.3006
14285TIP3    H164270   0.967   1.118   2.369 -2.6813 -2.3659 -2.3663
14285TIP3    H264271   0.893   1.004   2.435  1.6647 -2.6574  2.6809
14286TIP3   OH264272   6.269   0.886  16.981 -0.3364 -0.1251  0.0348
14286TIP3    H164273   6.251   0.847  17.066  0.5503 -0.0395  0.2656
14286TIP3    H264274   6.324   0.962  17.000 -1.2803  0.7222 -0.4914
14287TIP3   OH264275   6.154   6.015  13.485 -0.2349  0.6922  0.1019
14287TIP3    H164276   6.089   6.056  13.542 -0.8709  0.3621 -0.3694
14287TIP3    H264277   6.110   5.938  13.450  0.3033  0.6421 -0.4819
14288TIP3   OH264278   6.145   2.861  15.660  0.1228  0.1664  0.0130
14288TIP3    H164279   6.145   2.907  15.744  2.8088 -1.1183  0.8370
14288TIP3    H264280   6.060   2.818  15.656 -0.8787  1.9209  1.0544
14289TIP3   OH264281   2.004   3.578  15.079  0.8626  0.0289  0.4650
14289TIP3    H164282   1.986   3.640  15.009 -0.8797  1.2818  1.9417
14289TIP3    H264283   2.094   3.597  15.106  0.9129  0.7780 -0.2026
14290TIP3   OH264284   5.812   6.735   5.081 -0.0259 -0.1486 -0.2980
14290TIP3    H164285   5.828   6.813   5.028 -1.4767 -0.1144 -0.7303
14290TIP3    H264286   5.888   6.728   5.138  0.8086  0.7374 -1.2723
14291TIP3   OH264287   1.737   4.463   4.732  0.1364 -0.3895  0.1507
14291TIP3    H164288   1.666   4.408   4.764 -0.4149 -0.4789 -1.1682
14291TIP3    H264289   1.696   4.523   4.671  0.9135  0.7873  0.7336
14292TIP3   OH264290   4.825   0.455   0.308  0.8581 -0.0108 -0.4749
14292TIP3    H164291   4.819   0.519   0.237  0.2244  0.3921 -0.0731
14292TIP3    H264292   4.740   0.462   0.353  0.8147 -1.0689 -0.3732
14293TIP3   OH264293   4.202   4.559  12.242 -0.2621 -0.9384  0.2277
14293TIP3    H164294   4.116   4.528  12.271 -0.6289 -0.6296 -0.5054
14293TIP3    H264295   4.206   4.536  12.150  0.5424 -1.1523  0.3082
14294TIP3   OH264296   5.860   5.760   0.441 -0.4325  0.0601  0.0762
14294TIP3    H164297   5.944   5.792   0.410 -0.2545  1.0476  1.4752
14294TIP3    H264298   5.875   5.667   0.460  0.6770  0.4537  1.2870
14295TIP3   OH264299   4.455   0.450   4.446  0.1444  0.4623  0.0459
14295TIP3    H164300   4.443   0.514   4.375  1.3065  1.2960  0.5686
14295TIP3    H264301   4.382   0.389   4.436 -1.5347  2.3579  0.0323
14296TIP3   OH264302   6.407   4.646  13.406  0.1356 -0.2365  0.2203
14296TIP3    H164303   6.384   4.663  13.498 -0.3011 -0.9019  0.2407
14296TIP3    H264304   6.341   4.694  13.356  0.5950  0.4312  0.2453
14297TIP3   OH264305   1.126   1.288  13.114  0.0864  0.3382  0.1033
14297TIP3    H164306   1.108   1.307  13.022 -0.2582  0.7084  0.2426
14297TIP3    H264307   1.086   1.202  13.129  2.4409 -0.9933 -0.7664
14298TIP3   OH264308   3.815   3.737  15.481 -0.2671 -0.7804  0.2729
14298TIP3    H164309   3.766   3.807  15.523 -0.9812 -1.5921  0.8352
14298TIP3    H264310   3.875   3.782  15.422  0.0180  0.3474  1.3735
14299TIP3   OH264311   3.263   2.776   6.016  0.1862  0.1133 -0.2112
14299TIP3    H164312   3.217   2.710   6.068 -1.8941  0.4860 -1.4154
14299TIP3    H264313   3.343   2.794   6.064  0.5195 -2.7994  0.4919
14300TIP3   OH264314   3.064   5.351  15.943 -0.6917  0.5594 -0.5915
14300TIP3    H164315   3.157   5.348  15.962 -1.2438  0.5592  2.6133
14300TIP3    H264316   3.042   5.263  15.914  0.2903  0.6283 -1.6304
14301TIP3   OH264317   4.450   4.201  16.881  0.3750 -0.2736  0.2889
14301TIP3    H164318   4.366   4.156  16.871  0.8207 -0.8396 -1.0759
14301TIP3    H264319   4.488   4.162  16.960 -0.9136  0.4724  1.3192
14302TIP3   OH264320   2.613   6.191   6.640 -0.3353 -0.4822 -0.3082
14302TIP3    H164321   2.701   6.173   6.673 -0.3153 -2.6120 -1.3621
14302TIP3    H264322   2.624   6.264   6.579  0.2824  0.7901  1.2745
14303TIP3   OH264323   5.048   4.291   0.456 -0.3279  0.2137  0.0616
14303TIP3    H164324   4.969   4.260   0.413  1.5469  0.1598 -3.6926
14303TIP3    H264325   5.095   4.212   0.482 -0.7425  0.2327  0.9315
14304TIP3   OH264326   4.557   3.288  17.212  0.6886 -0.9093 -0.0501
14304TIP3    H164327   4.555   3.216  17.276 -2.4783  0.0564  1.1629
14304TIP3    H264328   4.497   3.353  17.249  0.5867  0.7562 -2.9092
14305TIP3   OH264329   5.387   2.147  17.073  0.4344 -0.0438 -0.1426
14305TIP3    H164330   5.310   2.112  17.117  0.0908  0.1866 -0.5498
14305TIP3    H264331   5.456   2.083  17.092  0.0913 -0.3684  0.0420
14306TIP3   OH264332   3.082   5.093  15.847  0.2183 -0.2389  0.3352
14306TIP3    H164333   3.172   5.064  15.834  0.3907  0.9939 -1.7338
14306TIP3    H264334   3.047   5.102  15.758 -1.4123  0.9037  1.0483
14307TIP3   OH264335   2.511   4.828   3.374 -0.8024  0.4084 -0.5990
14307TIP3    H164336   2.603   4.834   3.346  0.0090  0.1551  1.7768
14307TIP3    H264337   2.476   4.754   3.325  2.0021 -3.3860  2.4716
14308TIP3   OH264338   3.351   5.063  12.168  0.4558 -0.2632 -0.0927
14308TIP3    H164339   3.374   5.133  12.230  0.5810 -0.7305  0.3957
14308TIP3    H264340   3.287   5.009  12.216 -0.7826  0.3409 -0.9902
14309TIP3   OH264341   2.507   1.701   3.540 -0.1251 -0.5147 -0.1263
14309TIP3    H164342   2.588   1.735   3.579 -0.0994 -0.3721 -0.3054
14309TIP3    H264343   2.517   1.606   3.546  0.7391 -0.5399 -1.5244
14310TIP3   OH264344   6.615   0.988   5.907  0.2659  0.1133 -0.4686
14310TIP3    H164345   6.629   1.017   5.998 -0.9816 -0.7460  0.0187
14310TIP3    H264346   6.520   0.985   5.897  0.3836 -0.7168 -1.5036
14311TIP3   OH264347   5.619   3.272   3.499 -0.1607 -0.0508 -0.0910
14311TIP3    H164348   5.681   3.296   3.430  1.5652  1.2695  1.7816
14311TIP3    H264349   5.534   3.303   3.468  0.0467 -1.7723 -2.6925
14312TIP3   OH264350   2.210   4.191  12.069  0.3941 -0.0905  0.5724
14312TIP3    H164351   2.302   4.164  12.069  0.2799 -0.5037  1.2633
14312TIP3    H264352   2.164   4.115  12.033  0.5182  0.9158 -1.9130
14313TIP3   OH264353   1.107   1.373  12.838 -0.6039  0.2100  0.4686
14313TIP3    H164354   1.121   1.457  12.881 -1.2313  0.3306  0.4511
14313TIP3    H264355   1.137   1.387  12.748 -1.1350  0.5670  0.3374
14314TIP3   OH264356   5.582   2.270   1.233 -1.0736  0.6514  0.3718
14314TIP3    H164357   5.635   2.308   1.303 -1.8542  1.3289  0.6111
14314TIP3    H264358   5.569   2.179   1.259 -0.9381  0.7675  0.8595
14315TIP3   OH264359   4.614   3.502   6.722 -0.1733  0.3723 -0.2235
14315TIP3    H164360   4.654   3.416   6.707  2.9542  1.6688  0.0644
14315TIP3    H264361   4.660   3.561   6.663 -2.2638  1.9052 -0.4088
14316TIP3   OH264362   2.382   5.090  11.051  0.6156  0.2802  0.2742
14316TIP3    H164363   2.441   5.091  10.976  0.5291  1.3291  0.2179
14316TIP3    H264364   2.424   5.147  11.116 -0.5332  1.3843  0.0765
14317TIP3   OH264365   1.666   4.079  12.543 -0.5723 -0.6454 -0.2251
14317TIP3    H164366   1.655   3.985  12.532 -0.8947 -0.8734  1.7164
14317TIP3    H264367   1.668   4.093  12.638 -0.9517  1.3471 -0.4466
14318TIP3   OH264368   0.774   5.560  14.350  0.7155 -0.3275  0.6997
14318TIP3    H164369   0.717   5.571  14.426 -0.9931  1.2039 -0.7163
14318TIP3    H264370   0.722   5.509  14.288  1.7850 -0.9004  0.2408
14319TIP3   OH264371   4.906   1.269  15.543  0.1124  0.6377 -0.3062
14319TIP3    H164372   4.979   1.240  15.598 -2.2926 -4.0498  0.9736
14319TIP3    H264373   4.936   1.251  15.453  0.7652 -0.7041  0.1547
14320TIP3   OH264374   5.703   6.320  10.482  0.7082  0.4863  0.0028
14320TIP3    H164375   5.774   6.270  10.443  0.6669  0.3731  0.0720
14320TIP3    H264376   5.696   6.286  10.571  1.2917  1.2555  0.3527
14321TIP3   OH264377   2.925   3.075   1.334  1.0241  0.2542  0.1737
14321TIP3    H164378   2.921   3.032   1.248  0.4191 -0.2405  0.4453
14321TIP3    H264379   2.974   3.156   1.317 -2.9902  2.5840 -1.7076
14322TIP3   OH264380   2.675   1.035   4.832  0.1296  0.0284 -0.1710
14322TIP3    H164381   2.731   1.036   4.755  2.6044  0.7021  1.5351
14322TIP3    H264382   2.589   1.062   4.800  0.5898 -1.5094 -2.9799
14323TIP3   OH264383   4.227   4.609   3.054  0.4962  0.9847  0.6621
14323TIP3    H164384   4.259   4.520   3.039  1.6400  1.2472  1.4410
14323TIP3    H264385   4.194   4.638   2.968  0.9555  0.1490  0.1966
14324TIP3   OH264386   5.695   6.111  12.401  0.4790  0.6985 -0.3306
14324TIP3    H164387   5.646   6.191  12.380 -0.6507  0.4200  1.0923
14324TIP3    H264388   5.783   6.142  12.419  0.4347  1.4289 -1.2284
14325TIP3   OH264389   4.700   4.900  12.068 -0.3825  0.1142  0.3101
14325TIP3    H164390   4.719   4.871  12.157  0.8531 -0.3989 -0.1030
14325TIP3    H264391   4.772   4.959  12.046 -2.2905  2.8416  0.7547
14326TIP3   OH264392   6.774   0.031  15.934  0.1116  0.1277  0.2089
14326TIP3    H164393   6.802   0.114  15.896 -1.9222  1.7390  1.9579
14326TIP3    H264394   6.782   0.044  16.029 -1.0105 -1.3777  0.5561
14327TIP3   OH264395   3.016   3.299  15.328 -0.3398 -0.2858  0.3743
14327TIP3    H164396   3.065   3.357  15.269 -0.8853 -0.7980 -0.6090
14327TIP3    H264397   3.071   3.293  15.406  0.5794  0.1302 -0.2153
14328TIP3   OH264398   2.224   5.446   1.439 -0.1659  0.9583  0.0949
14328TIP3    H164399   2.238   5.444   1.344 -1.9864 -0.8086 -0.2037
14328TIP3    H264400   2.301   5.404   1.476  0.5360  1.6046 -0.5905
14329TIP3   OH264401   0.681   0.217   1.678  0.3364  0.1288  0.0406
14329TIP3    H164402   0.753   0.222   1.740  2.4718  0.8135 -2.3110
14329TIP3    H264403   0.646   0.307   1.674 -0.7438 -0.2080  1.1990
14330TIP3   OH264404   1.337   1.456  14.040  0.0303 -0.0964  0.0039
14330TIP3    H164405   1.336   1.471  13.945 -2.1250  0.2360  0.0364
14330TIP3    H264406   1.390   1.528  14.075 -2.6680  2.3750 -0.6321
14331TIP3   OH264407   3.298   1.567  16.016  0.2679  0.1951  0.1230
14331TIP3    H164408   3.307   1.585  16.109 -1.7045  1.2526  0.1647
14331TIP3    H264409   3.279   1.473  16.012 -1.1152  0.4158  0.9421
14332TIP3   OH264410   0.588   2.000   5.913 -0.5899 -1.1889 -0.1224
14332TIP3    H164411   0.664   1.959   5.953  0.0046  0.7263  0.8228
14332TIP3    H264412   0.528   1.928   5.896  1.1071 -2.6516 -0.2034
14333TIP3   OH264413   4.730   1.731  14.832 -0.4983 -0.1728  0.3941
14333TIP3    H164414   4.736   1.730  14.927 -0.5736 -1.7122  0.3986
14333TIP3    H264415   4.651   1.680  14.813 -1.6383  1.7683 -0.4443
14334TIP3   OH264416   4.608   2.092  16.811 -0.1923 -0.1589  0.6687
14334TIP3    H164417   4.583   2.001  16.794  0.2742 -0.2665  0.5312
14334TIP3    H264418   4.649   2.121  16.729 -0.6868  0.3015  0.5804
14335TIP3   OH264419   5.053   2.815  11.777  0.3528 -0.8662 -0.1210
14335TIP3    H164420   5.116   2.854  11.716  0.1128 -0.3788 -0.0684
14335TIP3    H264421   5.084   2.726  11.791  1.7037 -0.2643  0.8552
14336TIP3   OH264422   2.442   2.587  16.399 -0.3357 -0.2768  0.5511
14336TIP3    H164423   2.379   2.552  16.336  1.1741 -1.9464 -0.1185
14336TIP3    H264424   2.394   2.592  16.481 -0.8763 -3.5308  0.5860
14337TIP3   OH264425   0.975   3.728   1.517 -0.3229 -0.3941 -0.4473
14337TIP3    H164426   1.022   3.736   1.599  0.0396 -0.0602 -0.6830
14337TIP3    H264427   0.985   3.636   1.491 -0.0390 -0.3862 -0.3573
14338TIP3   OH264428   3.053   4.926   6.337 -0.5995 -0.6279 -0.0321
14338TIP3    H164429   3.102   4.994   6.290 -1.7153  1.1891  1.3324
14338TIP3    H264430   3.062   4.849   6.282  0.0818  0.8028 -2.0554
14339TIP3   OH264431   0.190   4.770  17.151  0.4166  0.1834 -0.6929
14339TIP3    H164432   0.145   4.787  17.068  2.1405  0.7639 -1.5594
14339TIP3    H264433   0.253   4.701  17.131  0.1623 -0.3877  0.4007
14340TIP3   OH264434   5.688   5.836  12.494 -0.0614  0.1595  0.0146
14340TIP3    H164435   5.596   5.810  12.489 -0.4376  0.9334  2.0281
14340TIP3    H264436   5.689   5.929  12.473  0.4218 -0.0480 -0.9541
14341TIP3   OH264437   6.124   5.041   0.019  0.6045 -0.2062  0.3198
14341TIP3    H164438   6.218   5.054   0.028  0.8040 -1.1586 -0.1839
14341TIP3    H264439   6.101   5.083  -0.064  0.5575  0.1373  0.5058
14342TIP3   OH264440   2.267   4.308   3.299 -0.0172  0.3492  0.1317
14342TIP3    H164441   2.266   4.213   3.293 -2.2279  0.3480 -0.3273
14342TIP3    H264442   2.292   4.338   3.211 -1.4673  0.1788 -0.3567
14343TIP3   OH264443   6.153   3.773   4.253  0.1379 -0.2717 -0.0356
14343TIP3    H164444   6.123   3.702   4.309  1.0248  0.5769  1.5986
14343TIP3    H264445   6.102   3.765   4.173 -0.0825 -2.4603  0.2825
14344TIP3   OH264446   4.104   4.979   1.753  0.3416  0.1624  0.1748
14344TIP3    H164447   4.022   5.025   1.740  0.7416  0.9723  0.4457
14344TIP3    H264448   4.079   4.896   1.793 -0.4790 -0.3202 -1.2677
14345TIP3   OH264449   3.982   4.074  11.764 -0.0498  0.2265  0.6637
14345TIP3    H164450   4.055   4.016  11.785 -0.9993 -0.8764  0.9685
14345TIP3    H264451   4.023   4.150  11.722  1.2023 -0.6581  0.2617
14346TIP3   OH264452   6.586   3.630  14.697 -0.2335 -0.3768  0.2929
14346TIP3    H164453   6.551   3.551  14.657 -0.2921 -0.2300  0.0540
14346TIP3    H264454   6.509   3.684  14.715 -0.0503  0.6436 -1.6948
14347TIP3   OH264455   1.601   6.173  15.371  0.0503  0.3497 -0.1005
14347TIP3    H164456   1.591   6.088  15.328 -2.0701  0.1266  0.7193
14347TIP3    H264457   1.587   6.237  15.301  2.0221  0.0723 -0.7985
14348TIP3   OH264458   4.879   5.301  15.342 -0.6510 -0.1590  0.3092
14348TIP3    H164459   4.874   5.383  15.393  1.1001  0.0906  0.1597
14348TIP3    H264460   4.944   5.248  15.389  0.8144 -0.0355 -1.4529
14349TIP3   OH264461   3.990   0.561   5.146  0.0007  0.0418 -0.6037
14349TIP3    H164462   4.036   0.576   5.064  0.7855 -1.9149 -0.5712
14349TIP3    H264463   4.043   0.496   5.192 -1.8883 -0.9934  0.2242
14350TIP3   OH264464   4.185   3.615  15.884 -0.7117 -0.2218  0.6745
14350TIP3    H164465   4.148   3.621  15.796 -0.0288  0.1114  0.4025
14350TIP3    H264466   4.186   3.522  15.903 -0.4154 -0.3386  0.1238
14351TIP3   OH264467   2.897   1.808   4.031 -0.4659 -0.1120 -0.3009
14351TIP3    H164468   2.917   1.716   4.015 -1.0115 -0.1712 -0.6538
14351TIP3    H264469   2.925   1.853   3.951 -1.3278 -0.1397 -0.6264
14352TIP3   OH264470   5.417   4.027   2.862  0.2924 -0.0115 -0.0467
14352TIP3    H164471   5.424   4.013   2.767 -0.1463 -0.1193 -0.0635
14352TIP3    H264472   5.379   4.114   2.871 -0.3145 -0.2760  0.0186
14353TIP3   OH264473   3.692   1.285   5.415 -0.4714  0.1515  0.0862
14353TIP3    H164474   3.698   1.209   5.358 -2.7767 -1.6980  2.0805
14353TIP3    H264475   3.780   1.299   5.448  0.3733 -0.3351 -1.8593
14354TIP3   OH264476   6.194   4.372   2.603  0.1072 -0.2972 -0.3683
14354TIP3    H164477   6.276   4.334   2.572  0.2459  0.2128 -0.6426
14354TIP3    H264478   6.221   4.449   2.654 -0.1624 -0.6351  0.2927
14355TIP3   OH264479   4.792   2.596   1.404 -0.1362  0.0611 -0.2182
14355TIP3    H164480   4.847   2.519   1.387 -0.1247  0.1377 -0.5319
14355TIP3    H264481   4.843   2.648   1.466  0.0235 -0.0047 -0.2926
14356TIP3   OH264482   2.110   0.790   5.226 -0.2029 -0.4099 -0.7639
14356TIP3    H164483   2.171   0.851   5.185  0.3757 -0.2738  0.2515
14356TIP3    H264484   2.055   0.844   5.282 -0.1489 -0.7279 -0.3944
14357TIP3   OH264485   0.254   1.774  13.073 -0.2588  0.2806 -0.4750
14357TIP3    H164486   0.296   1.767  13.159 -1.5231 -0.1651  0.1510
14357TIP3    H264487   0.197   1.851  13.080 -1.1291 -0.3327 -0.5367
14358TIP3   OH264488   0.997   5.276   2.451 -0.0346  0.2428 -0.4473
14358TIP3    H164489   0.959   5.234   2.528 -1.2694  1.8355 -0.1320
14358TIP3    H264490   1.008   5.205   2.388 -0.8181 -0.7567  0.4997
14359TIP3   OH264491   1.477   1.679   4.621 -0.5909 -0.6786 -0.6926
14359TIP3    H164492   1.484   1.765   4.663 -2.0909  0.0312 -1.7587
14359TIP3    H264493   1.530   1.621   4.675  0.9946  1.0363 -0.2965
14360TIP3   OH264494   6.227   2.190  12.393 -0.2226  0.1170  0.2715
14360TIP3    H164495   6.217   2.138  12.473  2.5014 -0.2817  0.4462
14360TIP3    H264496   6.313   2.165  12.359 -0.2796  2.0633 -1.4797
14361TIP3   OH264497   2.496   1.201  14.143 -0.6884 -0.1666  0.0483
14361TIP3    H164498   2.554   1.199  14.219 -0.2896  2.6147 -0.0733
14361TIP3    H264499   2.554   1.215  14.068 -1.2809 -0.4474 -0.4807
14362TIP3   OH264500   1.406   4.735   5.647 -0.4230  0.8193  0.2886
14362TIP3    H164501   1.433   4.788   5.573 -1.6435  1.8080  0.5194
14362TIP3    H264502   1.404   4.796   5.721 -1.0804  0.2797  0.7267
14363TIP3   OH264503   1.165   1.408   0.370 -0.9333 -0.3673  0.3588
14363TIP3    H164504   1.205   1.362   0.443  1.4272 -0.2471 -0.7644
14363TIP3    H264505   1.238   1.450   0.325 -2.3848  0.1538 -1.6708
14364TIP3   OH264506   2.550   6.631  13.593  0.0315  0.5600  0.2337
14364TIP3    H164507   2.619   6.607  13.655 -1.0912 -0.6589  1.0678
14364TIP3    H264508   2.471   6.637  13.647 -0.4157  2.6757 -0.5734
14365TIP3   OH264509   1.784   0.544  11.270  0.2006 -0.2593  1.0147
14365TIP3    H164510   1.787   0.490  11.349  1.3107 -0.5553  0.7785
14365TIP3    H264511   1.855   0.512  11.215 -1.7978 -1.4811 -1.0699
14366TIP3   OH264512   3.470   3.084   0.788 -0.4234 -0.5895 -0.2836
14366TIP3    H164513   3.414   3.007   0.800  1.0085 -1.4830  1.1150
14366TIP3    H264514   3.529   3.060   0.717 -1.6148  0.2620 -1.6015
14367TIP3   OH264515   1.015   0.575  16.890  0.1268  0.0645 -0.7943
14367TIP3    H164516   1.001   0.654  16.837  0.9111 -0.2660 -1.5256
14367TIP3    H264517   1.077   0.603  16.958 -0.3729  0.3250 -0.4394
14368TIP3   OH264518   6.523   0.345  16.722  0.3194  0.0128  0.0893
14368TIP3    H164519   6.554   0.338  16.812  0.9278 -0.3652 -0.1427
14368TIP3    H264520   6.435   0.307  16.724 -0.0770  0.9432  0.7239
14369TIP3   OH264521   3.243   0.122   4.138 -0.4500  0.0451  0.0880
14369TIP3    H164522   3.251   0.072   4.219 -0.9894 -1.5557 -0.7941
14369TIP3    H264523   3.167   0.178   4.153 -1.4959 -1.3312  0.1888
14370TIP3   OH264524   4.513   4.662  12.466  0.2874  0.0751  0.3850
14370TIP3    H164525   4.554   4.659  12.553 -0.0787 -1.0154  0.5448
14370TIP3    H264526   4.495   4.570  12.445 -0.7346  0.4106 -0.3093
14371TIP3   OH264527   0.392   0.178   4.087 -0.0019  0.2197  0.2055
14371TIP3    H164528   0.414   0.247   4.150  0.3835  0.5424 -0.2785
14371TIP3    H264529   0.415   0.215   4.002  0.4475 -0.6007 -0.0355
14372TIP3   OH264530   4.400   2.188   5.608 -0.4973 -0.1215 -0.1952
14372TIP3    H164531   4.324   2.246   5.606 -1.7310 -1.5841  1.4083
14372TIP3    H264532   4.427   2.180   5.516 -2.6188  0.0156 -0.8701
14373TIP3   OH264533   3.602   3.562   0.573 -0.0331 -0.1902  0.8883
14373TIP3    H164534   3.678   3.530   0.524  0.3028  0.8937  0.6764
14373TIP3    H264535   3.554   3.483   0.597 -0.2900 -0.7634 -1.2992
14374TIP3   OH264536   5.209   1.808  14.179  0.0329 -0.0714 -0.7450
14374TIP3    H164537   5.263   1.887  14.178  0.0262 -0.0474  0.0102
14374TIP3    H264538   5.133   1.830  14.126  0.4699  0.1038 -1.3116
14375TIP3   OH264539   6.656   3.136   5.854 -0.3489 -0.6358  0.6547
14375TIP3    H164540   6.697   3.158   5.771 -0.3210 -1.8051  0.3428
14375TIP3    H264541   6.708   3.064   5.888  0.2896  0.4999  2.2121
14376TIP3   OH264542   6.511   4.843  11.091 -0.1035  0.1161  0.0222
14376TIP3    H164543   6.546   4.754  11.099  2.6633  1.0511 -0.6975
14376TIP3    H264544   6.419   4.835  11.119  0.7069 -2.4638  2.4637
14377TIP3   OH264545   6.707   5.678  14.060 -0.2920 -0.6347 -0.8496
14377TIP3    H164546   6.677   5.640  13.977 -2.9674  0.0852 -0.3271
14377TIP3    H264547   6.662   5.626  14.127 -1.1997  1.1420 -0.0140
14378TIP3   OH264548   4.338   0.192  14.025 -0.1755 -0.2568 -0.4617
14378TIP3    H164549   4.356   0.271  13.975  2.4427  0.8401  1.9463
14378TIP3    H264550   4.246   0.202  14.053 -0.4691  0.9555 -1.7748
14379TIP3   OH264551   4.031   6.041  14.590  0.2194 -0.8284  0.8268
14379TIP3    H164552   4.097   6.110  14.589  0.1076 -0.6125  2.9195
14379TIP3    H264553   4.080   5.960  14.575  0.5412 -0.4385 -0.3163
14380TIP3   OH264554   5.669   2.869   0.471  0.1714 -0.1411  0.2236
14380TIP3    H164555   5.632   2.955   0.453  1.3323  0.4815  0.6658
14380TIP3    H264556   5.627   2.842   0.553  2.7605  1.9347  2.4563
14381TIP3   OH264557   3.062   2.987   1.985 -0.2747  0.0574  0.1260
14381TIP3    H164558   3.139   3.025   1.941  0.0825  0.3477  0.9795
14381TIP3    H264559   3.087   2.983   2.077 -1.2652  0.0835  0.4051
14382TIP3   OH264560   0.556   1.032  11.564 -0.7583  0.3609  0.1736
14382TIP3    H164561   0.517   1.098  11.506  0.7836  1.6850  0.5392
14382TIP3    H264562   0.532   1.061  11.652 -0.4896  0.1634  0.3124
14383TIP3   OH264563   4.148   0.286   5.202 -0.5050  0.5222  0.6594
14383TIP3    H164564   4.202   0.223   5.155 -0.1446  0.7452  0.7678
14383TIP3    H264565   4.211   0.343   5.247 -0.7917  1.4531 -0.0738
14384TIP3   OH264566   6.409   6.082  12.622  0.4943  0.1936  0.1444
14384TIP3    H164567   6.488   6.113  12.666  1.4572  0.3978 -1.6369
14384TIP3    H264568   6.441   6.024  12.554 -0.9861 -0.6494  0.1327
14385TIP3   OH264569   1.818   3.695   0.860  0.0365 -0.4302  0.1601
14385TIP3    H164570   1.906   3.681   0.827  0.7203 -0.5970  1.9362
14385TIP3    H264571   1.767   3.623   0.822  0.2959  0.4215 -1.9570
14386TIP3   OH264572   3.682   3.968  13.386 -0.0742 -0.1109 -0.3496
14386TIP3    H164573   3.641   3.885  13.413  1.4357 -1.2268 -1.3164
14386TIP3    H264574   3.704   3.955  13.294  0.5968  1.2142 -0.3958
14387TIP3   OH264575   3.557   1.615  11.020 -0.3534  0.5129  0.2217
14387TIP3    H164576   3.570   1.655  10.934  0.5700  0.6141  0.3947
14387TIP3    H264577   3.573   1.522  11.006 -1.5347  0.3335  0.0172
14388TIP3   OH264578   2.669   5.068   4.905  0.0807 -0.3070  0.2411
14388TIP3    H164579   2.604   5.123   4.949 -0.9693 -1.2178 -0.1191
14388TIP3    H264580   2.747   5.123   4.899  0.5850 -0.3724  3.9038
14389TIP3   OH264581   1.718   2.274   0.312  0.1647 -0.3140 -0.2185
14389TIP3    H164582   1.701   2.181   0.295  1.3774 -0.3873 -1.2411
14389TIP3    H264583   1.768   2.303   0.235  0.4800  0.9841  0.4558
14390TIP3   OH264584   4.981   2.967  15.519 -0.0462  0.4831 -0.7717
14390TIP3    H164585   4.923   3.040  15.497  0.7392  0.9680 -1.2895
14390TIP3    H264586   4.950   2.895  15.464 -0.7680  0.4447 -0.3250
14391TIP3   OH264587   3.234   5.931   2.239 -0.2056  0.5232 -0.3156
14391TIP3    H164588   3.148   5.902   2.211  0.0967 -0.0018 -0.7210
14391TIP3    H264589   3.239   6.023   2.212 -1.1709  0.9763  0.9822
14392TIP3   OH264590   2.100   2.965  15.834  0.5891 -0.1707 -0.2642
14392TIP3    H164591   2.071   3.046  15.794 -0.1566  0.2524  1.0689
14392TIP3    H264592   2.178   2.989  15.884  0.1545 -0.1791  0.4326
14393TIP3   OH264593   2.339   1.302  14.338  0.0832 -0.0791  0.0706
14393TIP3    H164594   2.260   1.249  14.348  1.4640 -2.0357  1.4591
14393TIP3    H264595   2.389   1.259  14.269  0.8496 -0.1192  0.6309
14394TIP3   OH264596   3.857   2.548  16.521 -0.4228 -0.1611 -0.0086
14394TIP3    H164597   3.768   2.516  16.507  0.1013 -2.4419  1.4619
14394TIP3    H264598   3.870   2.544  16.616  1.7764 -1.4889 -0.2985
14395TIP3   OH264599   0.827   3.920   5.969 -0.3688 -0.2604  0.0973
14395TIP3    H164600   0.796   3.842   6.014 -0.9932  0.1729  0.4267
14395TIP3    H264601   0.786   3.993   6.014  1.0608  0.3487  0.4941
14396TIP3   OH264602   0.600   3.518   5.245 -0.0393  0.1926 -0.1573
14396TIP3    H164603   0.597   3.444   5.184 -0.5228  0.6774 -0.7393
14396TIP3    H264604   0.680   3.565   5.220 -0.1375  0.2878 -0.2910
14397TIP3   OH264605   1.799   2.110   3.640  0.0793  0.4130  0.2699
14397TIP3    H164606   1.753   2.037   3.682  0.3839  0.4145  0.6122
14397TIP3    H264607   1.828   2.165   3.713  2.0090 -0.4143  0.1905
14398TIP3   OH264608   2.773   1.234  13.108 -0.2201  0.3139  1.1903
14398TIP3    H164609   2.684   1.204  13.126 -0.6440  0.9472  0.2473
14398TIP3    H264610   2.762   1.321  13.067  0.5943 -0.8966 -1.9344
14399TIP3   OH264611   0.940   0.465   2.038 -0.3772  0.0009  0.4344
14399TIP3    H164612   1.005   0.522   1.998 -0.7878  0.2692  0.1528
14399TIP3    H264613   0.984   0.380   2.044 -0.3354 -0.0584 -0.6437
14400TIP3   OH264614   1.005   5.240  12.898 -0.3378 -0.5594  0.1180
14400TIP3    H164615   0.976   5.149  12.892 -1.6766 -0.1368 -0.0233
14400TIP3    H264616   0.954   5.286  12.832  0.6194  0.2376 -0.0820
14401TIP3   OH264617   0.989   4.961  12.996  0.2417 -0.0059 -0.1155
14401TIP3    H164618   1.026   4.990  13.079 -0.3616  1.1605 -0.2361
14401TIP3    H264619   1.059   4.912  12.954  0.9332  0.3682  0.5822
14402TIP3   OH264620   4.476   4.534  16.447  0.8243 -0.0463  0.2261
14402TIP3    H164621   4.522   4.489  16.517  1.0060  0.1510  0.2355
14402TIP3    H264622   4.448   4.465  16.387 -2.1531 -0.6182  2.0742
14403TIP3   OH264623   3.297   6.729  10.848 -0.1892 -0.7001  0.1053
14403TIP3    H164624   3.323   6.817  10.875 -0.3460 -0.9589  1.1229
14403TIP3    H264625   3.203   6.724  10.868 -0.1001 -1.2309  0.4063
14404TIP3   OH264626   1.314   2.420  16.903  0.4519 -0.0646  0.5310
14404TIP3    H164627   1.400   2.416  16.862  0.3433 -0.4104  0.3284
14404TIP3    H264628   1.259   2.463  16.837 -0.0451 -1.8407 -0.2939
14405TIP3   OH264629   6.076   4.628  16.560 -0.3972  0.1332 -1.0182
14405TIP3    H164630   6.038   4.698  16.507  0.9435  0.4564 -1.6034
14405TIP3    H264631   6.049   4.547  16.516 -0.2259  0.3604 -1.5513
14406TIP3   OH264632   5.086   3.457   5.059  0.4186  0.3231 -0.0827
14406TIP3    H164633   5.142   3.535   5.051 -1.9810  2.0546 -1.5485
14406TIP3    H264634   5.029   3.476   5.134  0.8930 -0.8193  0.5917
14407TIP3   OH264635   3.481   2.445   6.314  0.1739  0.1067  0.3523
14407TIP3    H164636   3.457   2.369   6.367  0.2295 -0.3738 -0.2972
14407TIP3    H264637   3.577   2.447   6.316  0.1680  0.3326  0.5937
14408TIP3   OH264638   2.629   2.167  17.215 -0.1300 -0.0741  0.4836
14408TIP3    H164639   2.692   2.096  17.207 -0.7789 -0.6998  0.7376
14408TIP3    H264640   2.626   2.186  17.309 -2.5662 -2.2179  0.9703
14409TIP3   OH264641   3.026   4.193  10.552 -0.2321  0.0903 -0.4928
14409TIP3    H164642   2.966   4.124  10.578 -1.9268  1.9937  0.9717
14409TIP3    H264643   2.980   4.242  10.484 -0.2001  1.3409  0.3583
14410TIP3   OH264644   0.807   6.551   2.422 -0.4588  0.4252  0.0466
14410TIP3    H164645   0.860   6.516   2.494 -0.8073 -1.4003 -0.5344
14410TIP3    H264646   0.858   6.531   2.343 -0.6328  1.3364 -0.3086
14411TIP3   OH264647   2.226   2.650   4.952 -0.3329 -0.8547 -0.1874
14411TIP3    H164648   2.186   2.736   4.941  0.8651 -0.3272 -0.5232
14411TIP3    H264649   2.289   2.661   5.023  0.5747 -1.1728 -0.9185
14412TIP3   OH264650   4.866   6.755  11.154  0.0362 -0.3038 -0.1078
14412TIP3    H164651   4.887   6.847  11.137 -0.6088 -0.5289 -2.4468
14412TIP3    H264652   4.890   6.710  11.072 -1.7541 -1.8438  0.1646
14413TIP3   OH264653   1.680   3.668   4.557  0.2826 -0.0860 -0.1933
14413TIP3    H164654   1.636   3.606   4.615 -0.5817 -1.0583 -1.8036
14413TIP3    H264655   1.651   3.754   4.587 -1.6381 -0.6482 -0.3067
14414TIP3   OH264656   2.457   5.403   6.263 -0.4950  0.6528  0.0176
14414TIP3    H164657   2.487   5.372   6.349 -1.2099  0.5741  0.2399
14414TIP3    H264658   2.367   5.372   6.256 -0.5232  0.8773 -0.6562
14415TIP3   OH264659   4.259   2.298   0.774  0.8411 -0.0233  0.5266
14415TIP3    H164660   4.262   2.374   0.715  0.0970  1.3144  2.1354
14415TIP3    H264661   4.232   2.334   0.858 -4.2165 -2.6560  0.4016
14416TIP3   OH264662   6.381   3.023   5.899 -0.0036 -0.9379 -0.3090
14416TIP3    H164663   6.338   2.997   5.817 -2.3662 -0.4550  0.6974
14416TIP3    H264664   6.474   3.007   5.883 -0.4185 -1.1963 -2.9524
14417TIP3   OH264665   4.132   6.034   5.443  0.2471 -0.6593 -0.6794
14417TIP3    H164666   4.221   5.999   5.435 -0.4594 -2.1772 -2.7256
14417TIP3    H264667   4.108   6.059   5.354 -0.6336  1.7835  0.1573
14418TIP3   OH264668   4.224   2.580   3.245 -0.3105 -0.3454 -0.1721
14418TIP3    H164669   4.230   2.535   3.330  0.8721  0.1337  0.0223
14418TIP3    H264670   4.256   2.668   3.263 -2.2427  0.5115 -0.6298
14419TIP3   OH264671   2.245   2.215   3.420 -0.0415 -0.7062  1.0741
14419TIP3    H164672   2.245   2.251   3.509  1.3109 -0.3465  0.9568
14419TIP3    H264673   2.230   2.291   3.364 -0.3954 -0.8503  0.9740
14420TIP3   OH264674   2.729   2.483   2.005 -0.4377  0.1000 -0.3468
14420TIP3    H164675   2.786   2.556   2.027 -0.4606 -0.5455  2.1347
14420TIP3    H264676   2.778   2.405   2.032 -1.9277 -0.5374  0.7053
14421TIP3   OH264677   0.951   5.561   4.946 -0.0384  0.6637 -0.3009
14421TIP3    H164678   0.963   5.489   4.884 -1.5828 -1.0031  1.1852
14421TIP3    H264679   1.006   5.537   5.021 -1.3276  0.4245  0.6258
14422TIP3   OH264680   0.096   5.008   1.507 -0.1275 -0.5402  0.3563
14422TIP3    H164681   0.173   4.952   1.499  0.7929  0.6203  0.7320
14422TIP3    H264682   0.074   5.032   1.417 -1.3258 -2.4779  0.0749
14423TIP3   OH264683   1.975   3.971   6.016 -0.1705  0.2361  0.3758
14423TIP3    H164684   2.003   3.997   6.104 -2.6282 -0.8281  1.5850
14423TIP3    H264685   1.984   3.876   6.015 -1.7196  0.0696  0.1122
14424TIP3   OH264686   4.586   5.187   6.353  0.6615 -0.0327 -0.6503
14424TIP3    H164687   4.587   5.206   6.447 -2.1929 -3.2615  0.2516
14424TIP3    H264688   4.504   5.227   6.323  0.9258 -0.1293 -1.5125
14425TIP3   OH264689   6.573   0.959   0.475  0.3611 -0.4377 -0.4102
14425TIP3    H164690   6.650   0.923   0.520  1.3566 -1.6772 -2.9476
14425TIP3    H264691   6.609   0.998   0.395 -1.1632  2.9108  0.3715
14426TIP3   OH264692   4.986   0.848  12.800 -0.7024  0.5019 -0.1434
14426TIP3    H164693   4.901   0.805  12.788  0.0193 -1.1856  0.5613
14426TIP3    H264694   5.022   0.854  12.712 -0.7181 -0.5798 -0.2364
14427TIP3   OH264695   5.983   5.041  15.096 -0.3039  0.2869 -0.0985
14427TIP3    H164696   6.060   5.097  15.100  0.2136 -0.4228  0.0448
14427TIP3    H264697   5.934   5.073  15.020  2.0498 -1.6228 -2.6403
14428TIP3   OH264698   3.456   6.018  15.566  1.0172  0.2641  0.2763
14428TIP3    H164699   3.480   5.964  15.490 -0.4147  0.0338 -0.0404
14428TIP3    H264700   3.381   6.068  15.536  0.9920  0.8476  1.2774
14429TIP3   OH264701   1.992   4.333  17.379  0.4189  0.0692  0.8041
14429TIP3    H164702   2.048   4.277  17.325 -1.8488  1.4661 -3.4833
14429TIP3    H264703   2.044   4.413  17.394  0.7076  0.1214 -0.4141
14430TIP3   OH264704   6.189   0.814   4.904 -0.2803  0.1428  0.2505
14430TIP3    H164705   6.255   0.798   4.837  0.4103  0.1435  0.9249
14430TIP3    H264706   6.133   0.736   4.901 -0.2565  0.1409 -0.3185
14431TIP3   OH264707   5.499   1.087  17.301 -0.0810 -0.7155  0.2470
14431TIP3    H164708   5.442   1.026  17.255  1.0854 -1.9108  0.3157
14431TIP3    H264709   5.587   1.050  17.291  0.7594  1.2822 -0.2053
14432TIP3   OH264710   3.265   0.136   4.589 -0.1232  0.0400  0.0548
14432TIP3    H164711   3.321   0.164   4.517 -0.6740 -0.9946 -0.7894
14432TIP3    H264712   3.325   0.114   4.660  0.4058  1.3898  0.0471
14433TIP3   OH264713   1.728   2.887   5.401  0.0031 -0.4396 -0.0308
14433TIP3    H164714   1.811   2.932   5.412  0.6382 -1.2825 -1.1293
14433TIP3    H264715   1.706   2.853   5.487  1.6469 -1.6279 -0.0551
14434TIP3   OH264716   1.866   3.588   1.117 -0.3600 -0.3619  0.3579
14434TIP3    H164717   1.950   3.543   1.113 -0.0765 -0.1041  2.3182
14434TIP3    H264718   1.859   3.634   1.033  1.7432  0.1023  0.3824
14435TIP3   OH264719   4.347   3.419   5.114  0.3228  0.1854 -0.2260
14435TIP3    H164720   4.261   3.388   5.142 -0.0110  0.0852 -1.2959
14435TIP3    H264721   4.402   3.341   5.111 -0.4844 -0.3917 -2.7978
14436TIP3   OH264722   0.248   4.243  12.359  0.4415  0.1042 -0.2169
14436TIP3    H164723   0.159   4.246  12.395  0.2189  0.7266 -0.7990
14436TIP3    H264724   0.285   4.329  12.379  0.8933 -0.1275 -0.0392
14437TIP3   OH264725   4.708   5.204   5.659  0.3128 -0.2034 -0.6231
14437TIP3    H164726   4.715   5.221   5.565 -0.0150  1.5345 -0.3627
14437TIP3    H264727   4.632   5.146   5.667  0.7925 -0.9755 -1.4758
14438TIP3   OH264728   4.300   0.815  13.224  0.2181  0.3761 -0.1343
14438TIP3    H164729   4.374   0.838  13.168  1.7038 -0.3093  1.4565
14438TIP3    H264730   4.314   0.723  13.247 -0.2314  0.6717  1.4678
14439TIP3   OH264731   0.178   2.692  15.686  0.2618  0.2472  0.2624
14439TIP3    H164732   0.254   2.657  15.733  1.0316  1.2544 -0.1803
14439TIP3    H264733   0.197   2.675  15.594 -0.6537 -0.6114  0.2246
14440TIP3   OH264734   3.735   0.610  14.859 -0.1040  0.2654  0.3587
14440TIP3    H164735   3.737   0.691  14.910 -1.5302  0.3592  0.3215
14440TIP3    H264736   3.695   0.546  14.918  1.9076 -0.7100  0.7391
14441TIP3   OH264737   0.250   6.729  15.277  0.1880  0.0925 -0.0371
14441TIP3    H164738   0.233   6.820  15.253 -1.4326  0.1143  0.9970
14441TIP3    H264739   0.219   6.723  15.368  1.4774 -1.1694  0.3485
14442TIP3   OH264740   2.265   4.334   1.815 -0.3551 -0.7220 -0.1631
14442TIP3    H164741   2.350   4.308   1.849  0.3523  1.1956 -0.3534
14442TIP3    H264742   2.220   4.251   1.795  1.3327 -1.7619  0.2016
14443TIP3   OH264743   2.983   1.129  15.565 -0.9158 -0.0205 -0.1338
14443TIP3    H164744   3.057   1.080  15.530 -1.0489 -1.1111  1.0534
14443TIP3    H264745   2.953   1.183  15.492  0.0779 -0.7211 -1.0798
14444TIP3   OH264746   5.013   6.775   1.724  0.1571 -0.0308 -0.1296
14444TIP3    H164747   4.998   6.689   1.764  1.9798 -1.8064 -2.8607
14444TIP3    H264748   4.999   6.760   1.630 -0.7607  3.0431 -0.5988
14445TIP3   OH264749   1.044   2.082  11.691  0.5170 -0.7067  0.0837
14445TIP3    H164750   1.117   2.114  11.638 -0.4677 -1.0844 -1.5741
14445TIP3    H264751   0.967   2.092  11.634 -0.4073 -2.2755  0.9850
14446TIP3   OH264752   0.744   4.522   5.582  0.0184  0.3564  0.6676
14446TIP3    H164753   0.690   4.445   5.566  0.8738 -0.4688  1.6220
14446TIP3    H264754   0.683   4.595   5.582 -0.7925 -0.2897 -0.3925
14447TIP3   OH264755   4.455   1.320   2.697 -0.3445  0.3042 -0.1855
14447TIP3    H164756   4.370   1.363   2.690 -0.0944  0.8567  0.1225
14447TIP3    H264757   4.473   1.289   2.609 -0.9385  0.0403 -0.2225
14448TIP3   OH264758   2.339   0.479   4.579 -0.2673 -0.0477  0.4820
14448TIP3    H164759   2.296   0.431   4.650 -0.4728 -1.8721 -0.8263
14448TIP3    H264760   2.268   0.513   4.526 -0.1488 -1.3579 -0.5627
14449TIP3   OH264761   1.269   3.855   1.262  0.2511 -0.9705 -0.2347
14449TIP3    H164762   1.292   3.780   1.316  0.6320 -0.9479 -0.3579
14449TIP3    H264763   1.194   3.895   1.307  0.7037 -0.8176  0.4092
14450TIP3   OH264764   3.759   4.873  17.141  0.1225  0.5165  0.1771
14450TIP3    H164765   3.824   4.928  17.095 -0.0153  0.5673  0.0425
14450TIP3    H264766   3.772   4.894  17.233  1.5234 -0.7933  0.3130
14451TIP3   OH264767   5.374   5.491   5.398 -0.4202  0.3100 -0.0935
14451TIP3    H164768   5.372   5.494   5.494 -1.0186 -2.0785  0.0373
14451TIP3    H264769   5.285   5.466   5.373 -0.0971  0.2584 -1.2433
14452TIP3   OH264770   5.535   0.553   1.668 -0.3424 -0.1291  0.2634
14452TIP3    H164771   5.629   0.548   1.681 -0.2331 -3.1644 -0.8783
14452TIP3    H264772   5.500   0.570   1.756  1.2341  0.3957  0.8169
14453TIP3   OH264773   2.627   3.351  15.899 -0.1678 -0.1539  0.4666
14453TIP3    H164774   2.702   3.304  15.863 -1.6200 -1.8668 -0.5203
14453TIP3    H264775   2.646   3.443  15.883  2.5007 -0.3606  1.8574
14454TIP3   OH264776   2.634   4.821   1.670 -0.9134 -0.0457 -0.0477
14454TIP3    H164777   2.649   4.872   1.590 -1.9593 -0.2297 -0.3689
14454TIP3    H264778   2.689   4.743   1.659  0.2030  0.6926  0.1613
14455TIP3   OH264779   1.790   0.796   1.140  0.5553  0.5238 -0.2766
14455TIP3    H164780   1.836   0.743   1.075  0.0003 -1.3503  0.7841
14455TIP3    H264781   1.733   0.734   1.185  1.5959  1.5250  2.6324
14456TIP3   OH264782   4.012   0.709   5.827  0.1085  0.0351 -0.2779
14456TIP3    H164783   3.961   0.715   5.908 -1.4003 -0.9288 -1.0935
14456TIP3    H264784   4.086   0.653   5.848 -0.5141 -0.5702  0.3235
14457TIP3   OH264785   2.543   6.763   3.829  0.1164 -0.5964  0.0211
14457TIP3    H164786   2.495   6.720   3.900  0.6247  1.1112  1.4413
14457TIP3    H264787   2.633   6.771   3.861  0.5642 -0.5657 -1.1740
14458TIP3   OH264788   2.603   1.944  14.457 -0.6566  0.1265  0.5290
14458TIP3    H164789   2.561   1.982  14.533 -1.5609  0.2926 -0.0423
14458TIP3    H264790   2.664   2.012  14.427  1.2029 -0.6904  2.2460
14459TIP3   OH264791   5.438   0.207   3.602  0.2346  0.5782 -0.0214
14459TIP3    H164792   5.395   0.211   3.516  2.1560 -0.2402 -1.0854
14459TIP3    H264793   5.395   0.134   3.647 -1.0071  1.2136 -0.1355
14460TIP3   OH264794   3.939   6.132  14.975  0.2116 -0.3756 -0.3676
14460TIP3    H164795   3.967   6.222  14.962  0.4812 -0.6514 -1.9277
14460TIP3    H264796   3.859   6.124  14.923  0.4881 -1.1606 -0.6928
14461TIP3   OH264797   4.311   4.127   0.416  0.2094  0.0709 -0.4251
14461TIP3    H164798   4.381   4.098   0.476  0.8645 -0.9601 -1.6533
14461TIP3    H264799   4.235   4.140   0.473  0.8733 -0.6725  0.6704
14462TIP3   OH264800   3.039   6.130  14.414 -0.1413 -0.1020  0.0704
14462TIP3    H164801   3.054   6.084  14.331  0.3147  0.4735 -0.1725
14462TIP3    H264802   2.999   6.064  14.471  2.3453 -1.4459  0.3938
14463TIP3   OH264803   1.420   0.844   1.505  0.1185 -0.2184 -0.6584
14463TIP3    H164804   1.469   0.926   1.511 -0.5656  0.0863  1.6886
14463TIP3    H264805   1.480   0.777   1.538 -0.7035  0.0268  1.4292
14464TIP3   OH264806   4.490   0.067  11.754 -0.3383  0.0075 -0.0070
14464TIP3    H164807   4.455   0.014  11.826 -0.4191  1.1964  0.8548
14464TIP3    H264808   4.489   0.156  11.787  2.3185  0.2527 -0.4234
14465TIP3   OH264809   3.248   1.521   3.694 -0.3055 -0.3141  0.4000
14465TIP3    H164810   3.253   1.426   3.698 -0.5664 -0.3052  1.1673
14465TIP3    H264811   3.320   1.547   3.636  1.4970 -0.8344  2.2519
14466TIP3   OH264812   0.375   6.657  12.552  0.0285 -0.5302 -0.0271
14466TIP3    H164813   0.294   6.657  12.603  1.4964  0.2258  2.5354
14466TIP3    H264814   0.409   6.746  12.563  1.4253 -0.9661 -0.6256
14467TIP3   OH264815   4.531   2.018   2.299  0.7628  0.3881 -0.0966
14467TIP3    H164816   4.540   2.061   2.214  1.7248 -0.0677 -0.2426
14467TIP3    H264817   4.619   2.020   2.336  0.9707 -1.8165 -0.3051
14468TIP3   OH264818   5.117   1.517   1.610 -0.4364 -0.0604 -0.7903
14468TIP3    H164819   5.200   1.537   1.567  0.4124  0.7308  1.0821
14468TIP3    H264820   5.113   1.422   1.612  0.4930 -0.1057 -0.8118
14469TIP3   OH264821   0.774   6.593   5.291  0.3035 -0.7731  0.4415
14469TIP3    H164822   0.861   6.558   5.308  0.5716 -0.3990 -0.1308
14469TIP3    H264823   0.787   6.657   5.221  0.1147  1.6271  2.4300
14470TIP3   OH264824   4.814   4.371  17.181 -0.4922 -0.1463  0.2292
14470TIP3    H164825   4.809   4.433  17.253  1.0088 -0.6913  0.8484
14470TIP3    H264826   4.843   4.424  17.106 -2.1037  0.4281 -0.0244
14471TIP3   OH264827   5.373   0.062   4.337  0.1388 -0.2444  0.1919
14471TIP3    H164828   5.468   0.066   4.328  0.1862  1.2170  1.0452
14471TIP3    H264829   5.345   0.153   4.338 -1.3157 -0.6571 -0.3347
14472TIP3   OH264830   0.868   2.386   2.008  0.6595 -0.2838  0.1340
14472TIP3    H164831   0.906   2.467   1.976  0.7237 -0.8535 -1.2873
14472TIP3    H264832   0.940   2.341   2.052  0.6623  0.3446  0.7807
14473TIP3   OH264833   1.473   6.102   1.435  0.2123 -0.1971 -0.5268
14473TIP3    H164834   1.478   6.184   1.387  2.9857  1.2004  1.8164
14473TIP3    H264835   1.558   6.095   1.479 -0.4589 -3.6206  0.5327
14474TIP3   OH264836   1.450   5.568  16.773 -0.4110 -0.2511 -0.7227
14474TIP3    H164837   1.356   5.564  16.754 -0.9934  0.2628  1.6219
14474TIP3    H264838   1.463   5.655  16.810  0.5492 -1.0246  0.8598
14475TIP3   OH264839   4.060   2.964   4.489 -0.8607  0.7850  0.5046
14475TIP3    H164840   3.993   3.027   4.515 -1.4207  1.2687 -1.9266
14475TIP3    H264841   4.126   3.017   4.444  0.6118  0.1371  1.7965
14476TIP3   OH264842   4.433   4.603  14.877 -0.3118  0.2933  0.3123
14476TIP3    H164843   4.518   4.593  14.834  0.8548 -0.9799  2.7041
14476TIP3    H264844   4.390   4.519  14.864 -0.7391  0.5545  0.0348
14477TIP3   OH264845   2.996   0.921   6.402  0.4693 -0.5629  0.1448
14477TIP3    H164846   3.086   0.887   6.407  1.3797  1.5102 -0.7288
14477TIP3    H264847   2.988   0.978   6.479  0.6330  0.7564 -0.7713
14478TIP3   OH264848   1.258   1.235  11.145 -0.2303 -0.0139  0.2381
14478TIP3    H164849   1.298   1.264  11.064 -0.0575  0.2440  0.4125
14478TIP3    H264850   1.188   1.298  11.162  0.1441  0.3103  0.6163
14479TIP3   OH264851   2.067   1.841   1.892 -0.0247 -0.0085  0.5294
14479TIP3    H164852   2.124   1.917   1.907 -0.2398  0.1051  0.7930
14479TIP3    H264853   2.080   1.819   1.800 -0.0115  0.3913  0.4327
14480TIP3   OH264854   1.051   0.977   0.417  0.3698  0.1905 -0.4604
14480TIP3    H164855   1.122   1.021   0.464  1.0863 -1.9847  0.6554
14480TIP3    H264856   1.079   0.977   0.326  0.0696  2.4491 -0.5981
14481TIP3   OH264857   0.911   2.964   1.537 -0.0028  0.5535  0.1067
14481TIP3    H164858   0.944   2.875   1.531 -1.4059  0.0942 -1.6277
14481TIP3    H264859   0.989   3.019   1.531  0.6617 -0.5008 -2.8734
14482TIP3   OH264860   3.819   2.134   0.533  0.7105 -0.4005 -0.2077
14482TIP3    H164861   3.881   2.095   0.472 -0.2975 -0.0648 -1.4897
14482TIP3    H264862   3.734   2.100   0.506 -0.0585  1.6650 -0.6116
14483TIP3   OH264863   4.158   2.936  14.464 -0.1369 -0.0321 -0.6365
14483TIP3    H164864   4.141   2.925  14.558  0.7180  0.0316 -0.4669
14483TIP3    H264865   4.219   2.865  14.443  0.1531  0.3288 -1.0140
14484TIP3   OH264866   1.858   1.396  12.757  0.3440  0.0365 -0.1931
14484TIP3    H164867   1.783   1.346  12.788  1.0390 -0.8147  0.1362
14484TIP3    H264868   1.830   1.431  12.672 -0.0002 -1.2474 -0.6223
14485TIP3   OH264869   3.566   2.003  13.205 -0.5760 -0.6343  0.5964
14485TIP3    H164870   3.575   1.932  13.142 -2.3161 -0.7912  0.5003
14485TIP3    H264871   3.535   2.078  13.154  1.2753  0.2580  0.6892
14486TIP3   OH264872   5.672   2.934  16.356 -0.0118  0.4111  0.5884
14486TIP3    H164873   5.748   2.917  16.301 -0.8862 -0.3044 -0.4641
14486TIP3    H264874   5.612   2.861  16.336 -1.6441  1.8213  0.1032
14487TIP3   OH264875   3.336   5.363  15.823 -0.4444  0.0266 -0.0928
14487TIP3    H164876   3.420   5.394  15.857  0.5760 -0.0736 -2.3818
14487TIP3    H264877   3.283   5.443  15.816  0.1395  0.3957 -0.4510
14488TIP3   OH264878   2.486   5.609   2.604 -0.2225 -0.4849  0.7881
14488TIP3    H164879   2.436   5.676   2.559  1.2596  0.1190 -0.0305
14488TIP3    H264880   2.571   5.608   2.560  0.3953 -1.6899  1.9109
14489TIP3   OH264881   3.847   0.025   0.044  0.2566 -0.1737  0.4135
14489TIP3    H164882   3.859  -0.067   0.019  0.6916 -0.0546  0.1897
14489TIP3    H264883   3.772   0.054  -0.008 -1.8633 -1.2435  2.6433
14490TIP3   OH264884   0.415   4.051  17.322  0.2371  0.2721 -0.5037
14490TIP3    H164885   0.481   4.002  17.369  0.0814  0.3762 -0.1731
14490TIP3    H264886   0.422   4.140  17.357 -0.5484  0.1301  0.0508
14491TIP3   OH264887   1.998   1.805  14.897  0.4506  0.4596  0.0400
14491TIP3    H164888   1.954   1.733  14.851 -0.7030 -1.0120  3.1873
14491TIP3    H264889   1.978   1.883  14.844 -0.3017 -1.1514 -2.1896
14492TIP3   OH264890   0.402   0.269  16.294 -0.4045 -0.0572 -0.1506
14492TIP3    H164891   0.382   0.253  16.202  1.7154 -0.9959 -0.4936
14492TIP3    H264892   0.465   0.202  16.317  0.2561  1.0912  1.5772
14493TIP3   OH264893   5.427   0.439   4.699  0.3484 -0.1834  0.1801
14493TIP3    H164894   5.361   0.500   4.732 -0.8341 -0.6824 -1.1113
14493TIP3    H264895   5.511   0.479   4.720 -0.3841  0.9681  0.9966
14494TIP3   OH264896   3.005   2.913  12.876  0.4691 -0.4836  0.4439
14494TIP3    H164897   2.919   2.901  12.917  0.1464 -0.4279 -0.2069
14494TIP3    H264898   3.033   2.999  12.905 -0.1126 -0.1095 -0.0778
14495TIP3   OH264899   6.419   3.815  12.692 -0.0612  1.0838 -0.6956
14495TIP3    H164900   6.480   3.884  12.667  0.6272  0.5438 -0.5273
14495TIP3    H264901   6.474   3.747  12.731 -1.0559  1.7498  2.0460
14496TIP3   OH264902   4.445   1.057   0.929  0.5397 -0.0556  0.4142
14496TIP3    H164903   4.438   1.003   0.850 -1.5358 -0.7321  0.9711
14496TIP3    H264904   4.536   1.048   0.957  1.1150 -0.4451 -1.4368
14497TIP3   OH264905   3.010   2.402   5.860 -0.4149  0.4909  0.0265
14497TIP3    H164906   2.990   2.351   5.781  2.7331 -1.7092  0.4625
14497TIP3    H264907   3.020   2.336   5.929  2.0443  1.8029  1.0462
14498TIP3   OH264908   6.647   0.523  14.857  0.0513  0.1724 -0.1454
14498TIP3    H164909   6.641   0.612  14.891  0.5309  0.5848 -1.0916
14498TIP3    H264910   6.587   0.472  14.911  0.1565  0.9603  0.7460
14499TIP3   OH264911   6.562   6.340   3.738 -0.1935  0.1161  0.1227
14499TIP3    H164912   6.516   6.333   3.654  0.8133 -0.6450 -0.3894
14499TIP3    H264913   6.495   6.324   3.804 -1.0535  0.9773 -0.5130
14500TIP3   OH264914   5.256   3.875  15.304  0.1093 -0.2038  0.3510
14500TIP3    H164915   5.268   3.850  15.212 -0.1688 -2.0844  0.7805
14500TIP3    H264916   5.234   3.968  15.301 -0.1596 -0.2851 -1.5036
14501TIP3   OH264917   4.526   5.620   2.701  0.1339  0.4930 -0.0737
14501TIP3    H164918   4.542   5.610   2.607  0.6792 -1.9869  0.2222
14501TIP3    H264919   4.600   5.670   2.733  2.6546 -2.7745 -0.2807
14502TIP3   OH264920   2.015   0.809  13.641  0.2630 -0.4985 -0.0753
14502TIP3    H164921   2.069   0.879  13.677  0.2046  0.4619 -1.7790
14502TIP3    H264922   2.026   0.816  13.546 -3.9888  0.7045 -0.6762
14503TIP3   OH264923   4.881   2.574   4.871 -0.5796  0.1890  0.3991
14503TIP3    H164924   4.893   2.582   4.966  0.7265  0.6490  0.2159
14503TIP3    H264925   4.931   2.496   4.847  0.9709  1.3145 -0.1942
14504TIP3   OH264926   4.354   5.561  11.876  0.4258  0.1926 -0.9459
14504TIP3    H164927   4.327   5.652  11.890  0.1754  0.2502 -1.7428
14504TIP3    H264928   4.297   5.530  11.805  1.3569 -0.1969 -1.5332
14505TIP3   OH264929   2.868   0.794   1.593 -0.4540  0.6556 -0.0566
14505TIP3    H164930   2.793   0.818   1.539 -0.0192 -0.1420 -1.0489
14505TIP3    H264931   2.870   0.699   1.591  2.1001  0.6525 -2.2684
14506TIP3   OH264932   5.304   5.679  10.926 -0.6404  0.2517  0.2708
14506TIP3    H164933   5.374   5.740  10.902 -0.2208  0.0811  1.0316
14506TIP3    H264934   5.273   5.644  10.842 -0.9452  1.5667 -0.1915
14507TIP3   OH264935   4.598   4.728  13.425 -0.7900 -0.4693 -0.2279
14507TIP3    H164936   4.512   4.753  13.460 -1.2295  1.3745 -2.3541
14507TIP3    H264937   4.659   4.747  13.496 -2.0064 -0.5776  0.8790
14508TIP3   OH264938   5.766   6.572   4.000  0.1700 -0.8341 -0.1434
14508TIP3    H164939   5.777   6.499   3.940 -2.1258  0.0306 -1.7451
14508TIP3    H264940   5.698   6.627   3.960  0.3297  1.1108  2.0104
14509TIP3   OH264941   3.886   4.948  16.206  0.6269  0.0056  0.1329
14509TIP3    H164942   3.882   4.882  16.137 -0.7081 -0.6356  0.7976
14509TIP3    H264943   3.893   5.032  16.160 -0.3316 -0.4057 -0.7835
14510TIP3   OH264944   1.023   1.144  10.892  0.1554 -0.3030  0.0515
14510TIP3    H164945   0.984   1.130  10.979 -1.7126  0.8074 -0.5564
14510TIP3    H264946   1.011   1.060  10.847 -2.2384  0.1806 -0.3325
14511TIP3   OH264947   5.006   4.371   5.988 -0.2800 -0.0728 -0.0297
14511TIP3    H164948   5.026   4.383   6.081  0.5962 -1.0652 -0.0608
14511TIP3    H264949   5.049   4.288   5.966  0.1496  0.5233 -1.5012
14512TIP3   OH264950   2.972   0.461  12.247  0.0444 -0.7959 -0.0166
14512TIP3    H164951   2.919   0.396  12.293 -2.7890  2.1680  1.2884
14512TIP3    H264952   3.017   0.509  12.317 -1.8620  1.7566 -0.3910
14513TIP3   OH264953   3.180   1.070  12.199 -0.3289  0.5302 -0.1154
14513TIP3    H164954   3.222   0.986  12.218 -0.5314  0.8676  2.1150
14513TIP3    H264955   3.099   1.046  12.153  1.0891 -0.2492 -2.3693
14514TIP3   OH264956   1.612   5.451   3.662 -0.4742 -0.3950  0.3167
14514TIP3    H164957   1.626   5.466   3.755  1.5312 -1.4127  0.2385
14514TIP3    H264958   1.518   5.437   3.654 -0.7013 -0.2000  2.1591
14515TIP3   OH264959   4.600   1.607   1.062  0.0236  0.3244 -0.3389
14515TIP3    H164960   4.675   1.567   1.107  0.3169  1.9155  0.6717
14515TIP3    H264961   4.612   1.701   1.074 -1.4198  0.6719 -1.3492
14516TIP3   OH264962   2.887   3.423   1.045 -0.1104 -0.0599 -0.0225
14516TIP3    H164963   2.899   3.459   1.133 -0.1786  3.2763 -1.2563
14516TIP3    H264964   2.976   3.410   1.012 -0.0554  0.7638 -0.2134
14517TIP3   OH264965   2.677   1.004  15.428  0.0450  0.1705 -0.2989
14517TIP3    H164966   2.701   0.939  15.493  0.8657  0.7329 -0.0249
14517TIP3    H264967   2.726   1.082  15.452 -1.1661  1.0020 -0.4371
14518TIP3   OH264968   3.441   3.936  16.524  0.2379 -0.4075  0.6873
14518TIP3    H164969   3.370   3.875  16.505  1.6885 -1.7638 -0.6030
14518TIP3    H264970   3.457   3.926  16.618 -0.7073 -0.6886  0.8270
14519TIP3   OH264971   3.887   0.003   2.119  0.2268 -0.2205 -0.5893
14519TIP3    H164972   3.815  -0.015   2.057 -0.9398  0.8948  0.3896
14519TIP3    H264973   3.934  -0.080   2.125 -2.6941 -1.9424  0.8661
14520TIP3   OH264974   5.084   5.169  17.335  0.0950 -0.5234 -0.4420
14520TIP3    H164975   5.142   5.099  17.367  0.1157 -0.0901  0.5014
14520TIP3    H264976   5.129   5.205  17.259  0.6168 -0.8162 -0.2762
14521TIP3   OH264977   1.706   0.408   4.181  0.7506 -0.4152  0.3936
14521TIP3    H164978   1.739   0.370   4.263  2.0935  1.9583  1.0441
14521TIP3    H264979   1.717   0.338   4.117  1.4874 -1.7000  1.8325
14522TIP3   OH264980   3.370   4.202   5.106 -0.2696 -0.7224  0.0079
14522TIP3    H164981   3.422   4.164   5.176 -1.0206  0.4868  1.2880
14522TIP3    H264982   3.431   4.256   5.056  0.4588 -2.2948 -0.8533
14523TIP3   OH264983   2.652   1.636   2.889 -0.0155  0.1475 -0.3753
14523TIP3    H164984   2.735   1.597   2.864  0.6018  1.0007  0.2915
14523TIP3    H264985   2.602   1.565   2.929  0.4269 -0.3445 -0.6990
14524TIP3   OH264986   6.748   2.103  14.601 -0.5808 -0.6266  0.0465
14524TIP3    H164987   6.785   2.183  14.563  0.1102 -1.4001 -0.9851
14524TIP3    H264988   6.679   2.134  14.659 -0.7504  0.6894 -0.8041
14525TIP3   OH264989   1.981   3.181  15.723 -0.3131  0.2751 -0.2737
14525TIP3    H164990   1.997   3.276  15.727  0.2949  0.1970 -0.7977
14525TIP3    H264991   1.885   3.174  15.723 -0.3768  0.9376 -1.1154
14526TIP3   OH264992   5.550   5.402   3.365  0.2824  0.2325 -0.4194
14526TIP3    H164993   5.492   5.332   3.395  1.7268 -0.9626 -0.3193
14526TIP3    H264994   5.517   5.481   3.409  0.0952 -0.8100  1.4049
14527TIP3   OH264995   3.139   2.167  10.746 -0.5492 -0.3588  0.6272
14527TIP3    H164996   3.143   2.262  10.756  1.0688 -0.5020  1.7582
14527TIP3    H264997   3.069   2.139  10.805 -0.6514  0.0730  0.7131
14528TIP3   OH264998   6.059   1.968  11.478 -0.1345  0.1544  0.5739
14528TIP3    H164999   6.074   1.890  11.424 -2.0017 -0.2727  0.6087
14528TIP3    H265000   6.126   1.962  11.547 -0.7189 -1.8552  1.0427
14529TIP3   OH265001   6.058   4.236   6.065  0.3444  0.7119  0.2662
14529TIP3    H165002   6.018   4.202   5.984  2.2422  1.6941 -1.1687
14529TIP3    H265003   6.147   4.202   6.062  0.0728 -0.3853  2.7241
14530TIP3   OH265004   4.076   2.186   5.886  0.6042 -0.2276 -0.5696
14530TIP3    H165005   4.136   2.156   5.954  0.0652  0.6746  0.3303
14530TIP3    H265006   3.989   2.172   5.923  0.2499 -1.0457 -1.6556
14531TIP3   OH265007   3.809   4.742  13.105 -0.1333 -0.3599 -0.0328
14531TIP3    H165008   3.851   4.656  13.101  2.3725  0.8038 -1.8934
14531TIP3    H265009   3.746   4.742  13.034 -0.0258 -0.6267 -0.1281
14532TIP3   OH265010   5.017   0.145   5.012 -0.1118  0.4955 -0.0943
14532TIP3    H165011   5.069   0.199   4.953  0.0023 -1.0995 -1.4991
14532TIP3    H265012   5.072   0.069   5.031 -0.7523  0.2407  0.8608
14533TIP3   OH265013   3.582   1.285  14.534 -0.0601  0.1788 -0.5545
14533TIP3    H165014   3.619   1.368  14.564  0.4315 -0.5038  0.8283
14533TIP3    H265015   3.655   1.223  14.540 -0.6623 -0.5483 -0.6528
14534TIP3   OH265016   0.420   3.208  11.363  0.2509  0.4202 -0.1847
14534TIP3    H165017   0.402   3.133  11.306  0.2192  1.1264 -1.1307
14534TIP3    H265018   0.468   3.269  11.307  1.1786  0.6805  0.8684
14535TIP3   OH265019   2.217   6.223  11.801  0.2055  0.8631 -0.5029
14535TIP3    H165020   2.123   6.208  11.793 -0.2685  1.4338  2.7571
14535TIP3    H265021   2.257   6.154  11.748 -2.0229 -2.2052  1.4593
14536TIP3   OH265022   2.667   0.575  13.681  0.3876  0.3018 -0.4217
14536TIP3    H165023   2.641   0.572  13.773  1.6784 -1.8398 -0.0734
14536TIP3    H265024   2.748   0.627  13.681  0.2192  0.5675 -0.4083
14537TIP3   OH265025   3.804   5.756   0.714  0.0842 -0.1852 -0.2205
14537TIP3    H165026   3.723   5.770   0.665 -1.4054 -2.2010  1.4493
14537TIP3    H265027   3.845   5.681   0.671  1.6715  1.4038 -1.6547
14538TIP3   OH265028   0.238   2.197  11.823  0.6027  0.4975 -0.2681
14538TIP3    H165029   0.191   2.276  11.851  2.1215  1.5425 -0.5579
14538TIP3    H265030   0.210   2.185  11.732  0.3537  0.6858 -0.2217
14539TIP3   OH265031   6.460   2.534   5.547  0.0225 -0.3470 -0.2393
14539TIP3    H165032   6.455   2.470   5.618  1.1988 -0.4442 -0.2294
14539TIP3    H265033   6.428   2.615   5.586  0.8726 -0.3446  0.4762
14540TIP3   OH265034   5.637   6.637  16.225  0.1080  0.7336  0.1102
14540TIP3    H165035   5.689   6.681  16.157 -0.0503  0.1631 -0.3820
14540TIP3    H265036   5.574   6.703  16.253  1.3339  1.5723  0.9927
14541TIP3   OH265037   6.138   1.087   4.948 -0.1180  0.8151 -0.0810
14541TIP3    H165038   6.051   1.111   4.982 -0.0232 -1.3533  1.9758
14541TIP3    H265039   6.122   1.008   4.897  0.7359 -0.1686  1.1316
14542TIP3   OH265040   5.371   2.797  13.346  0.6770 -0.2554  0.1184
14542TIP3    H165041   5.286   2.798  13.302  0.6833 -1.5427  0.0274
14542TIP3    H265042   5.382   2.886  13.379 -0.5734  0.0087 -0.1143
14543TIP3   OH265043   1.252   0.975   4.543 -0.2920 -0.1803  0.3439
14543TIP3    H165044   1.249   1.055   4.595 -0.9111  0.0170  0.0116
14543TIP3    H265045   1.265   1.005   4.453  3.1531 -0.5825  0.5616
14544TIP3   OH265046   3.234   6.055  13.788 -0.0971 -0.2740 -0.4081
14544TIP3    H165047   3.168   6.076  13.854 -0.8573 -3.3691 -0.0155
14544TIP3    H265048   3.246   6.136  13.740 -0.8172  1.6390  2.3798
14545TIP3   OH265049   0.230   5.196  16.546 -0.1526 -0.3664 -0.3098
14545TIP3    H165050   0.188   5.110  16.554 -1.7112  0.4676  1.1820
14545TIP3    H265051   0.258   5.217  16.636 -0.3293  0.9309 -0.5380
14546TIP3   OH265052   0.830   3.165   6.602 -0.0272  0.1314  0.0317
14546TIP3    H165053   0.769   3.108   6.556  0.4419  0.3915 -0.9319
14546TIP3    H265054   0.885   3.105   6.653 -0.4663 -0.1674  0.1627
14547TIP3   OH265055   4.414   4.944   4.748 -0.8665 -0.4518 -0.2270
14547TIP3    H165056   4.399   4.998   4.825 -0.7830 -0.7048 -0.0324
14547TIP3    H265057   4.438   5.006   4.679  0.3909 -0.3293  0.2929
14548TIP3   OH265058   4.637   5.134  14.528 -0.2190  0.1028 -0.2846
14548TIP3    H165059   4.608   5.222  14.552 -0.6651 -0.1176 -0.0021
14548TIP3    H265060   4.596   5.076  14.592  2.1335 -0.0994  1.1878
14549TIP3   OH265061   4.536   0.955   4.613  0.3573  0.4239  0.4631
14549TIP3    H165062   4.626   0.952   4.581  0.3175 -0.1604  0.4023
14549TIP3    H265063   4.485   0.983   4.537  0.0343 -2.5806 -0.5340
14550TIP3   OH265064   4.014   3.997  15.489  0.0762 -0.4869 -0.0833
14550TIP3    H165065   4.036   4.074  15.438  0.7160 -1.7677 -1.8300
14550TIP3    H265066   3.930   4.018  15.530 -0.6629  0.4491 -1.9822
14551TIP3   OH265067   2.269   4.553   1.097  0.6330 -0.1742  0.6259
14551TIP3    H165068   2.173   4.555   1.098  0.6258 -0.7862  1.3102
14551TIP3    H265069   2.292   4.467   1.132  1.4150 -0.7095 -1.1070
14552TIP3   OH265070   2.230   3.100  16.253  0.6383 -0.0529  0.3387
14552TIP3    H165071   2.276   3.029  16.297  1.3556 -0.4113 -0.9502
14552TIP3    H265072   2.274   3.180  16.283  1.6430 -0.3445 -0.3072
14553TIP3   OH265073   3.077   3.822  14.845  0.2155  0.5161  0.2909
14553TIP3    H165074   3.113   3.902  14.806  0.2382  0.5612  0.4033
14553TIP3    H265075   3.084   3.836  14.940  1.7869 -0.3107  0.3393
14554TIP3   OH265076   6.466   2.953  11.271  0.2744  0.1747  0.8679
14554TIP3    H165077   6.383   2.918  11.303 -0.1186 -0.7639 -1.0314
14554TIP3    H265078   6.442   3.036  11.230  0.4820  0.4959  1.3912
14555TIP3   OH265079   3.902   0.309   0.082 -0.4972 -0.1324  0.3222
14555TIP3    H165080   3.904   0.297   0.177 -0.1646 -0.8471  0.2300
14555TIP3    H265081   3.909   0.221   0.046  0.7255  0.2182 -0.3742
14556TIP3   OH265082   1.755   4.201  11.354  0.0009  0.1722  1.0240
14556TIP3    H165083   1.836   4.181  11.306 -1.4382 -2.0288 -0.6753
14556TIP3    H265084   1.751   4.296  11.356  2.3522  0.3437  0.7120
14557TIP3   OH265085   4.083   1.080   4.961  0.2710 -0.6441 -0.3176
14557TIP3    H165086   4.140   1.117   4.894 -0.1437  1.9203  0.5961
14557TIP3    H265087   4.118   1.115   5.043 -1.1918 -0.9806  0.4817
14558TIP3   OH265088   2.109   4.357  16.348  0.6273 -0.0580 -0.3786
14558TIP3    H165089   2.129   4.440  16.391 -0.0841  0.4567 -0.9993
14558TIP3    H265090   2.120   4.376  16.254 -2.3153  0.1805 -0.7474
14559TIP3   OH265091   1.854   2.407   1.077  0.2108 -0.0822 -0.2478
14559TIP3    H165092   1.872   2.418   0.983  1.1909 -0.5954 -0.1364
14559TIP3    H265093   1.933   2.440   1.120  0.8235 -2.0690  0.2759
14560TIP3   OH265094   0.157   5.395  12.075  0.7153  0.4196  0.0798
14560TIP3    H165095   0.141   5.320  12.132  2.8053  0.0692  0.2695
14560TIP3    H265096   0.127   5.367  11.989 -0.3452  0.1275  0.5154
14561TIP3   OH265097   3.232   5.629   3.454 -0.1669 -0.1208  0.0893
14561TIP3    H165098   3.324   5.616   3.429 -0.0658  1.1199 -0.2248
14561TIP3    H265099   3.206   5.544   3.491  1.4002 -0.2141  1.1233
14562TIP3   OH265100   1.400   1.358  13.167 -0.7492 -0.2179 -0.1334
14562TIP3    H165101   1.309   1.329  13.159 -0.6273 -0.7428  0.2764
14562TIP3    H265102   1.437   1.344  13.080 -0.5070 -2.0067  0.2105
14563TIP3   OH265103   2.093   2.895  14.876 -0.3210 -0.0545  0.4159
14563TIP3    H165104   2.060   2.877  14.788  0.0563  1.1082  0.0197
14563TIP3    H265105   2.184   2.920  14.863  0.2283 -1.4315  1.3135
14564TIP3   OH265106   2.358   2.454  11.342  0.1384 -0.0260 -0.3419
14564TIP3    H165107   2.391   2.466  11.253 -0.2333  0.9476 -0.3553
14564TIP3    H265108   2.390   2.367  11.368  2.3400  0.6760 -0.5091
14565TIP3   OH265109   4.981   2.212   2.582 -0.6043 -1.2286  0.2824
14565TIP3    H165110   5.066   2.173   2.603  0.3255  1.2497  1.5244
14565TIP3    H265111   4.999   2.270   2.507 -1.5253 -1.7532 -0.3609
14566TIP3   OH265112   1.463   5.020  12.620 -0.4130 -0.2762 -0.0243
14566TIP3    H165113   1.465   5.060  12.533  2.4994 -0.3357 -0.0853
14566TIP3    H265114   1.423   4.935  12.607  2.9691 -1.7695 -2.1447
14567TIP3   OH265115   2.707   5.351  12.251  0.8513 -0.5801 -0.7065
14567TIP3    H165116   2.780   5.404  12.281  0.9345 -0.7447 -0.6182
14567TIP3    H265117   2.708   5.274  12.307  0.6641 -0.6249 -0.7611
14568TIP3   OH265118   3.120   3.782   0.182  0.3955  0.5733 -0.4626
14568TIP3    H165119   3.113   3.733   0.100  1.1132  1.2192 -0.9209
14568TIP3    H265120   3.065   3.733   0.243  2.6870 -2.0340 -0.2994
14569TIP3   OH265121   4.851   0.744   1.169  0.3934 -0.2800 -0.4390
14569TIP3    H165122   4.867   0.659   1.128 -0.1699  0.8543 -3.2659
14569TIP3    H265123   4.938   0.784   1.176  0.4250 -0.1563 -1.4003
14570TIP3   OH265124   6.084   6.191   0.419 -0.1413 -0.1693 -0.6644
14570TIP3    H165125   6.045   6.107   0.443  0.5903 -0.2443  0.3527
14570TIP3    H265126   6.010   6.251   0.412 -0.5974 -0.7214 -0.6175
14571TIP3   OH265127   4.298   4.172   4.953  0.0053  0.0206 -0.6975
14571TIP3    H165128   4.390   4.171   4.980 -0.3280 -0.0937  0.5127
14571TIP3    H265129   4.250   4.145   5.032 -1.3016  2.9523 -0.3505
14572TIP3   OH265130   2.525   3.787  12.857 -0.0896  0.3479 -0.1281
14572TIP3    H165131   2.476   3.710  12.828 -1.1163  0.9914 -0.1373
14572TIP3    H265132   2.526   3.780  12.953  1.3596 -0.5902 -0.1800
14573TIP3   OH265133   1.982   4.813   3.781  0.3034  0.2862 -1.3670
14573TIP3    H165134   1.894   4.833   3.748  0.1843 -1.6096 -2.3393
14573TIP3    H265135   1.966   4.767   3.863  0.1174 -3.1026 -3.1320
14574TIP3   OH265136   6.743   1.670   4.459  0.2084 -0.2178  0.2128
14574TIP3    H165137   6.811   1.603   4.450 -0.5787 -1.5148  2.8045
14574TIP3    H265138   6.661   1.621   4.456 -0.5309  1.0092 -0.4391
14575TIP3   OH265139   1.025   1.957  12.650  0.2021  0.2237 -0.8637
14575TIP3    H165140   0.943   1.973  12.698  1.1706  1.8361  0.3656
14575TIP3    H265141   1.000   1.961  12.558 -0.8311  2.7952 -0.5641
14576TIP3   OH265142   2.082   2.551   1.125  0.0788  0.4689 -0.0343
14576TIP3    H165143   2.073   2.626   1.066  1.0353  2.0383  1.6972
14576TIP3    H265144   2.088   2.590   1.213  0.6762 -1.6405  0.9369
14577TIP3   OH265145   4.116   5.211   4.821 -0.4069  0.4153 -0.6800
14577TIP3    H165146   4.089   5.204   4.729  0.0447  2.3961 -1.0181
14577TIP3    H265147   4.183   5.279   4.821  0.7108 -0.6220  0.9278
14578TIP3   OH265148   5.685   3.630  12.109  0.6123  0.3606 -0.3191
14578TIP3    H165149   5.723   3.702  12.160 -2.0322  3.1487 -1.9027
14578TIP3    H265150   5.718   3.643  12.020 -0.5666  0.1776 -0.8008
14579TIP3   OH265151   1.497   4.512  12.298  0.0236 -0.1970  0.2528
14579TIP3    H165152   1.496   4.418  12.278 -2.7136  0.4059 -3.6197
14579TIP3    H265153   1.407   4.532  12.324  0.4563  1.4493  0.6058
14580TIP3   OH265154   5.550   2.337   5.741  0.3361  0.5646  0.3332
14580TIP3    H165155   5.480   2.277   5.715 -0.6408  0.5180  2.7674
14580TIP3    H265156   5.542   2.411   5.681  0.4837 -0.9696 -1.6449
14581TIP3   OH265157   4.627   0.767  14.450 -0.1578  0.4731  0.5800
14581TIP3    H165158   4.550   0.778  14.394 -0.0250  0.7512  0.4526
14581TIP3    H265159   4.685   0.839  14.426  1.2981 -1.1770 -1.1655
14582TIP3   OH265160   5.399   6.146  16.224 -0.4665 -0.4508  0.1195
14582TIP3    H165161   5.315   6.108  16.251 -1.2168  0.9079 -0.2358
14582TIP3    H265162   5.463   6.075  16.238 -1.9490 -2.2076 -1.4959
14583TIP3   OH265163   5.062   6.765  15.842  0.0460 -0.2287 -0.4650
14583TIP3    H165164   5.127   6.749  15.774  0.3449 -1.0175  0.0007
14583TIP3    H265165   4.980   6.778  15.793 -0.2228 -3.0645 -0.9523
14584TIP3   OH265166   2.896   4.413   1.433 -0.1001 -0.5231  0.5824
14584TIP3    H165167   2.804   4.389   1.445 -0.2696 -0.6296 -0.7355
14584TIP3    H265168   2.894   4.480   1.364  0.6652  0.7869  1.7844
14585TIP3   OH265169   4.446   0.487  11.289 -0.4168 -0.2308 -0.5249
14585TIP3    H165170   4.386   0.416  11.266  0.1657 -1.2942  1.0950
14585TIP3    H265171   4.419   0.514  11.377  0.1859  0.7056 -0.6090
14586TIP3   OH265172   4.493   6.000  14.296  0.3448  0.1006  0.2714
14586TIP3    H165173   4.576   5.952  14.306 -0.0006 -0.7824 -0.7921
14586TIP3    H265174   4.438   5.969  14.368  1.0507  0.9713  1.2056
14587TIP3   OH265175   4.569   0.045   5.545  0.1620  0.5391  0.2394
14587TIP3    H165176   4.644   0.015   5.494  0.0262  0.4394  0.0983
14587TIP3    H265177   4.584   0.138   5.558 -0.6300  0.9279 -1.4237
14588TIP3   OH265178   3.959   5.814   3.659 -0.2532 -0.5973  0.3489
14588TIP3    H165179   4.019   5.819   3.585 -0.2929  2.0053  0.3983
14588TIP3    H265180   4.015   5.800   3.735  0.1989  0.5334  0.2399
14589TIP3   OH265181   0.891   3.613  12.369 -0.3649  0.1998  0.3729
14589TIP3    H165182   0.899   3.518  12.362  0.0784  0.1264  1.6505
14589TIP3    H265183   0.971   3.647  12.328 -0.6339  0.0382 -0.2937
14590TIP3   OH265184   5.700   5.350   4.860 -0.0914  0.3083 -0.2402
14590TIP3    H165185   5.728   5.413   4.927  0.3243  0.3053 -0.4122
14590TIP3    H265186   5.655   5.281   4.910  0.6162  0.0751  0.0947
14591TIP3   OH265187   1.379   3.723  17.114 -0.1421 -0.5137  0.2187
14591TIP3    H165188   1.345   3.678  17.191  0.1074  0.3604  0.8470
14591TIP3    H265189   1.308   3.715  17.049 -1.0339  0.1490  1.0804
14592TIP3   OH265190   6.299   2.299   1.334 -0.0586  0.0005 -0.9965
14592TIP3    H165191   6.278   2.381   1.290 -1.0232  1.1755  1.4644
14592TIP3    H265192   6.224   2.242   1.317  0.4433 -0.2790 -2.3927
14593TIP3   OH265193   2.082   3.360   2.743  0.2209  0.1466 -0.3534
14593TIP3    H165194   2.121   3.378   2.657 -0.1662  1.4689 -0.2779
14593TIP3    H265195   1.990   3.340   2.723  0.0169  0.9136 -0.2298
14594TIP3   OH265196   0.116   6.464  14.759 -0.2620  0.1586 -0.1938
14594TIP3    H165197   0.057   6.422  14.698 -0.7641  0.3022  0.1856
14594TIP3    H265198   0.174   6.518  14.704 -2.6782  2.7841 -0.4036
14595TIP3   OH265199   1.041   2.717   0.965 -0.0738  0.5620  0.1342
14595TIP3    H165200   0.998   2.779   1.024 -0.4925  0.9714 -0.5940
14595TIP3    H265201   0.990   2.721   0.884  0.2749 -0.2634 -0.1392
14596TIP3   OH265202   0.588   0.874  11.920 -0.0158  0.3244 -0.0932
14596TIP3    H165203   0.615   0.914  11.837 -0.6956 -0.5286 -0.7481
14596TIP3    H265204   0.619   0.783  11.914 -0.1228  0.2393  0.5610
14597TIP3   OH265205   2.230   1.637  16.826  0.4707 -0.0567 -0.1036
14597TIP3    H165206   2.170   1.663  16.896 -1.0560 -0.4854 -1.2232
14597TIP3    H265207   2.216   1.543  16.816 -1.0999  0.3432 -2.5243
14598TIP3   OH265208   0.829   1.880   5.354  0.0020  0.6278  0.1522
14598TIP3    H165209   0.776   1.948   5.395  0.9686  1.0464  0.7069
14598TIP3    H265210   0.764   1.824   5.310 -0.9110  1.0903  0.8713
14599TIP3   OH265211   6.222   0.144  11.874  0.4217 -0.3559  0.4672
14599TIP3    H165212   6.130   0.168  11.889  0.4304 -0.1914  0.2671
14599TIP3    H265213   6.223   0.111  11.784  0.5227 -0.5498  0.5392
14600TIP3   OH265214   4.398   0.972  13.459 -0.3717  0.0848  0.2584
14600TIP3    H165215   4.445   0.911  13.401  1.9954  1.2499  0.8155
14600TIP3    H265216   4.440   0.960  13.544 -2.3361 -0.0414  1.2573
14601TIP3   OH265217   0.851   1.097  12.024 -0.1366 -0.1023  0.0593
14601TIP3    H165218   0.792   1.034  12.066 -1.3551  0.8709 -0.1332
14601TIP3    H265219   0.881   1.052  11.945 -1.0913 -0.4101 -0.1478
14602TIP3   OH265220   6.061   1.648   6.169  0.3601 -0.3028 -0.0932
14602TIP3    H165221   6.049   1.634   6.075 -0.7787  2.0722 -0.3640
14602TIP3    H265222   6.153   1.671   6.178  0.5375 -0.8000 -0.5810
14603TIP3   OH265223   0.437   1.835  14.634 -0.1916  0.2268 -0.0340
14603TIP3    H165224   0.359   1.887  14.657 -0.1144  0.1495  0.4218
14603TIP3    H265225   0.471   1.876  14.555 -0.0434  0.9716  0.4069
14604TIP3   OH265226   6.034   2.797  13.966 -0.8928 -0.4798  0.0786
14604TIP3    H165227   5.996   2.885  13.964 -1.3584 -0.6555 -2.3608
14604TIP3    H265228   5.993   2.755  14.041 -1.5600  1.0228  0.5940
14605TIP3   OH265229   2.632   6.560   2.116  0.0120 -0.3183 -0.2493
14605TIP3    H165230   2.700   6.533   2.178 -0.0787 -0.0596 -0.0318
14605TIP3    H265231   2.618   6.483   2.060 -0.8032 -1.0086  0.8558
14606TIP3   OH265232   6.323   6.530  11.916 -0.0547 -0.2309  0.0840
14606TIP3    H165233   6.279   6.454  11.879  1.0389 -0.3901 -0.9625
14606TIP3    H265234   6.331   6.591  11.843 -0.6025  0.7611  0.8223
14607TIP3   OH265235   2.018   5.271   1.315 -0.1997 -0.3409 -0.5805
14607TIP3    H165236   2.071   5.323   1.375 -0.9896 -0.4210  0.1991
14607TIP3    H265237   1.934   5.261   1.359 -1.0833  0.2985 -2.0656
14608TIP3   OH265238   0.051   1.563   3.979 -0.6725  0.2774 -0.1104
14608TIP3    H165239   0.065   1.640   4.034  0.5440  0.6950 -0.9506
14608TIP3    H265240   0.121   1.503   4.003  0.2897  0.7431 -1.6299
14609TIP3   OH265241   2.527   4.051   6.045  0.1273 -0.0278 -1.0443
14609TIP3    H165242   2.592   4.105   6.090 -1.4532  0.8200  0.3511
14609TIP3    H265243   2.487   3.998   6.114 -1.1251 -0.0296 -1.7237
14610TIP3   OH265244   5.778   4.173   3.313 -0.2739 -0.1590  0.8416
14610TIP3    H165245   5.825   4.114   3.372 -3.7979 -0.5919  3.5576
14610TIP3    H265246   5.752   4.117   3.240 -1.9127 -1.6762  2.4549
14611TIP3   OH265247   3.049   1.136  15.277  0.4407  0.2302  0.0847
14611TIP3    H165248   2.970   1.166  15.232  0.9011  0.5591 -0.5058
14611TIP3    H265249   3.064   1.048  15.244 -0.6024 -0.4735  1.4165
14612TIP3   OH265250   1.787   0.202   4.615 -0.2533 -0.2479  0.1578
14612TIP3    H165251   1.781   0.205   4.710  0.1560 -0.1425  0.1787
14612TIP3    H265252   1.742   0.121   4.590  0.1526 -0.5753  0.4777
14613TIP3   OH265253   3.753   3.691   4.043  1.0118 -0.6569  0.5146
14613TIP3    H165254   3.720   3.762   4.098  0.9712 -1.2695  1.2977
14613TIP3    H265255   3.695   3.691   3.967  0.9417  0.0680  0.5569
14614TIP3   OH265256   1.294   2.702  12.913 -0.3134 -0.3582  0.3189
14614TIP3    H165257   1.250   2.779  12.950  0.4357 -0.1109  0.7215
14614TIP3    H265258   1.307   2.724  12.821 -2.9743 -1.3290 -0.3854
14615TIP3   OH265259   0.996   5.750   4.024 -0.0562 -0.0543 -0.2341
14615TIP3    H165260   0.928   5.769   4.089  0.2725  1.0772 -0.2110
14615TIP3    H265261   1.063   5.702   4.073  1.1226  2.4851  0.8191
14616TIP3   OH265262   4.088   2.884   1.543 -0.5643 -0.0177  0.2296
14616TIP3    H165263   4.057   2.950   1.481 -1.4701  0.5290  1.2296
14616TIP3    H265264   4.144   2.932   1.604 -1.6024 -0.0371  1.2436
14617TIP3   OH265265   4.896   4.191  16.694 -0.0096 -0.3544 -0.3734
14617TIP3    H165266   4.915   4.099  16.710  0.8590 -0.0214  0.6431
14617TIP3    H265267   4.981   4.232  16.685 -0.3574  0.5170  0.1979
14618TIP3   OH265268   6.686   3.372   3.015  0.1331 -0.0015  0.0740
14618TIP3    H165269   6.667   3.456   3.058 -2.3210 -1.2575  1.6553
14618TIP3    H265270   6.753   3.394   2.951  1.9994  2.5811  2.5990
14619TIP3   OH265271   3.656   2.374  17.178  0.2809  0.4522  0.2244
14619TIP3    H165272   3.655   2.396  17.085  1.5215  0.9203  0.3070
14619TIP3    H265273   3.564   2.357  17.199 -0.3270  2.5177 -0.5658
14620TIP3   OH265274   1.626   0.384  13.389  0.0871 -0.0465 -0.4581
14620TIP3    H165275   1.614   0.291  13.370 -1.7287  0.1310 -0.3545
14620TIP3    H265276   1.708   0.406  13.346  0.0186 -1.4503 -1.4050
14621TIP3   OH265277   4.148   4.391  11.842  0.7520  0.5295 -0.1906
14621TIP3    H165278   4.193   4.465  11.883  0.3307  0.4354  0.4378
14621TIP3    H265279   4.209   4.362  11.774  2.6167 -0.8852  1.9315
14622TIP3   OH265280   5.532   3.630   2.076 -0.2358  0.2742 -0.2101
14622TIP3    H165281   5.519   3.725   2.075 -1.6827  0.0997 -1.0413
14622TIP3    H265282   5.608   3.615   2.020 -0.8790  0.8532 -1.2662
14623TIP3   OH265283   1.767   2.014   2.091  0.4759  0.5479  0.1694
14623TIP3    H165284   1.834   1.987   2.154 -0.2241  0.0179  0.6996
14623TIP3    H265285   1.729   1.931   2.060 -0.7373  0.8519  0.7661
14624TIP3   OH265286   6.714   6.628  13.604  0.5074  0.0085 -0.0681
14624TIP3    H165287   6.751   6.679  13.676 -0.1401  0.6306 -0.1719
14624TIP3    H265288   6.621   6.619  13.626  0.3797 -0.1083 -0.6389
14625TIP3   OH265289   3.387   3.334   4.873  0.0432 -0.0644 -0.1591
14625TIP3    H165290   3.353   3.397   4.810  0.4182  1.4316  1.0682
14625TIP3    H265291   3.440   3.274   4.822  1.1046  1.6650 -1.1473
14626TIP3   OH265292   0.759   0.597   2.443 -0.0916 -0.1907  0.2338
14626TIP3    H165293   0.667   0.619   2.427  0.0308  1.9662  2.0414
14626TIP3    H265294   0.808   0.648   2.378 -0.1299 -2.1552 -1.4450
14627TIP3   OH265295   6.333   6.642   5.382 -0.5679 -0.5822 -0.5601
14627TIP3    H165296   6.336   6.734   5.406 -0.2834 -0.2198 -1.8948
14627TIP3    H265297   6.329   6.595   5.466  0.6663  0.5807  0.1896
14628TIP3   OH265298   4.636   3.704  13.850 -0.1683  0.4214  0.4128
14628TIP3    H165299   4.565   3.761  13.881  0.1623 -0.2205  2.5150
14628TIP3    H265300   4.595   3.619  13.839 -0.2366  0.5941 -0.8508
14629TIP3   OH265301   6.525   5.638   1.803  0.2579 -0.2022 -0.4485
14629TIP3    H165302   6.475   5.556   1.806  1.0104 -0.6867  2.6466
14629TIP3    H265303   6.466   5.703   1.841  0.1206  0.4726 -1.7495
14630TIP3   OH265304   3.161   6.384  12.363 -0.0784  0.2092  0.0600
14630TIP3    H165305   3.088   6.409  12.306  0.1794 -0.5323 -0.6115
14630TIP3    H265306   3.126   6.395  12.452  0.1307  3.3005 -0.1072
14631TIP3   OH265307   3.104   2.516   4.383 -0.1971 -0.7649 -0.1949
14631TIP3    H165308   3.021   2.560   4.403  0.2725 -1.0426  2.9389
14631TIP3    H265309   3.157   2.584   4.341 -0.5605  0.8364  1.7380
14632TIP3   OH265310   4.981   4.164   4.064  0.2601  0.1547 -0.6234
14632TIP3    H165311   4.915   4.117   4.013 -1.7982  2.8562 -0.6479
14632TIP3    H265312   5.030   4.214   3.999  0.7236  0.0581 -0.3519
14633TIP3   OH265313   2.422   2.284  16.432  0.3419 -0.2435 -0.3743
14633TIP3    H165314   2.469   2.347  16.486  0.9326  0.0038 -1.1506
14633TIP3    H265315   2.434   2.316  16.342  0.5973 -1.4098 -0.7793
14634TIP3   OH265316   5.370   1.160  14.442 -0.1558  0.2236  0.0654
14634TIP3    H165317   5.376   1.070  14.475 -1.6640  0.2789  0.5921
14634TIP3    H265318   5.335   1.151  14.353  0.2971  0.2669 -0.1197
14635TIP3   OH265319   5.880   2.853   2.331 -0.4132 -0.4118  0.0840
14635TIP3    H165320   5.962   2.844   2.379  0.3235  0.0153 -1.0538
14635TIP3    H265321   5.849   2.763   2.318  0.0910 -0.6006  0.1767
14636TIP3   OH265322   3.904   5.739  13.274  0.4809  0.0051  0.0759
14636TIP3    H165323   3.947   5.665  13.232 -0.8271 -0.1628 -1.0494
14636TIP3    H265324   3.879   5.707  13.361  1.2250 -0.3794  0.1489
14637TIP3   OH265325   0.847   3.752  11.264  0.0873  0.2565 -0.3436
14637TIP3    H165326   0.801   3.792  11.191  0.9883  1.8258 -0.0892
14637TIP3    H265327   0.844   3.658  11.246 -2.0097  0.4124 -0.9982
14638TIP3   OH265328   2.589   1.173  17.054  0.6914  0.1137 -0.1055
14638TIP3    H165329   2.653   1.121  17.004  0.0741 -3.0607  2.0764
14638TIP3    H265330   2.504   1.134  17.030  0.2509 -0.3444  1.9984
14639TIP3   OH265331   2.400   0.969  12.585  0.0008 -0.2439 -0.1958
14639TIP3    H165332   2.399   1.046  12.529  1.0147 -1.2139 -1.6084
14639TIP3    H265333   2.493   0.948  12.596 -0.1452 -0.0037  2.0097
14640TIP3   OH265334   4.921   6.546   1.841 -0.2963  0.7396  0.2723
14640TIP3    H165335   4.864   6.545   1.917  0.8061  1.1297  1.1286
14640TIP3    H265336   4.946   6.454   1.829  0.4190  0.8162  1.0878
14641TIP3   OH265337   6.489   4.897   1.769  0.0667  0.0156  0.5349
14641TIP3    H165338   6.556   4.947   1.817  0.3286  0.2687 -0.0934
14641TIP3    H265339   6.538   4.839   1.712 -0.2277  1.2893 -1.0777
14642TIP3   OH265340   3.692   2.187  11.650  0.2659 -0.1294  0.3476
14642TIP3    H165341   3.695   2.142  11.734 -1.8298 -0.1413  0.4665
14642TIP3    H265342   3.760   2.144  11.597  1.6720 -0.0736  2.0105
14643TIP3   OH265343   5.690   2.408  13.926 -0.0571  0.3940  0.1128
14643TIP3    H165344   5.736   2.329  13.955  1.7197  1.0629 -0.7688
14643TIP3    H265345   5.613   2.375  13.879  1.3248 -0.8856 -1.3641
14644TIP3   OH265346   1.045   3.344  12.986 -0.4522  0.1866  0.3234
14644TIP3    H165347   1.040   3.429  13.030  0.1728 -0.5620  1.9341
14644TIP3    H265348   1.049   3.365  12.893 -0.6824  1.8972  0.6685
14645TIP3   OH265349   6.675   3.153  15.783  0.1655 -0.5604 -0.3853
14645TIP3    H165350   6.632   3.085  15.731 -0.1450  0.2923 -1.2863
14645TIP3    H265351   6.761   3.117  15.805 -0.6030 -1.8865  0.5728
14646TIP3   OH265352   6.255   3.895  12.210  0.5788  0.0208  0.0050
14646TIP3    H165353   6.309   3.816  12.218 -0.0072 -0.3957 -0.0991
14646TIP3    H265354   6.318   3.966  12.198  1.2241 -0.1548  2.0178
14647TIP3   OH265355   1.351   5.259  10.403 -0.3216 -0.1645  0.4584
14647TIP3    H165356   1.418   5.210  10.451 -0.1614  0.0979  0.5078
14647TIP3    H265357   1.301   5.193  10.356 -1.3808 -0.5876  2.0811
14648TIP3   OH265358   0.082   1.845   1.923 -0.5251  0.7942 -0.8090
14648TIP3    H165359  -0.013   1.844   1.939 -0.2697  0.6053  0.8661
14648TIP3    H265360   0.100   1.759   1.886 -0.7426  0.0331  0.7686
14649TIP3   OH265361   6.276   4.844  12.144 -0.0077 -0.4913  0.3277
14649TIP3    H165362   6.191   4.887  12.137  0.3602  0.0638 -0.9739
14649TIP3    H265363   6.310   4.845  12.054  1.5476 -0.3353  0.9070
14650TIP3   OH265364   5.886   4.556   2.154 -0.0967 -0.1620  0.2031
14650TIP3    H165365   5.894   4.598   2.068  0.3356 -0.0108  0.3163
14650TIP3    H265366   5.957   4.594   2.206 -2.1062  2.0288  1.5686
14651TIP3   OH265367   0.331   3.884   3.160 -0.3522  0.4670 -0.2788
14651TIP3    H165368   0.368   3.922   3.240 -0.8194 -0.3087  0.3305
14651TIP3    H265369   0.407   3.856   3.109 -0.0305 -1.5193  1.1556
14652TIP3   OH265370   4.684   3.371  14.342 -0.3071 -0.0370 -0.0424
14652TIP3    H165371   4.668   3.421  14.261  0.6440  2.5073  1.2440
14652TIP3    H265372   4.779   3.368  14.349 -0.3448  1.7467  2.0582
14653TIP3   OH265373   3.084   5.112  16.185 -0.0932  0.4312  0.1182
14653TIP3    H165374   2.997   5.134  16.153 -1.1051 -0.1299  2.2716
14653TIP3    H265375   3.078   5.020  16.210  0.4522  0.8879  2.1511
14654TIP3   OH265376   2.962   1.901  12.878 -0.0652  0.3252  0.2265
14654TIP3    H165377   2.954   1.994  12.897 -1.0423  0.0765  1.0892
14654TIP3    H265378   3.022   1.897  12.804 -0.2820  1.6565 -0.0411
14655TIP3   OH265379   2.073   4.272   0.376 -0.8892 -0.6083 -0.8195
14655TIP3    H165380   2.003   4.336   0.359 -2.1007 -1.7473 -0.3540
14655TIP3    H265381   2.134   4.318   0.433 -1.2834  0.4120 -1.1857
14656TIP3   OH265382   4.824   5.066   4.262 -0.0456  0.3256 -0.3847
14656TIP3    H165383   4.894   5.114   4.307  1.0135 -0.9977 -0.5495
14656TIP3    H265384   4.851   4.974   4.268 -2.1212 -0.2971  0.1365
14657TIP3   OH265385   2.263   0.052  14.616  0.0311 -0.2177  0.1506
14657TIP3    H165386   2.321  -0.024  14.610  1.9128  1.1145  0.7011
14657TIP3    H265387   2.314   0.117  14.664 -1.8510  1.1154  0.4280
14658TIP3   OH265388   1.006   3.353   2.039 -0.1764  0.4747  0.2161
14658TIP3    H165389   0.946   3.348   2.113  0.6153  1.4519  0.9423
14658TIP3    H265390   1.087   3.389   2.075  0.6090 -0.1159 -0.8944
14659TIP3   OH265391   3.536   5.349   1.721  0.3207 -0.6357  0.4758
14659TIP3    H165392   3.515   5.304   1.639 -1.3717 -0.7873  0.9544
14659TIP3    H265393   3.603   5.413   1.697 -1.1087  0.2886 -1.3342
14660TIP3   OH265394   3.023   3.900   2.770 -0.0615  0.0785  0.4491
14660TIP3    H165395   3.012   3.873   2.861 -0.6804  2.8427  1.2888
14660TIP3    H265396   3.116   3.921   2.763  0.1488 -0.8821  0.1748
14661TIP3   OH265397   5.522   3.161   0.551  0.5805  0.1164 -0.0538
14661TIP3    H165398   5.450   3.219   0.574 -0.3719 -2.1656  3.4106
14661TIP3    H265399   5.578   3.160   0.628  0.9316 -2.8572 -0.2296
14662TIP3   OH265400   0.268   0.991  13.040 -0.1922 -0.3219 -0.2960
14662TIP3    H165401   0.178   0.979  13.070  0.2227  0.6106  1.4981
14662TIP3    H265402   0.268   1.079  13.001  0.3603  0.5698  1.6200
14663TIP3   OH265403   0.949   3.699   4.082  0.1615 -0.1391  0.1523
14663TIP3    H165404   0.853   3.705   4.089  0.1268 -0.5138  0.0190
14663TIP3    H265405   0.976   3.787   4.054 -0.0685  0.1996  0.9725
14664TIP3   OH265406   1.840   3.682  14.777  0.5061 -0.5672 -0.8039
14664TIP3    H165407   1.781   3.658  14.705  0.2990 -0.2044 -0.7619
14664TIP3    H265408   1.890   3.756  14.742 -0.1931  0.1692 -0.2909
14665TIP3   OH265409   4.069   5.751   1.720 -0.0624  0.0606  0.3824
14665TIP3    H165410   4.004   5.716   1.781  2.1523 -2.5085  1.4653
14665TIP3    H265411   4.079   5.683   1.654  0.3952  1.1251 -0.6883
14666TIP3   OH265412   0.439   0.209  16.663 -0.2001  0.7093  0.0756
14666TIP3    H165413   0.482   0.160  16.593 -1.6320  0.6061 -0.7699
14666TIP3    H265414   0.363   0.249  16.621 -0.1528  2.0593  1.2034
14667TIP3   OH265415   3.493   3.265   3.097  0.0333 -0.1596 -0.0343
14667TIP3    H165416   3.509   3.232   3.008  1.2077 -2.2147  0.8887
14667TIP3    H265417   3.507   3.190   3.154 -1.4518  0.9153  1.8798
14668TIP3   OH265418   4.516   2.322  14.601  0.2884 -0.2635 -0.1570
14668TIP3    H165419   4.472   2.290  14.522 -1.0697  1.5972 -0.2287
14668TIP3    H265420   4.607   2.336  14.574 -0.2843  0.9391 -1.6141
14669TIP3   OH265421   1.145   3.080  10.868 -0.0081  0.0819 -0.3227
14669TIP3    H165422   1.074   3.122  10.918 -0.8033 -2.0699  0.4707
14669TIP3    H265423   1.186   3.152  10.820  0.3746  2.2110  2.8738
14670TIP3   OH265424   4.740   3.636  15.027  0.1201 -0.2378 -0.3940
14670TIP3    H165425   4.828   3.668  15.012  0.5826 -1.7418 -1.0861
14670TIP3    H265426   4.752   3.551  15.071 -1.0639  1.0076  2.6753
14671TIP3   OH265427   6.009   6.588   0.930 -0.3423 -0.9656 -0.6311
14671TIP3    H165428   5.983   6.663   0.876  2.0978 -1.5566 -2.8925
14671TIP3    H265429   5.982   6.512   0.879 -0.9717 -1.6390  0.6627
14672TIP3   OH265430   6.335   3.793  16.600 -0.2150  0.2059 -0.3443
14672TIP3    H165431   6.365   3.776  16.511  1.2415  1.0281 -0.0404
14672TIP3    H265432   6.355   3.713  16.649  0.1706  0.2297 -0.4644
14673TIP3   OH265433   6.214   4.645  16.209  0.3693 -0.0446  0.5581
14673TIP3    H165434   6.123   4.620  16.194  0.3018  0.7752 -0.5940
14673TIP3    H265435   6.265   4.570  16.179  0.1319  0.5516 -1.5301
14674TIP3   OH265436   3.096   2.386   0.067  0.3151  0.3610 -0.3109
14674TIP3    H165437   3.116   2.331  -0.009 -0.1531  0.2076 -0.3246
14674TIP3    H265438   3.171   2.374   0.125 -0.9243 -2.4274  0.8984
14675TIP3   OH265439   0.035   4.418   6.001 -0.0348 -0.1673 -0.7541
14675TIP3    H165440  -0.001   4.389   6.085 -0.0595  0.1111 -0.6662
14675TIP3    H265441  -0.041   4.449   5.952 -0.0018 -0.2015 -0.8273
14676TIP3   OH265442   4.224   2.502   4.537  0.6600 -0.3923  0.5334
14676TIP3    H165443   4.151   2.562   4.549  0.2205 -0.5175 -1.2307
14676TIP3    H265444   4.194   2.420   4.576  0.2183 -0.1896  0.6264
14677TIP3   OH265445   5.842   2.042   1.522 -0.5310 -1.2453 -0.2024
14677TIP3    H165446   5.871   1.951   1.516 -0.4414 -1.2124 -0.2787
14677TIP3    H265447   5.757   2.043   1.478 -0.0775 -1.0952 -1.1069
14678TIP3   OH265448   3.421   0.830  13.540  0.3179  0.2633 -0.8063
14678TIP3    H165449   3.431   0.735  13.540 -1.9294 -0.0211 -0.5447
14678TIP3    H265450   3.509   0.863  13.520  1.7891 -1.7402  1.7098
14679TIP3   OH265451   2.916   4.757  11.609  0.0386 -0.3158  0.3604
14679TIP3    H165452   2.927   4.769  11.515 -0.6914  1.2760  0.4553
14679TIP3    H265453   3.001   4.781  11.646 -0.2852  1.0706  0.2481
14680TIP3   OH265454   0.647   4.950  12.036  0.4025 -0.2079 -0.3562
14680TIP3    H165455   0.637   5.026  12.093  0.1694 -1.1349  0.9007
14680TIP3    H265456   0.566   4.947  11.984  0.2816  0.2216 -0.1920
14681TIP3   OH265457   0.625   6.489  15.006 -0.0360  0.2700 -0.2893
14681TIP3    H165458   0.544   6.438  14.999 -0.0863  0.2884  0.1444
14681TIP3    H265459   0.640   6.497  15.100  1.3424 -1.0894 -0.3659
14682TIP3   OH265460   4.382   3.994  13.117 -0.0363  0.0651 -0.5617
14682TIP3    H165461   4.457   4.032  13.072 -0.9229  0.7257 -1.5197
14682TIP3    H265462   4.420   3.941  13.187  1.3373 -0.1812 -1.4684
14683TIP3   OH265463   2.559   2.261   5.891  0.1976 -0.2896 -0.3680
14683TIP3    H165464   2.520   2.332   5.840  1.6951  1.1528  0.4294
14683TIP3    H265465   2.492   2.240   5.957 -1.0370 -0.9955 -1.7709
14684TIP3   OH265466   5.884   0.674   5.595  0.2283 -0.7138  0.1030
14684TIP3    H165467   5.806   0.720   5.563  0.6012 -1.0648 -1.4203
14684TIP3    H265468   5.859   0.640   5.680 -0.6638  0.7465  0.4572
14685TIP3   OH265469   6.337   0.935  13.636 -0.4301  0.0302  0.0111
14685TIP3    H165470   6.297   0.965  13.555 -2.1662 -1.4053  0.2727
14685TIP3    H265471   6.324   1.008  13.697 -0.2473  0.6167 -0.6347
14686TIP3   OH265472   2.251   5.342   3.788 -0.2486  0.0131  0.1819
14686TIP3    H165473   2.296   5.314   3.709 -0.8215  0.7863 -0.4305
14686TIP3    H265474   2.317   5.334   3.857  0.6383  0.5124 -0.5821
14687TIP3   OH265475   0.369   2.891  13.596  0.4654  0.6188 -0.3350
14687TIP3    H165476   0.424   2.854  13.527  0.3104  1.5637 -0.9895
14687TIP3    H265477   0.426   2.894  13.673 -0.1576 -3.0820  0.4665
14688TIP3   OH265478   5.561   6.418  14.795  0.1410 -0.3439 -0.1196
14688TIP3    H165479   5.615   6.341  14.782 -1.5348 -1.3880 -1.2748
14688TIP3    H265480   5.475   6.394  14.759 -0.5760  1.8752 -0.0547
14689TIP3   OH265481   0.982   4.782   0.674  0.3748  0.1708 -0.1629
14689TIP3    H165482   0.901   4.832   0.666 -0.0848 -0.8582 -2.8298
14689TIP3    H265483   0.962   4.716   0.740 -1.0122 -0.1070 -0.8232
14690TIP3   OH265484   0.225   1.241  10.344 -1.0765  0.3955 -0.6010
14690TIP3    H165485   0.188   1.328  10.329 -1.2164 -0.0930 -3.7189
14690TIP3    H265486   0.320   1.253  10.336 -1.0531  0.3628 -0.3817
14691TIP3   OH265487   1.943   4.895   2.873  0.5065  0.3035 -0.3624
14691TIP3    H165488   1.990   4.845   2.806  2.0144  0.1392  0.7761
14691TIP3    H265489   1.999   4.970   2.891 -0.6217  1.1763 -0.3567
14692TIP3   OH265490   2.644   4.345   3.069 -0.6490 -0.0061  0.2573
14692TIP3    H165491   2.567   4.393   3.102 -0.4785 -0.6964  1.7468
14692TIP3    H265492   2.683   4.307   3.147  0.0223 -1.4143 -0.7312
14693TIP3   OH265493   6.397   1.139   4.336  0.0240  0.5239 -0.0463
14693TIP3    H165494   6.470   1.112   4.279 -0.1863 -0.0782 -0.0364
14693TIP3    H265495   6.377   1.228   4.308  1.2413  0.9671  0.4366
14694TIP3   OH265496   0.604   4.403   4.212  0.5249 -0.0608  0.2184
14694TIP3    H165497   0.569   4.343   4.146  0.7802 -1.5788  1.4125
14694TIP3    H265498   0.691   4.427   4.181  1.1725 -1.7963  0.5863
14695TIP3   OH265499   1.509   4.271   4.730  0.2213 -0.0226  0.2042
14695TIP3    H165500   1.495   4.307   4.817  1.8123  0.3376  0.3498
14695TIP3    H265501   1.475   4.182   4.735 -2.7772  1.0232  0.1535
14696TIP3   OH265502   5.095   5.217   3.082  0.3518  0.0315  0.0151
14696TIP3    H165503   5.127   5.218   3.172  1.8163 -0.1576 -0.4891
14696TIP3    H265504   5.000   5.202   3.091  0.4020  0.4356  1.5267
14697TIP3   OH265505   3.691   6.069  17.317  0.4142  0.3573 -0.1377
14697TIP3    H165506   3.643   6.092  17.237  0.0326  0.0280 -0.0094
14697TIP3    H265507   3.783   6.081  17.294  0.2780  0.8753 -0.4277
14698TIP3   OH265508   4.715   6.237  15.115 -0.3455  1.2877 -0.1485
14698TIP3    H165509   4.708   6.329  15.140 -1.1489  1.7394 -1.9349
14698TIP3    H265510   4.656   6.192  15.176  0.8150  1.7825  1.3994
14699TIP3   OH265511   5.968   3.374   4.120 -0.1583  0.3216 -0.7205
14699TIP3    H165512   5.896   3.436   4.116  1.3631  2.3266  0.6389
14699TIP3    H265513   5.956   3.329   4.204 -0.9595 -0.8979 -1.4603
14700TIP3   OH265514   0.371   2.248   2.670  0.1850  0.2280  0.1590
14700TIP3    H165515   0.406   2.191   2.602  1.3470 -0.1031  1.0109
14700TIP3    H265516   0.291   2.204   2.699 -0.5254  0.5534 -1.2060
14701TIP3   OH265517   6.502   5.278   1.595 -0.1080  0.3121 -0.2189
14701TIP3    H165518   6.455   5.233   1.665  1.6676 -1.7531 -0.2735
14701TIP3    H265519   6.580   5.315   1.638  1.1934 -1.2950 -1.1017
14702TIP3   OH265520   1.161   0.509   3.348  0.0667 -0.6175 -0.4369
14702TIP3    H165521   1.247   0.543   3.371 -0.4427 -0.9170  2.2055
14702TIP3    H265522   1.179   0.444   3.279  1.9481 -0.7050  0.0704
14703TIP3   OH265523   5.681   5.829  16.671 -0.1664 -0.1989 -0.5872
14703TIP3    H165524   5.621   5.904  16.665 -0.5241 -0.4901 -0.7055
14703TIP3    H265525   5.718   5.835  16.759 -1.8866 -1.1450  0.2467
14704TIP3   OH265526   5.764   3.523  11.400 -0.4285  0.2748  0.0193
14704TIP3    H165527   5.754   3.436  11.360 -0.9433  0.3110  0.0660
14704TIP3    H265528   5.676   3.547  11.427 -0.8101  1.9727 -2.3973
14705TIP3   OH265529   1.660   5.305  12.119 -0.4545  0.0320  0.8179
14705TIP3    H165530   1.687   5.391  12.089  1.0434 -1.3008 -2.0544
14705TIP3    H265531   1.730   5.277  12.178 -1.6268  1.2383  2.8847
14706TIP3   OH265532   2.933   1.430   6.144  0.6267 -0.3141 -0.0766
14706TIP3    H165533   2.870   1.401   6.210  0.4689 -2.1871 -0.9818
14706TIP3    H265534   2.879   1.468   6.075  0.6485 -0.0579  0.0468
14707TIP3   OH265535   3.599   0.917  13.214 -0.2828  0.1870  0.0014
14707TIP3    H165536   3.551   0.846  13.173 -0.9874  0.0822  0.9929
14707TIP3    H265537   3.620   0.885  13.302 -0.7613  1.2505  0.5273
14708TIP3   OH265538   1.987   6.101   1.581  0.1100 -0.0901  0.3569
14708TIP3    H165539   1.968   6.153   1.503  0.5958 -0.8403 -0.2756
14708TIP3    H265540   1.925   6.028   1.577  1.3354 -1.1334 -0.3299
14709TIP3   OH265541   3.960   6.426   3.350 -0.1279 -0.0198  0.1318
14709TIP3    H165542   4.013   6.443   3.272  1.7119 -0.6879  1.1850
14709TIP3    H265543   3.923   6.339   3.335 -1.1098  0.5257 -0.6923
14710TIP3   OH265544   3.888   4.806  12.703 -0.2661 -0.1933 -0.5878
14710TIP3    H165545   3.978   4.773  12.704  0.0081  0.5043  0.6805
14710TIP3    H265546   3.883   4.859  12.624 -0.9938 -3.7832 -3.2101
14711TIP3   OH265547   3.664   3.792   4.602  0.2251 -0.2377  0.0841
14711TIP3    H165548   3.732   3.815   4.538  0.6229  1.4730  1.0715
14711TIP3    H265549   3.587   3.841   4.574  0.6587  1.2389  1.3927
14712TIP3   OH265550   4.677   4.202   2.899 -0.4930 -0.2078  0.1252
14712TIP3    H165551   4.763   4.225   2.864 -0.6057 -1.8686 -1.3700
14712TIP3    H265552   4.691   4.194   2.993  0.8044  0.3048  0.0011
14713TIP3   OH265553   1.382   2.039   6.029  0.0732 -0.3585  0.1380
14713TIP3    H165554   1.367   1.950   5.998  0.4177 -0.0902 -0.8244
14713TIP3    H265555   1.382   2.032   6.125  2.4964 -1.7843  0.0992
14714TIP3   OH265556   1.814   4.285   6.423 -0.2273  0.0670  0.6602
14714TIP3    H165557   1.775   4.370   6.405  2.0117  0.9869 -0.2251
14714TIP3    H265558   1.764   4.250   6.496 -2.5710  1.1723 -0.3293
14715TIP3   OH265559   4.447   3.763  11.249  0.1867  0.0049  0.5889
14715TIP3    H165560   4.476   3.689  11.195  0.3725 -0.0534  0.7655
14715TIP3    H265561   4.355   3.747  11.266  0.5386 -0.8958  1.7575
14716TIP3   OH265562   0.351   4.226   5.213 -0.1016 -0.2459  0.4912
14716TIP3    H165563   0.300   4.281   5.154  0.4751  0.0723  0.2760
14716TIP3    H265564   0.353   4.274   5.296  2.2656  1.1970 -0.3188
14717TIP3   OH265565   5.288   5.413  14.201  0.3986  0.2895  0.0676
14717TIP3    H165566   5.319   5.339  14.149  1.1751  0.6063  0.0699
14717TIP3    H265567   5.208   5.441  14.158  1.3716  0.9738 -1.3723
14718TIP3   OH265568   6.416   5.513  16.160 -0.4844 -0.5894  0.4019
14718TIP3    H165569   6.333   5.539  16.119  0.4651  0.7631 -0.7322
14718TIP3    H265570   6.392   5.495  16.252 -2.0888 -0.6116  0.0131
14719TIP3   OH265571   3.835   1.795   4.451 -0.5404 -0.3181 -0.3433
14719TIP3    H165572   3.856   1.703   4.437  1.2975 -0.0798  0.5795
14719TIP3    H265573   3.739   1.798   4.453 -0.6567 -2.0163 -1.4651
14720TIP3   OH265574   4.598   6.347  13.445  0.7230 -0.0175  0.3154
14720TIP3    H165575   4.663   6.403  13.403 -0.1075 -0.5785 -1.8412
14720TIP3    H265576   4.570   6.397  13.522  1.7413  1.4306 -0.2018
14721TIP3   OH265577   5.611   3.942   4.159 -0.0646 -0.1827  0.5093
14721TIP3    H165578   5.676   3.935   4.089  0.1544 -0.6498  0.7565
14721TIP3    H265579   5.630   3.868   4.216 -0.6879 -0.2043  0.6895
14722TIP3   OH265580   2.175   0.686  15.601 -0.1876 -0.9940 -0.0020
14722TIP3    H165581   2.094   0.692  15.651  0.8819 -0.1657  1.7304
14722TIP3    H265582   2.217   0.606  15.633 -0.0552 -1.1215 -0.4856
14723TIP3   OH265583   1.062   4.803   3.557  0.2183  0.2294  0.6022
14723TIP3    H165584   0.972   4.773   3.571 -0.3262  0.7830 -1.3206
14723TIP3    H265585   1.058   4.897   3.573 -0.4799  0.9292 -2.8440
14724TIP3   OH265586   2.146   0.973  16.498  1.0370 -0.7830 -0.3880
14724TIP3    H165587   2.073   0.977  16.436  1.1861 -1.2150 -0.5955
14724TIP3    H265588   2.182   1.062  16.499  0.6812 -0.6349 -0.4897
14725TIP3   OH265589   5.893   0.256  17.264 -0.5126  0.7665  0.1086
14725TIP3    H165590   5.855   0.195  17.326 -0.9841 -0.5604 -1.4174
14725TIP3    H265591   5.949   0.313  17.317 -1.5351  0.2273  1.8286
14726TIP3   OH265592   1.524   3.975   0.767 -0.0227  0.5974  0.1482
14726TIP3    H165593   1.535   4.067   0.791  0.3741  0.7866 -0.7333
14726TIP3    H265594   1.433   3.967   0.739 -0.7794  0.1742  2.4984
14727TIP3   OH265595   2.116   5.979  13.762  0.3983  0.0063  0.2371
14727TIP3    H165596   2.202   5.939  13.773  0.6219  0.8578  1.7749
14727TIP3    H265597   2.134   6.073  13.762 -0.2718  0.1958 -1.9670
14728TIP3   OH265598   6.037   4.545   0.449 -0.8560 -0.4882  0.1409
14728TIP3    H165599   5.997   4.632   0.447  1.0534  0.4454  0.3947
14728TIP3    H265600   6.116   4.553   0.395  0.2305 -1.5828  1.4928
14729TIP3   OH265601   6.432   1.059   1.007 -0.0130 -0.2976 -0.2969
14729TIP3    H165602   6.355   1.114   1.021  1.5601  2.4664 -1.6036
14729TIP3    H265603   6.474   1.053   1.093 -0.9401 -0.7196  0.1446
14730TIP3   OH265604   2.441   1.497   0.201  0.1986  0.1467 -0.0222
14730TIP3    H165605   2.453   1.556   0.126 -2.0774 -1.2906 -1.6676
14730TIP3    H265606   2.374   1.539   0.254 -0.2030 -0.1257 -0.3038
14731TIP3   OH265607   0.367   3.179  17.089  0.1581 -0.7338  0.0085
14731TIP3    H165608   0.317   3.116  17.141 -0.6408 -1.2440 -1.3265
14731TIP3    H265609   0.442   3.128  17.056 -0.0305 -0.7601 -0.3828
14732TIP3   OH265610   0.915   6.738  14.515 -0.1170  0.1316 -0.1166
14732TIP3    H165611   0.850   6.668  14.504 -0.0757  0.3176 -1.9231
14732TIP3    H265612   0.999   6.693  14.512 -0.0431  0.2897 -2.4266
14733TIP3   OH265613   0.505   0.108  13.455  0.2998 -0.0887  0.1791
14733TIP3    H165614   0.572   0.048  13.421 -0.2997 -0.7938  0.2158
14733TIP3    H265615   0.551   0.191  13.467  0.8488 -0.2068 -1.0234
14734TIP3   OH265616   0.816   6.489  13.480  0.8087  0.0191  0.0411
14734TIP3    H165617   0.741   6.506  13.537  1.1246  0.0517  0.4509
14734TIP3    H265618   0.809   6.396  13.458  0.6402  0.0249  0.0692
14735TIP3   OH265619   0.632   1.852  12.136 -0.1879 -0.5020 -0.2958
14735TIP3    H165620   0.584   1.769  12.130  0.9936 -1.3435  1.1833
14735TIP3    H265621   0.705   1.844  12.075 -0.5133 -0.2066 -0.7358
14736TIP3   OH265622   3.509   4.749   4.326 -0.4652  0.0643 -0.3913
14736TIP3    H165623   3.595   4.719   4.296 -0.4580 -0.4492  0.1286
14736TIP3    H265624   3.505   4.722   4.417 -1.3624 -0.3125 -0.5398
14737TIP3   OH265625   6.166   2.214   2.027 -0.1330 -0.0387 -0.1884
14737TIP3    H165626   6.154   2.289   1.969 -0.7800 -0.9457 -1.2798
14737TIP3    H265627   6.115   2.236   2.105 -1.7380 -0.0472 -1.1933
14738TIP3   OH265628   6.281   0.407   3.080 -0.0375 -0.3051  0.6220
14738TIP3    H165629   6.274   0.369   3.167  1.2923  0.5363  1.1212
14738TIP3    H265630   6.275   0.332   3.020  0.8422 -1.1046  1.5137
14739TIP3   OH265631   3.330   5.473  12.149  0.4115  0.3147 -0.0470
14739TIP3    H165632   3.356   5.421  12.072  1.8120  1.7287 -0.5876
14739TIP3    H265633   3.360   5.422  12.224 -0.2889 -0.7170 -0.4403
14740TIP3   OH265634   2.905   6.500  16.381 -0.5819 -0.1136  0.5484
14740TIP3    H165635   2.890   6.592  16.401 -0.2134 -0.0216  0.4139
14740TIP3    H265636   2.996   6.485  16.406  0.7825  0.6621 -3.2849
14741TIP3   OH265637   2.904   6.416  13.354 -0.1930 -0.3806 -0.0859
14741TIP3    H165638   2.953   6.403  13.273  2.4067 -1.6088  1.5794
14741TIP3    H265639   2.917   6.509  13.375  0.5089 -0.4481 -0.2175
14742TIP3   OH265640   5.989   0.644   0.978 -0.4489  0.5990  0.4588
14742TIP3    H165641   5.990   0.549   0.964  0.6686  0.7151 -0.3480
14742TIP3    H265642   5.906   0.673   0.939  0.1979  0.2239 -1.2724
14743TIP3   OH265643   5.410   0.821  16.940  0.4278  0.6341  0.5101
14743TIP3    H165644   5.453   0.792  16.859 -1.6776  1.3460 -0.9537
14743TIP3    H265645   5.407   0.916  16.934 -1.5743  0.6191  0.3506
14744TIP3   OH265646   2.113   3.172  12.349 -0.1190  0.3046  0.2702
14744TIP3    H165647   2.203   3.197  12.374  0.2299  0.9989 -1.5624
14744TIP3    H265648   2.119   3.078  12.332  0.4219  0.4576 -0.4426
14745TIP3   OH265649   4.452   6.454  17.276  0.3303  0.1117 -0.2731
14745TIP3    H165650   4.377   6.462  17.334  1.4849  0.2282  1.2780
14745TIP3    H265651   4.434   6.376  17.223 -0.0691 -0.9661  1.3600
14746TIP3   OH265652   5.758   5.413   3.928 -0.5288  0.1224  0.1108
14746TIP3    H165653   5.791   5.365   3.852  2.2563 -0.0731  1.3274
14746TIP3    H265654   5.771   5.505   3.905  2.0644  0.0455  0.9441
14747TIP3   OH265655   2.613   3.343   2.568  0.5942 -0.4150  0.3073
14747TIP3    H165656   2.677   3.277   2.593 -0.6660 -1.6231  0.4723
14747TIP3    H265657   2.566   3.363   2.649  0.0951 -0.2964 -0.0072
14748TIP3   OH265658   3.621   6.355   5.785 -0.2761 -0.1333 -0.2877
14748TIP3    H165659   3.652   6.306   5.861 -1.4970  1.0199  1.0004
14748TIP3    H265660   3.699   6.401   5.753  0.4635 -1.4114 -0.3793
14749TIP3   OH265661   0.156   6.022  17.016  0.5237 -0.4269 -0.0995
14749TIP3    H165662   0.239   5.979  17.036  0.5711 -0.6069 -0.6622
14749TIP3    H265663   0.089   5.962  17.049  0.6130 -0.2446  0.4261
14750TIP3   OH265664   6.444   5.200  16.336  0.1369  0.5998 -0.1613
14750TIP3    H165665   6.538   5.215  16.327  0.0577  1.2448  0.0309
14750TIP3    H265666   6.437   5.109  16.366  0.7003  0.5881 -0.0543
14751TIP3   OH265667   0.353   5.734  14.863  0.1112 -0.5570 -0.0330
14751TIP3    H165668   0.335   5.809  14.919 -0.4930 -0.7502  0.0360
14751TIP3    H265669   0.447   5.719  14.872  0.5958  1.3120 -1.4522
14752TIP3   OH265670   0.356   5.092  14.386 -0.4376  0.1284  0.4703
14752TIP3    H165671   0.432   5.113  14.440  0.4335  0.6805 -0.9149
14752TIP3    H265672   0.371   5.002  14.357  1.0071  1.0054 -1.7861
14753TIP3   OH265673   3.777   0.867  16.652 -0.5867  0.7569 -0.0835
14753TIP3    H165674   3.773   0.927  16.578  1.0534 -0.6153 -1.3707
14753TIP3    H265675   3.768   0.780  16.613  0.5159 -0.0099  1.2849
14754TIP3   OH265676   6.619   5.460  12.089  0.4758  0.2721 -0.6122
14754TIP3    H165677   6.631   5.554  12.104 -3.0957  0.6022  1.1862
14754TIP3    H265678   6.620   5.422  12.177 -5.0153 -0.1863 -0.4230
14755TIP3   OH265679   5.551   5.927   4.958  0.4599 -0.0451 -0.1997
14755TIP3    H165680   5.558   5.834   4.933  0.4890 -0.4178  1.0994
14755TIP3    H265681   5.632   5.945   5.004  0.1015  0.3918  0.2673
14756TIP3   OH265682   4.254   4.907   6.015 -0.4536 -0.3995  0.7454
14756TIP3    H165683   4.218   4.822   6.042 -1.5158 -0.6611 -1.3260
14756TIP3    H265684   4.209   4.928   5.933  1.7041  0.9149 -0.1954
14757TIP3   OH265685   6.273   4.187   5.617 -0.5260  0.3630  0.2845
14757TIP3    H165686   6.333   4.113   5.620 -0.5016  0.4249  2.4667
14757TIP3    H265687   6.239   4.195   5.706 -1.5568  2.1438 -0.2170
14758TIP3   OH265688   3.273   5.981  15.067  0.0458 -0.2348  0.2551
14758TIP3    H165689   3.258   5.887  15.073 -0.5801 -0.2705 -1.4022
14758TIP3    H265690   3.197   6.020  15.112 -0.9165 -0.5186 -1.0626
14759TIP3   OH265691   5.817   1.875  12.869  0.1704 -0.1151 -0.0263
14759TIP3    H165692   5.826   1.930  12.946  0.8537  1.4166 -1.1448
14759TIP3    H265693   5.744   1.816  12.889 -0.5077  1.1220  1.2648
14760TIP3   OH265694   1.848   6.760  13.258 -0.1834  0.3964  0.0596
14760TIP3    H165695   1.853   6.665  13.271  1.0830  0.2777 -1.1249
14760TIP3    H265696   1.909   6.797  13.321 -1.6501  0.5585  1.4547
14761TIP3   OH265697   6.339   0.632   3.679  0.4327  0.4209  0.0633
14761TIP3    H165698   6.367   0.553   3.633 -0.2627 -0.0732  0.4605
14761TIP3    H265699   6.247   0.617   3.698 -0.5137  2.5614 -2.3653
14762TIP3   OH265700   1.327   5.282   1.771  0.1327 -0.2096 -0.2440
14762TIP3    H165701   1.320   5.366   1.727 -0.5057  0.2000  0.6199
14762TIP3    H265702   1.419   5.277   1.798  0.4571 -0.3340 -1.3249
14763TIP3   OH265703   5.159   4.800   4.458  0.3801 -0.1015  0.0046
14763TIP3    H165704   5.143   4.882   4.505 -0.8734  0.1119 -0.7480
14763TIP3    H265705   5.086   4.793   4.396  0.9054 -1.3830 -0.5074
14764TIP3   OH265706   2.588   5.586   5.838 -0.2093 -0.1708  0.2488
14764TIP3    H165707   2.552   5.636   5.912  0.0731 -1.9559  1.6594
14764TIP3    H265708   2.681   5.607   5.839  0.2682 -2.0574  2.0428
14765TIP3   OH265709   1.788   6.241  14.747 -0.1058 -0.2894  0.1920
14765TIP3    H165710   1.733   6.236  14.826 -0.4554  0.6846  0.0348
14765TIP3    H265711   1.760   6.167  14.693 -1.6908  0.4865 -0.1228
14766TIP3   OH265712   5.384   4.089  12.653  0.2684 -0.1464  0.2945
14766TIP3    H165713   5.332   4.022  12.697  0.6235 -0.2901  0.4939
14766TIP3    H265714   5.471   4.051  12.646  0.0590 -0.4109 -1.1612
14767TIP3   OH265715   2.261   1.806  16.381 -0.1338  0.8090  0.4421
14767TIP3    H165716   2.175   1.801  16.340  0.0842  0.3827  0.0207
14767TIP3    H265717   2.306   1.727  16.351 -0.1980  0.1251  2.0309
14768TIP3   OH265718   1.809   2.808  17.171 -0.2133  0.5680 -0.1938
14768TIP3    H165719   1.898   2.787  17.143  0.4155  1.3819  1.0883
14768TIP3    H265720   1.820   2.878  17.235 -1.7658  0.4783  0.2173
14769TIP3   OH265721   4.958   2.688   1.596  0.5845 -0.4394 -0.0755
14769TIP3    H165722   4.933   2.674   1.687  1.0286 -0.5362  0.0337
14769TIP3    H265723   5.054   2.686   1.596  0.7013  1.9632 -0.1407
14770TIP3   OH265724   0.413   6.312   3.522 -0.5529  0.2453 -0.4543
14770TIP3    H165725   0.505   6.315   3.545 -0.7663  1.0411  0.3465
14770TIP3    H265726   0.368   6.348   3.599 -1.5647 -0.6184 -0.6133
14771TIP3   OH265727   1.757   1.194   3.801 -0.1111 -0.3186  0.3948
14771TIP3    H165728   1.824   1.237   3.855 -1.6706 -1.1270  3.1932
14771TIP3    H265729   1.764   1.101   3.822 -2.7617 -0.3251  1.7452
14772TIP3   OH265730   2.184   5.812  15.388  0.3389  0.2253 -0.3447
14772TIP3    H165731   2.268   5.818  15.434  0.6358  1.6673 -1.0464
14772TIP3    H265732   2.124   5.866  15.441  0.4887  1.2487 -1.1999
14773TIP3   OH265733   1.737   3.793   2.656  0.1591 -0.0078 -0.5907
14773TIP3    H165734   1.804   3.754   2.599  0.7356  0.9738 -0.6086
14773TIP3    H265735   1.736   3.736   2.734  1.1524  0.0665 -0.5089
14774TIP3   OH265736   1.514   3.623   0.996  0.1452  0.7020  0.0526
14774TIP3    H165737   1.443   3.671   0.955  0.4836  0.5211 -0.7688
14774TIP3    H265738   1.585   3.626   0.931  0.6557  0.3290  0.5884
14775TIP3   OH265739   6.667   3.742   5.676  0.2069  0.1624 -0.3139
14775TIP3    H165740   6.736   3.761   5.740  1.8662 -2.9965 -0.9537
14775TIP3    H265741   6.713   3.740   5.592 -0.0375 -3.9306 -0.5585
14776TIP3   OH265742   1.161   3.450  11.254  0.0724  0.0295  0.1335
14776TIP3    H165743   1.168   3.361  11.218 -1.1854  0.1539 -0.4622
14776TIP3    H265744   1.074   3.453  11.294 -0.0897  1.1313 -0.2558
14777TIP3   OH265745   6.631   2.785   5.772 -0.0422 -0.2638 -0.5852
14777TIP3    H165746   6.677   2.709   5.807 -1.2072 -1.4496 -1.5000
14777TIP3    H265747   6.642   2.853   5.839  1.1069 -1.1996  0.2183
14778TIP3   OH265748   3.975   6.030   2.143 -0.5572  0.0795  0.4788
14778TIP3    H165749   3.982   5.983   2.226  0.1509 -2.5318 -0.9449
14778TIP3    H265750   4.060   6.073   2.132  0.3099 -1.6670 -0.0096
14779TIP3   OH265751   5.721   6.089   5.537  0.3108 -0.0354 -0.5550
14779TIP3    H165752   5.657   6.129   5.479 -0.8368 -1.3172 -0.2217
14779TIP3    H265753   5.757   6.016   5.487  3.3170  1.9572 -1.6447
14780TIP3   OH265754   6.720   4.275   4.251 -0.0796  0.7470 -0.0230
14780TIP3    H165755   6.657   4.207   4.227  0.6113  0.2235 -0.3946
14780TIP3    H265756   6.721   4.334   4.176  1.5526 -0.5024 -1.0522
14781TIP3   OH265757   5.076   6.421   6.537  0.6927  0.0896 -0.3566
14781TIP3    H165758   5.009   6.478   6.499  0.1394  1.3531  2.2579
14781TIP3    H265759   5.157   6.470   6.528  0.2678  1.2508  1.5954
14782TIP3   OH265760   0.707   1.507  13.249 -0.1648  0.3931  0.6593
14782TIP3    H165761   0.624   1.487  13.293 -0.9099  0.6340 -0.6064
14782TIP3    H265762   0.738   1.423  13.217 -0.7998  0.5251 -0.3479
14783TIP3   OH265763   4.708   5.403  13.401  0.0663  0.1504 -0.6228
14783TIP3    H165764   4.743   5.492  13.411  1.0921 -0.3622  0.6806
14783TIP3    H265765   4.624   5.405  13.447 -0.1585  0.5680 -1.0403
14784TIP3   OH265766   4.634   5.091   0.097  0.6528  0.8391 -0.7007
14784TIP3    H165767   4.604   5.001   0.110 -0.2617  1.3890  1.6626
14784TIP3    H265768   4.725   5.091   0.127  0.4642  0.7937 -0.1053
14785TIP3   OH265769   5.514   2.990   1.030  0.2831  0.1947 -0.2576
14785TIP3    H165770   5.547   3.070   1.072 -0.3532  1.2221 -1.6088
14785TIP3    H265771   5.425   3.012   1.004  0.0048 -1.0688 -0.4268
14786TIP3   OH265772   3.155   5.633  14.742 -0.5173 -0.3546 -0.0557
14786TIP3    H165773   3.159   5.722  14.708 -0.1458 -0.7836 -1.1841
14786TIP3    H265774   3.069   5.601  14.716 -0.7479 -0.2497  0.5642
14787TIP3   OH265775   4.650   4.790   1.518 -0.0219 -0.4109  0.1794
14787TIP3    H165776   4.731   4.829   1.487  0.3162 -0.6204  0.7729
14787TIP3    H265777   4.678   4.730   1.587 -0.8459  1.0491  1.8692
14788TIP3   OH265778   2.363   5.102  14.292  0.2664  0.4666  0.7779
14788TIP3    H165779   2.422   5.042  14.246  0.5853  1.4053 -0.0764
14788TIP3    H265780   2.352   5.064  14.379 -2.0519 -2.5388 -0.6552
14789TIP3   OH265781   5.174   1.039   3.295  0.2367  0.1820  0.4068
14789TIP3    H165782   5.087   1.066   3.265  0.0827 -1.2900 -0.5801
14789TIP3    H265783   5.230   1.116   3.281 -0.6121  0.6841 -0.2759
14790TIP3   OH265784   3.689   5.370   1.258  0.4340 -0.1582  0.0532
14790TIP3    H165785   3.760   5.392   1.319 -1.3720  0.6238  1.9861
14790TIP3    H265786   3.667   5.280   1.279  1.6008 -0.8132 -1.3870
14791TIP3   OH265787   3.123   2.842  13.245 -0.3204 -0.0267  0.3467
14791TIP3    H165788   3.192   2.846  13.179  1.0182 -0.7631  1.6322
14791TIP3    H265789   3.087   2.931  13.248  1.0485  0.5641  0.1025
14792TIP3   OH265790   4.976   5.761   3.373  0.1237 -0.4986  0.1217
14792TIP3    H165791   4.992   5.853   3.352 -0.7481 -0.8896 -2.6365
14792TIP3    H265792   4.881   5.755   3.382  0.2613 -0.9312  1.5674
14793TIP3   OH265793   4.947   3.916  16.628  0.3812 -0.2186  0.5345
14793TIP3    H165794   4.867   3.892  16.581  0.5015  0.5569 -0.0802
14793TIP3    H265795   5.011   3.850  16.600 -0.5853 -2.2509  2.7648
14794TIP3   OH265796   0.468   4.167   1.062  0.0930  0.2793 -0.1897
14794TIP3    H165797   0.381   4.205   1.077 -0.0505  0.6289 -1.7250
14794TIP3    H265798   0.454   4.073   1.066 -0.0647  0.3369  0.9778
14795TIP3   OH265799   1.416   5.456  13.213 -0.0866  0.0057 -0.2521
14795TIP3    H165800   1.393   5.535  13.165  0.2543 -0.1660 -0.7065
14795TIP3    H265801   1.332   5.423  13.247 -0.3416  0.1075 -0.7676
14796TIP3   OH265802   6.700   3.924   0.487 -0.2335  0.3222 -0.0033
14796TIP3    H165803   6.689   3.914   0.582 -2.0343  1.3284 -0.0666
14796TIP3    H265804   6.752   4.004   0.477 -0.5367  0.5304  0.1092
14797TIP3   OH265805   4.280   5.831  14.810  0.2017  0.5605 -0.1725
14797TIP3    H165806   4.189   5.856  14.795 -0.6790 -1.1284  1.8983
14797TIP3    H265807   4.289   5.746  14.767 -0.1595 -0.7039  2.0843
14798TIP3   OH265808   6.323   4.436   4.073  0.0751 -0.2878  0.6037
14798TIP3    H165809   6.327   4.432   3.978 -1.2399  0.0290  0.5206
14798TIP3    H265810   6.332   4.344   4.101  1.4957 -0.2788  0.2478
14799TIP3   OH265811   4.471   5.655  14.215 -0.6627  0.1524 -0.4254
14799TIP3    H165812   4.535   5.653  14.144  0.5481  0.6401  0.6066
14799TIP3    H265813   4.521   5.627  14.292 -2.1215 -1.0916  0.1198
14800TIP3   OH265814   2.243   4.475  12.907  0.1233 -0.0145  0.0301
14800TIP3    H165815   2.270   4.564  12.887  1.3241 -0.4877 -0.5177
14800TIP3    H265816   2.150   4.483  12.928 -0.1246  1.1727 -1.3343
14801TIP3   OH265817   6.579   6.410  13.776  0.2342  0.1838  0.1239
14801TIP3    H165818   6.523   6.427  13.852  0.0778  0.2440 -0.0052
14801TIP3    H265819   6.658   6.461  13.793  0.3648 -0.1196  0.4400
14802TIP3   OH265820   5.206   0.273  11.511 -0.1034  0.3802 -0.2141
14802TIP3    H165821   5.279   0.226  11.550  0.2524 -0.0040 -1.2955
14802TIP3    H265822   5.164   0.209  11.453 -0.4125  1.0002 -0.6955
14803TIP3   OH265823   0.947   5.846   3.576  0.5234  0.4918 -0.4188
14803TIP3    H165824   0.958   5.877   3.666 -0.0823  1.2077 -0.5770
14803TIP3    H265825   0.948   5.750   3.583  0.4005  0.5402  0.3573
14804TIP3   OH265826   5.139   0.061  11.195 -0.1416  0.2846 -0.0413
14804TIP3    H165827   5.062   0.019  11.234  0.3109 -2.8817 -2.1647
14804TIP3    H265828   5.119   0.064  11.101  1.3340  1.7768 -0.3587
14805TIP3   OH265829   5.786   1.895   5.597  0.3133 -0.0303 -0.2784
14805TIP3    H165830   5.837   1.960   5.549  0.9108  0.8520  1.4566
14805TIP3    H265831   5.696   1.927   5.593  0.4880  0.4918 -0.1186
14806TIP3   OH265832   0.430   5.876   1.055  0.4636 -0.3174 -0.2635
14806TIP3    H165833   0.523   5.895   1.064  0.6635 -1.0488 -0.6522
14806TIP3    H265834   0.394   5.889   1.142  1.0504 -0.6424  0.0346
14807TIP3   OH265835   5.361   5.067  16.783 -0.2458 -0.5876  0.1607
14807TIP3    H165836   5.412   5.123  16.725 -2.1579  0.9563 -0.1078
14807TIP3    H265837   5.378   5.101  16.871 -2.0701  1.0614 -0.0726
14808TIP3   OH265838   5.781   4.737  15.333 -0.1160 -0.0674 -0.1829
14808TIP3    H165839   5.689   4.722  15.355  0.2716 -0.4213  1.3373
14808TIP3    H265840   5.795   4.829  15.355 -0.0523 -0.0715 -0.2071
14809TIP3   OH265841   3.387   6.239  11.790 -0.2149 -1.0910 -0.1794
14809TIP3    H165842   3.338   6.230  11.872  0.4500 -1.6180  0.1746
14809TIP3    H265843   3.376   6.154  11.747 -2.4197 -0.0964 -1.7216
14810TIP3   OH265844   6.316   5.246   0.439  0.2959 -0.4073  0.3566
14810TIP3    H165845   6.389   5.295   0.474 -0.5396  0.2507  1.2337
14810TIP3    H265846   6.248   5.311   0.421 -0.5280 -1.1243  0.7441
14811TIP3   OH265847   1.250   4.808   0.636  0.0680 -0.4162  0.7255
14811TIP3    H165848   1.292   4.805   0.722 -0.5331 -3.9123  1.0287
14811TIP3    H265849   1.161   4.775   0.651  0.0279 -1.3532 -1.2347
14812TIP3   OH265850   1.889   2.841  13.726  0.3332 -0.0319 -0.1236
14812TIP3    H165851   1.949   2.913  13.708  0.5321  0.1952  1.3619
14812TIP3    H265852   1.888   2.833  13.821 -0.6040 -1.2211 -0.2057
14813TIP3   OH265853   0.396   6.294  14.977 -0.0854  0.2301  0.6105
14813TIP3    H165854   0.331   6.261  14.915  0.3615  0.2141  0.1487
14813TIP3    H265855   0.345   6.346  15.040 -0.5620  0.0965  0.3343
14814TIP3   OH265856   4.492   0.343  17.289  0.4918  0.1822 -0.0083
14814TIP3    H165857   4.526   0.283  17.354  0.2388 -1.0626 -0.9937
14814TIP3    H265858   4.423   0.392  17.334  0.1272 -0.8547  0.5839
14815TIP3   OH265859   5.978   4.579   4.155 -0.5585  0.0515 -0.7602
14815TIP3    H165860   6.053   4.562   4.213 -1.0494  1.0069  0.1976
14815TIP3    H265861   6.015   4.580   4.067  0.2958 -0.9606 -0.4382
14816TIP3   OH265862   2.739   4.690   2.183 -0.0211 -0.1552 -0.1617
14816TIP3    H165863   2.778   4.679   2.097 -2.1663 -0.8439 -1.0897
14816TIP3    H265864   2.663   4.632   2.184 -0.9075  0.9236  1.6378
14817TIP3   OH265865   2.300   1.937   6.751  0.2687  0.3761  0.2266
14817TIP3    H165866   2.240   1.862   6.756  1.3881 -0.8735 -2.8339
14817TIP3    H265867   2.249   2.010   6.786 -1.6075 -1.3729  1.3892
14818TIP3   OH265868   5.070   1.317   4.256 -0.5510 -0.0764 -0.3020
14818TIP3    H165869   5.032   1.401   4.228  0.7983  1.5240  2.2837
14818TIP3    H265870   5.162   1.322   4.229 -0.6287 -1.0959 -0.8040
14819TIP3   OH265871   0.252   5.842   4.136 -0.2890  0.0653  0.2254
14819TIP3    H165872   0.227   5.751   4.120 -0.4116 -0.3895  2.6078
14819TIP3    H265873   0.197   5.893   4.076 -1.5841 -1.3311  0.1631
14820TIP3   OH265874   0.961   6.496  17.094  0.4003 -0.0780  0.1222
14820TIP3    H165875   0.958   6.410  17.052 -0.6339  0.1636 -0.3202
14820TIP3    H265876   0.923   6.483  17.180 -1.1592  0.2206 -0.4947
14821TIP3   OH265877   1.175   1.613  14.995 -0.0997 -0.1014 -0.1800
14821TIP3    H165878   1.121   1.690  15.014  0.0789 -0.3768  1.6585
14821TIP3    H265879   1.114   1.539  15.003 -0.1165 -0.2079 -1.2323
14822TIP3   OH265880   1.562   2.529   5.244  0.1756  0.0544  0.5318
14822TIP3    H165881   1.638   2.512   5.300  1.0060  1.0884 -0.2275
14822TIP3    H265882   1.598   2.580   5.171 -0.7461 -1.7276 -1.2656
14823TIP3   OH265883   2.376   6.283  12.415 -0.6618 -0.0224  0.0544
14823TIP3    H165884   2.368   6.360  12.358  0.8981 -0.0876 -0.2902
14823TIP3    H265885   2.408   6.319  12.499 -2.9534  0.0763  0.9521
14824TIP3   OH265886   4.101   0.857  11.104  0.4186 -0.2886 -0.5499
14824TIP3    H165887   4.081   0.764  11.091 -0.7577 -0.1458  0.0906
14824TIP3    H265888   4.022   0.893  11.145  1.4534  0.6614  0.6837
14825TIP3   OH265889   5.724   0.510   4.283  0.4746  0.2579 -0.1033
14825TIP3    H165890   5.762   0.484   4.367  1.0201  1.3283 -0.0074
14825TIP3    H265891   5.634   0.477   4.286  0.9660 -1.1347  0.2238
14826TIP3   OH265892   4.773   1.781  16.940  0.0042 -0.2962 -0.5164
14826TIP3    H165893   4.783   1.873  16.962  1.1936 -0.7033  0.7829
14826TIP3    H265894   4.700   1.779  16.878 -2.5372  1.1322  2.1724
14827TIP3   OH265895   4.367   3.952   0.969  0.3916 -0.2686 -0.0907
14827TIP3    H165896   4.422   3.911   0.902  1.2962  1.2562 -0.3433
14827TIP3    H265897   4.297   3.889   0.984  0.8669 -1.2112 -1.5482
14828TIP3   OH265898   0.657   0.781   5.497  0.2791  0.2001  0.0063
14828TIP3    H165899   0.659   0.689   5.523 -1.4576 -0.4211 -1.8385
14828TIP3    H265900   0.745   0.798   5.462  0.3850 -0.9551 -0.3110
14829TIP3   OH265901   0.842   0.863  15.652  0.0920 -0.3191 -0.1919
14829TIP3    H165902   0.839   0.934  15.588  0.6717 -0.7706 -0.7359
14829TIP3    H265903   0.934   0.837  15.654 -0.2140 -1.4789 -0.4706
14830TIP3   OH265904   2.185   4.700  14.608  0.3630 -0.8359 -0.5081
14830TIP3    H165905   2.105   4.683  14.658  1.6779 -1.5045  1.5102
14830TIP3    H265906   2.254   4.698  14.674  2.4856 -3.5608 -2.5795
14831TIP3   OH265907   3.682   1.899  12.146  0.2551  0.2562  0.4040
14831TIP3    H165908   3.661   1.851  12.226 -0.4282  0.3562  0.2913
14831TIP3    H265909   3.723   1.834  12.089 -0.2666 -0.0960  0.4181
14832TIP3   OH265910   2.040   6.522  11.527  0.0227  0.0667  0.3050
14832TIP3    H165911   2.100   6.498  11.456  0.2315  0.0895  0.4756
14832TIP3    H265912   2.083   6.596  11.570 -0.2286  0.2197  0.2929
14833TIP3   OH265913   1.558   6.635   0.585 -0.0330  0.7714  0.4397
14833TIP3    H165914   1.594   6.717   0.553 -1.1798  0.6842 -1.1939
14833TIP3    H265915   1.575   6.571   0.516 -1.9357  0.3976  0.2436
14834TIP3   OH265916   5.180   4.698   1.894  0.3775 -0.7895  0.1819
14834TIP3    H165917   5.139   4.626   1.846 -0.0652 -0.1267 -0.4417
14834TIP3    H265918   5.209   4.759   1.826  2.5444 -1.2785  0.5735
14835TIP3   OH265919   1.030   4.096   3.505  0.0882 -0.3245 -0.2267
14835TIP3    H165920   0.984   4.016   3.481 -0.0444 -0.2168 -0.3290
14835TIP3    H265921   1.123   4.074   3.493  0.0032 -0.1399 -1.2367
14836TIP3   OH265922   1.013   0.647   2.291  0.0476  0.0717  0.4007
14836TIP3    H165923   0.994   0.558   2.263  0.0664 -0.0230  0.6831
14836TIP3    H265924   1.108   0.654   2.286  0.1597 -0.3378  1.5731
14837TIP3   OH265925   4.947   2.775  16.607 -0.1244  0.1393  0.3884
14837TIP3    H165926   4.958   2.869  16.594 -1.0818  0.4132  1.3779
14837TIP3    H265927   4.872   2.768  16.667  1.6751 -1.1378  2.6596
14838TIP3   OH265928   2.123   0.548   2.750 -0.2588  0.4972  0.3112
14838TIP3    H165929   2.209   0.571   2.715 -0.8181 -0.1795 -1.6577
14838TIP3    H265930   2.087   0.485   2.687 -2.5219  1.3632  0.6348
14839TIP3   OH265931   1.653   1.561   6.040 -0.1050 -0.6461 -0.5052
14839TIP3    H165932   1.562   1.585   6.020 -0.4602  0.2934  1.9540
14839TIP3    H265933   1.655   1.466   6.030 -1.6589 -0.8142  0.4502
14840TIP3   OH265934   6.722   5.248  16.287  0.0409  0.4350 -0.0160
14840TIP3    H165935   6.680   5.278  16.206 -2.8750  1.6369  1.7556
14840TIP3    H265936   6.815   5.250  16.268 -0.5079  1.0079 -3.2179
14841TIP3   OH265937   2.125   5.105   2.926  0.2173  0.1230  0.0042
14841TIP3    H165938   2.150   5.178   2.869 -0.0390  0.1694 -0.0511
14841TIP3    H265939   2.208   5.061   2.946  0.9326  2.4669  2.9363
14842TIP3   OH265940   0.063   5.437   1.267 -0.4120 -0.2278  0.3499
14842TIP3    H165941   0.060   5.530   1.242  1.7939  0.4692  2.2967
14842TIP3    H265942  -0.024   5.419   1.300 -0.5917  1.5202  0.9716
14843TIP3   OH265943   0.661   5.768   2.563 -0.2856 -0.1130 -0.2231
14843TIP3    H165944   0.575   5.806   2.575  0.5225  1.7788 -0.0841
14843TIP3    H265945   0.722   5.840   2.576  1.3495 -1.4417 -0.0498
14844TIP3   OH265946   5.999   4.105  11.708 -0.4307  0.2909  0.3848
14844TIP3    H165947   5.942   4.165  11.659 -0.0545  1.2283  1.0629
14844TIP3    H265948   5.941   4.065  11.772 -0.8436 -0.6567 -0.5470
14845TIP3   OH265949   5.525   5.054   6.370  0.5199  0.2389  0.1467
14845TIP3    H165950   5.534   5.095   6.456 -0.0389  0.5954  0.0418
14845TIP3    H265951   5.483   5.121   6.316 -2.5406 -1.1826  0.5515
14846TIP3   OH265952   4.892   0.324   1.384 -0.3928  0.2745 -0.4121
14846TIP3    H165953   4.953   0.344   1.455  1.0686  0.8357 -1.7541
14846TIP3    H265954   4.838   0.402   1.376 -0.9017  0.0147  0.3899
14847TIP3   OH265955   3.529   5.775  11.633  0.3986  0.1155 -0.0986
14847TIP3    H165956   3.528   5.682  11.658  1.1691  0.7412  2.6066
14847TIP3    H265957   3.535   5.822  11.716 -1.6762  2.6950 -1.2735
14848TIP3   OH265958   4.636   5.188  12.148  0.0628  0.6373 -0.0139
14848TIP3    H165959   4.615   5.101  12.115  1.8064  0.3091 -0.3497
14848TIP3    H265960   4.565   5.244  12.116 -1.4286 -0.7364  0.7317
14849TIP3   OH265961   5.623   6.750   1.426 -0.3140  0.1088 -0.1172
14849TIP3    H165962   5.593   6.659   1.424  0.9893 -0.3256 -0.5400
14849TIP3    H265963   5.700   6.751   1.369 -1.1688  1.8036 -1.3193
14850TIP3   OH265964   0.405   3.572   5.429  0.3409 -0.5296  0.3370
14850TIP3    H165965   0.500   3.559   5.434  0.6108  1.2515  0.2924
14850TIP3    H265966   0.382   3.549   5.339  0.7562 -0.7642  0.2897
14851TIP3   OH265967   4.301   2.069  17.186  0.0858  0.0393 -0.2602
14851TIP3    H165968   4.256   2.128  17.126  0.3339 -0.0966 -0.5858
14851TIP3    H265969   4.392   2.098  17.184 -0.1586  1.0333  1.2512
14852TIP3   OH265970   3.604   3.146  13.022  0.1296  0.3939 -0.1176
14852TIP3    H165971   3.616   3.122  12.930 -0.6061  2.1125 -0.6921
14852TIP3    H265972   3.532   3.090  13.051  1.4927 -1.4206 -0.0377
14853TIP3   OH265973   4.976   1.936   3.082  0.3475 -0.3256  0.6186
14853TIP3    H165974   5.020   2.004   3.133 -1.0888  0.4011  0.9435
14853TIP3    H265975   4.986   1.857   3.134  1.8207 -0.3402  0.3615
14854TIP3   OH265976   1.679   2.445  15.282  0.7717  0.1143 -0.1965
14854TIP3    H165977   1.595   2.451  15.235  0.5149 -1.6171 -0.0034
14854TIP3    H265978   1.658   2.474  15.371  0.0760 -1.3580  0.1574
14855TIP3   OH265979   3.296   3.210   4.469 -0.3598 -0.1806  0.1902
14855TIP3    H165980   3.255   3.135   4.514  0.5898 -0.3306  0.8414
14855TIP3    H265981   3.390   3.194   4.477 -0.1328  1.1845  0.5225
14856TIP3   OH265982   2.485   2.526   5.773  0.4682  0.0873 -0.4061
14856TIP3    H165983   2.449   2.494   5.690 -0.4880 -1.0247  0.4031
14856TIP3    H265984   2.412   2.571   5.815  0.9633  0.6855 -0.1722
14857TIP3   OH265985   4.352   6.082  11.348  0.3556 -0.3003 -0.0218
14857TIP3    H165986   4.438   6.049  11.323  0.2060 -0.7042 -0.0036
14857TIP3    H265987   4.291   6.038  11.290  0.2624  0.9523 -0.9174
14858TIP3   OH265988   1.743   3.485   0.087  0.3562 -0.1584  0.0548
14858TIP3    H165989   1.811   3.549   0.108 -0.6180  0.3631  1.7753
14858TIP3    H265990   1.772   3.446   0.005  2.0190  1.0313  0.0265
14859TIP3   OH265991   5.222   1.290   0.118  0.1422 -0.0942 -0.8307
14859TIP3    H165992   5.188   1.364   0.069 -0.2122  0.8784  0.8018
14859TIP3    H265993   5.240   1.325   0.206  1.1093 -1.6533 -0.3533
14860TIP3   OH265994   4.989   3.624  12.965 -0.3685  0.4093 -0.1947
14860TIP3    H165995   5.083   3.642  12.975 -0.1495  0.1155 -1.4606
14860TIP3    H265996   4.956   3.700  12.917 -0.6837  0.2944 -0.1613
14861TIP3   OH265997   5.367   3.824   3.016  0.0481  0.7121 -0.0723
14861TIP3    H165998   5.333   3.863   3.096 -0.8871 -1.4491  0.6839
14861TIP3    H265999   5.357   3.892   2.950 -0.6583  2.0222  1.3080
14862TIP3   OH266000   1.739   6.382   4.962 -0.0230  0.6289  0.6418
14862TIP3    H166001   1.711   6.409   5.049  0.4132  1.5259  0.5097
14862TIP3    H266002   1.809   6.443   4.939 -0.1297  0.3992 -0.3326
14863TIP3   OH266003   3.590   6.150   4.070 -0.5486  0.5735 -0.2786
14863TIP3    H166004   3.615   6.232   4.027  1.3368  0.4934  0.5430
14863TIP3    H266005   3.612   6.081   4.007  1.2790  0.5181  0.3588
14864TIP3   OH266006   1.931   2.272  11.790 -0.1869  0.0375  0.2293
14864TIP3    H166007   1.948   2.200  11.730  1.0042  1.0142 -0.6637
14864TIP3    H266008   1.881   2.335  11.737 -0.7819  0.0852  0.8412
14865TIP3   OH266009   6.635   3.349  14.567  0.1006  0.0727 -0.0830
14865TIP3    H166010   6.628   3.293  14.490  0.6895 -0.5389  0.2958
14865TIP3    H266011   6.545   3.356  14.600 -0.0924  0.0123 -0.5891
14866TIP3   OH266012   0.646   0.046  15.014  0.1329 -0.2882  0.6170
14866TIP3    H166013   0.673   0.058  14.923 -0.5058 -0.5695  0.3842
14866TIP3    H266014   0.631   0.134  15.047 -0.5108 -0.2251  0.1740
14867TIP3   OH266015   4.393   0.040  15.807  0.0236 -0.5331 -0.2537
14867TIP3    H166016   4.352   0.084  15.881  0.5081  0.2806 -0.4669
14867TIP3    H266017   4.380   0.100  15.733 -1.9414 -2.0444 -1.2475
14868TIP3   OH266018   2.924   4.069   3.737  0.2692  0.0255 -0.9478
14868TIP3    H166019   2.989   4.137   3.755  1.4930 -0.4295 -3.2124
14868TIP3    H266020   2.961   3.989   3.774  1.4761 -0.3856 -2.8847
14869TIP3   OH266021   6.657   3.966   5.208 -0.1529 -0.4576  0.1444
14869TIP3    H166022   6.742   3.958   5.165  0.1884  1.7390  0.2577
14869TIP3    H266023   6.600   4.005   5.141 -0.3871  0.3414  0.7974
14870TIP3   OH266024   1.151   6.306  13.357  0.2694 -0.0235  0.0229
14870TIP3    H166025   1.133   6.253  13.435  0.7727 -1.9389 -1.0931
14870TIP3    H266026   1.146   6.397  13.388 -3.2819 -0.5480  1.5038
14871TIP3   OH266027   3.844   2.359   0.699  0.3076  0.1084  0.4979
14871TIP3    H166028   3.834   2.282   0.642 -0.3085  0.2134  0.4612
14871TIP3    H266029   3.843   2.433   0.638  2.1199  0.1047  0.4014
14872TIP3   OH266030   0.007   5.232   2.426  0.2631 -0.5844  0.0246
14872TIP3    H166031   0.031   5.189   2.508  6.2261 -1.7373 -1.8148
14872TIP3    H266032   0.048   5.318   2.432 -0.8252  0.0478 -1.1246
14873TIP3   OH266033   4.627   6.498  14.619 -0.0080 -0.1183 -0.1441
14873TIP3    H166034   4.591   6.421  14.663  0.2924  0.6221  1.4763
14873TIP3    H266035   4.711   6.514  14.662 -0.5084  1.6932  0.2512
14874TIP3   OH266036   1.820   4.300  15.193  0.6557  0.2892 -0.6192
14874TIP3    H166037   1.799   4.392  15.174 -0.1052 -0.0646 -1.6279
14874TIP3    H266038   1.848   4.265  15.108 -1.9724 -1.1394 -1.0255
14875TIP3   OH266039   3.170   6.554   6.242 -0.7081 -0.1583 -0.0041
14875TIP3    H166040   3.092   6.530   6.292 -0.7532 -0.1402 -0.0656
14875TIP3    H266041   3.136   6.590   6.160 -0.6619  0.5196  0.2619
14876TIP3   OH266042   1.799   4.381   5.135  0.4602  0.3805 -0.7762
14876TIP3    H166043   1.803   4.303   5.079 -0.1666  0.0625 -0.3922
14876TIP3    H266044   1.730   4.361   5.199  0.4988  1.1327 -0.4898
14877TIP3   OH266045   3.225   1.716   3.888 -0.5648 -0.5654  0.0697
14877TIP3    H166046   3.261   1.649   3.830  1.9284 -0.1589  1.0086
14877TIP3    H266047   3.138   1.684   3.911 -0.4666 -2.1441 -1.5883
14878TIP3   OH266048   2.206   3.467  11.586 -0.2270 -0.4291  0.1436
14878TIP3    H166049   2.178   3.449  11.497 -1.2860 -1.8397  0.7251
14878TIP3    H266050   2.196   3.562  11.596  0.3252 -0.1964 -1.3483
14879TIP3   OH266051   2.145   2.284   5.674  0.0372  0.0265 -0.0237
14879TIP3    H166052   2.053   2.266   5.693 -0.2826  1.8779  0.3153
14879TIP3    H266053   2.190   2.202   5.695 -1.2444 -0.2526  1.8636
14880TIP3   OH266054   4.243   2.103   6.091  0.8012  0.3798  0.0501
14880TIP3    H166055   4.244   2.132   6.183  1.8759  0.7788 -0.0722
14880TIP3    H266056   4.227   2.009   6.096  0.2983  0.4841  0.6128
14881TIP3   OH266057   2.032   6.690   1.123  0.4116  0.1592  0.0455
14881TIP3    H166058   2.078   6.769   1.096  2.5832 -0.4857  1.6401
14881TIP3    H266059   2.011   6.704   1.215  0.3884 -0.9231  0.2200
14882TIP3   OH266060   5.722   3.394  14.529 -0.5304 -0.3694  0.4698
14882TIP3    H166061   5.789   3.451  14.490  0.3150 -0.7300  1.3418
14882TIP3    H266062   5.664   3.372  14.456  1.0850 -1.1417 -0.6692
14883TIP3   OH266063   2.409   0.081   4.348 -0.2460 -0.0277 -0.3659
14883TIP3    H166064   2.478   0.036   4.299  1.5544  0.7557  1.3128
14883TIP3    H266065   2.327   0.052   4.308  1.0745 -0.0535 -3.2451
14884TIP3   OH266066   1.256   6.632  12.653 -0.7076  0.5924  0.1946
14884TIP3    H166067   1.299   6.634  12.738  1.3008  3.3486 -0.7743
14884TIP3    H266068   1.315   6.581  12.597  0.1811  2.3401 -0.5315
14885TIP3   OH266069   4.129   4.843  15.594 -0.2089  0.1755 -0.3205
14885TIP3    H166070   4.073   4.895  15.537 -1.5425 -1.1472 -0.2992
14885TIP3    H266071   4.137   4.894  15.674 -0.2117  1.0205 -0.8558
14886TIP3   OH266072   4.923   0.300  13.916  0.8725  0.5695 -0.5254
14886TIP3    H166073   4.928   0.364  13.845  1.7279  0.0002 -0.9887
14886TIP3    H266074   4.947   0.217  13.876  2.2136  0.3741  0.5975
14887TIP3   OH266075   4.094   5.291  12.617  0.2474  0.2784  0.1921
14887TIP3    H166076   4.001   5.268  12.623  0.3618 -0.1898  0.1962
14887TIP3    H266077   4.140   5.208  12.625  0.5891  0.1747 -2.0492
14888TIP3   OH266078   6.292   6.484  12.477 -0.4657  0.2261  0.2725
14888TIP3    H166079   6.271   6.483  12.570  1.1948 -2.0202  0.6868
14888TIP3    H266080   6.343   6.564  12.464 -1.2910  0.9116  1.1110
14889TIP3   OH266081   2.285   0.954   5.843 -0.9732  0.2669 -0.0842
14889TIP3    H166082   2.372   0.987   5.865 -1.3196  0.4623  1.0763
14889TIP3    H266083   2.280   0.869   5.885 -0.7761 -0.4798 -1.5027
14890TIP3   OH266084   0.144   3.262  10.921 -0.0313 -0.1642 -0.0212
14890TIP3    H166085   0.078   3.208  10.877 -0.8118 -0.2491  1.1919
14890TIP3    H266086   0.226   3.214  10.910 -0.7682 -1.8292  1.3357
14891TIP3   OH266087   2.257   4.986  14.512 -0.8348 -0.0470 -0.2120
14891TIP3    H166088   2.203   4.908  14.522 -1.5343  0.4435 -0.0381
14891TIP3    H266089   2.319   4.982  14.585 -1.6688  0.1739  0.5272
14892TIP3   OH266090   2.327   6.642   5.615 -0.0047  0.4550 -0.0991
14892TIP3    H166091   2.240   6.660   5.580  0.2563  1.1506 -0.4085
14892TIP3    H266092   2.387   6.668   5.545  0.4505 -0.1028  0.0758
14893TIP3   OH266093   5.560   0.674   5.808  0.4563  0.2155 -0.6217
14893TIP3    H166094   5.524   0.638   5.889  0.2682 -1.7344 -1.5210
14893TIP3    H266095   5.507   0.752   5.791 -1.3603 -0.8826 -0.2839
14894TIP3   OH266096   1.607   3.847  16.907  0.5437  0.4178 -0.2310
14894TIP3    H166097   1.680   3.787  16.893  0.1390 -0.4251  1.1158
14894TIP3    H266098   1.540   3.819  16.844  0.5904 -0.1482 -0.0295
14895TIP3   OH266099   3.178   3.085   0.950 -0.4062  0.4571  0.5027
14895TIP3    H166100   3.195   3.098   0.857 -2.3041 -0.2406  0.0081
14895TIP3    H266101   3.171   3.173   0.987  1.7251  0.7600  0.3170
14896TIP3   OH266102   1.992   5.894  16.837  0.8386 -0.2183 -0.2445
14896TIP3    H166103   1.987   5.953  16.761  0.9886 -0.2415 -0.2739
14896TIP3    H266104   1.985   5.807  16.799  2.1558 -0.2942 -0.3763
14897TIP3   OH266105   5.316   3.515   1.968 -0.4344  0.1136 -0.3041
14897TIP3    H166106   5.403   3.529   2.003 -0.6593 -0.0749  0.3369
14897TIP3    H266107   5.260   3.502   2.045 -0.7908 -1.1328 -0.7413
14898TIP3   OH266108   1.988   5.030  16.407 -0.1179  0.7030 -0.5062
14898TIP3    H166109   1.977   4.954  16.350  0.1007  0.0392  0.3139
14898TIP3    H266110   2.020   5.099  16.350  0.8580 -0.1759 -1.0436
14899TIP3   OH266111   3.927   5.593  14.937  0.1940  0.3843 -0.6823
14899TIP3    H166112   3.996   5.536  14.970 -0.7468 -1.5204 -1.8132
14899TIP3    H266113   3.968   5.679  14.928  1.6649 -0.0945  1.0841
14900TIP3   OH266114   1.680   0.190  10.738 -0.1605 -0.2122  0.4961
14900TIP3    H166115   1.676   0.172  10.832 -1.5039 -0.8487  0.3480
14900TIP3    H266116   1.669   0.105  10.697 -2.3060  0.3503 -0.2152
14901TIP3   OH266117   6.385   1.499  14.406 -0.2780 -0.3409  0.2369
14901TIP3    H166118   6.374   1.404  14.394  0.5683 -0.4389  0.1759
14901TIP3    H266119   6.335   1.519  14.485 -1.6129 -0.5911 -0.5171
14902TIP3   OH266120   1.543   4.761  13.864  0.0855 -0.2006  0.1575
14902TIP3    H166121   1.554   4.666  13.854  0.9908 -0.2292  1.2607
14902TIP3    H266122   1.449   4.775  13.857 -0.3705 -1.5374  2.5994
14903TIP3   OH266123   6.262   2.854  12.382  0.4593 -0.3999 -0.3844
14903TIP3    H166124   6.204   2.843  12.306  0.0476 -0.5468 -0.0524
14903TIP3    H266125   6.347   2.819  12.353  0.2654 -0.5870 -0.7307
14904TIP3   OH266126   6.112   0.630   0.212 -0.6993 -0.2464 -0.4102
14904TIP3    H166127   6.205   0.645   0.195 -0.5551 -0.9244 -0.2435
14904TIP3    H266128   6.096   0.671   0.297 -0.8706  1.0441 -1.0382
14905TIP3   OH266129   6.475   5.000  14.180 -0.7476 -0.0303  0.3138
14905TIP3    H166130   6.420   4.942  14.231  0.9968 -0.8902  1.3289
14905TIP3    H266131   6.563   4.964  14.190  0.1312  1.7445 -0.5420
14906TIP3   OH266132   6.659   4.341   3.969 -0.2361  0.3319  0.2908
14906TIP3    H166133   6.684   4.289   3.893  1.0722  0.6882  0.4523
14906TIP3    H266134   6.598   4.285   4.017  1.6141 -1.3645  0.7970
14907TIP3   OH266135   5.682   1.792  15.376 -0.0379  0.4537  0.6271
14907TIP3    H166136   5.597   1.752  15.357  0.4680 -0.5447  0.4465
14907TIP3    H266137   5.680   1.810  15.470 -0.1709 -0.2277  0.7557
14908TIP3   OH266138   3.903   4.067   0.393 -0.7558  0.0458 -0.2647
14908TIP3    H166139   3.947   4.032   0.315 -1.3650 -3.1986  0.6720
14908TIP3    H266140   3.972   4.112   0.441  0.1967 -0.0510 -1.4857
14909TIP3   OH266141   1.058   0.469  13.483 -0.0104  0.3896 -0.3082
14909TIP3    H166142   1.014   0.523  13.549 -1.8719 -0.6933 -0.5793
14909TIP3    H266143   1.023   0.501  13.400 -0.5144 -0.6474 -0.5158
14910TIP3   OH266144   4.205   1.504   4.523  0.1780 -0.0422 -0.2673
14910TIP3    H166145   4.279   1.526   4.466  0.4445  0.9928  0.4345
14910TIP3    H266146   4.183   1.587   4.566  0.0514 -0.7909  1.1926
14911TIP3   OH266147   3.263   3.384   2.751  0.1005 -0.6723  0.2138
14911TIP3    H166148   3.186   3.364   2.805  0.1987  0.7615  0.9088
14911TIP3    H266149   3.337   3.375   2.811  0.3109 -0.2011  0.0230
14912TIP3   OH266150   4.535   0.552  16.707  0.4402 -0.0752 -0.0961
14912TIP3    H166151   4.508   0.464  16.680  0.9463  0.0614 -1.0543
14912TIP3    H266152   4.458   0.606  16.692  0.9647  0.1738 -2.1606
14913TIP3   OH266153   0.131   1.602  13.346 -0.2280  0.9241 -0.5100
14913TIP3    H166154   0.205   1.561  13.301 -1.8700 -0.9896 -1.6544
14913TIP3    H266155   0.161   1.616  13.436  0.7721 -2.0442 -0.2962
14914TIP3   OH266156   3.721   5.778  14.228 -0.5345  0.0417 -0.4919
14914TIP3    H166157   3.806   5.736  14.215 -0.8446 -0.5406 -0.6778
14914TIP3    H266158   3.658   5.706  14.226 -0.8648  0.1980  1.6049
14915TIP3   OH266159   1.504   6.085  15.793 -0.7132 -0.2834  0.2623
14915TIP3    H166160   1.410   6.067  15.800 -0.2491 -3.4671 -0.3474
14915TIP3    H266161   1.536   6.019  15.732  1.5562  2.3245 -1.5961
14916TIP3   OH266162   1.747   1.852  16.532 -0.6032 -0.2870  0.7547
14916TIP3    H166163   1.745   1.831  16.438  0.7214 -1.1921  0.9165
14916TIP3    H266164   1.835   1.884  16.548 -0.9397  0.2445  1.6398
14917TIP3   OH266165   0.897   5.948   2.417 -0.2986 -0.0996 -0.1264
14917TIP3    H166166   0.960   5.959   2.345 -0.5095  0.6454 -0.2066
14917TIP3    H266167   0.950   5.920   2.491 -0.3168 -2.8838 -1.0410
14918TIP3   OH266168   2.012   5.312  16.438 -0.1330 -0.3791  0.1325
14918TIP3    H166169   1.919   5.322  16.422 -0.4711  0.1186  2.0863
14918TIP3    H266170   2.018   5.235  16.496  0.6359 -0.2406  0.2470
14919TIP3   OH266171   0.111   3.062   1.407  0.7437  1.0930 -0.0863
14919TIP3    H166172   0.056   3.128   1.451  0.1501  0.3281  0.3517
14919TIP3    H266173   0.056   3.029   1.336  0.2663 -0.2868  0.8725
14920TIP3   OH266174   2.934   2.045   4.197 -0.2478 -0.0909 -0.0865
14920TIP3    H166175   2.865   2.027   4.261  2.0370 -0.4358  2.4984
14920TIP3    H266176   2.948   1.962   4.153 -0.6261 -0.3481  0.2676
14921TIP3   OH266177   3.947   5.876  14.827  0.1611  0.0896 -0.1862
14921TIP3    H166178   3.924   5.935  14.899 -1.0426  0.3563 -0.7645
14921TIP3    H266179   3.961   5.934  14.752 -0.0969 -0.2839 -0.5295
14922TIP3   OH266180   3.594   6.370   6.408 -0.2527 -0.0051  0.1194
14922TIP3    H166181   3.645   6.393   6.485  0.6091  0.2613 -0.5090
14922TIP3    H266182   3.659   6.361   6.338 -1.0072 -0.2805 -0.5654
14923TIP3   OH266183   4.026   1.991  16.910 -0.1484 -0.1133  0.3686
14923TIP3    H166184   4.012   2.056  16.841  0.8393  0.0845  0.3391
14923TIP3    H266185   4.008   2.038  16.991  1.5182  0.5300  0.4193
14924TIP3   OH266186   3.386   6.601  12.452 -0.3872 -0.0083 -0.0702
14924TIP3    H166187   3.320   6.616  12.384 -0.4340 -0.4431 -0.1245
14924TIP3    H266188   3.460   6.656  12.427 -0.2272 -0.5167 -0.7232
14925TIP3   OH266189   1.863   3.341  13.763  0.3629 -0.1316 -0.2613
14925TIP3    H166190   1.783   3.289  13.759  0.0516  0.4326 -1.8794
14925TIP3    H266191   1.838   3.421  13.809  0.0367 -0.0266 -0.6233
14926TIP3   OH266192   0.114   2.701  16.715  0.2594 -0.7630  0.5683
14926TIP3    H166193   0.149   2.790  16.706  0.1224 -0.5173  2.2054
14926TIP3    H266194   0.019   2.713  16.718  0.2747 -0.8120  1.9738
14927TIP3   OH266195   6.241   6.043  16.783  1.1011 -0.8583  0.2099
14927TIP3    H166196   6.204   6.128  16.806  0.3892 -0.9819 -0.4640
14927TIP3    H266197   6.304   6.025  16.853  1.4992  0.3668  0.1887
14928TIP3   OH266198   5.984   6.132  16.293 -0.5284  0.0346 -0.0538
14928TIP3    H166199   5.942   6.048  16.274  0.3584 -0.1992 -0.9985
14928TIP3    H266200   6.062   6.134  16.238  0.4597  0.6848  1.3028
14929TIP3   OH266201   2.273   0.128   0.659  0.7736  0.1828 -0.0940
14929TIP3    H166202   2.362   0.123   0.625  0.8522  3.0736 -0.5427
14929TIP3    H266203   2.284   0.143   0.753  0.6538 -1.6426  0.2555
14930TIP3   OH266204   3.144   2.901   2.235 -0.4628  0.1685  0.2165
14930TIP3    H166205   3.123   2.923   2.326  0.6899  0.4250  0.4371
14930TIP3    H266206   3.196   2.821   2.240 -2.1032 -0.9868 -0.3844
14931TIP3   OH266207   2.288   1.684   0.752 -0.2194  0.9813  0.3060
14931TIP3    H166208   2.310   1.730   0.833 -1.2248  0.1396  1.0986
14931TIP3    H266209   2.240   1.606   0.782 -2.1288  1.5130 -1.1623
14932TIP3   OH266210   2.103   3.163  17.241  0.5331 -0.7198  0.2401
14932TIP3    H166211   2.173   3.175  17.176  0.1637 -0.8400 -0.1826
14932TIP3    H266212   2.023   3.157  17.189 -0.1040  1.7387  0.8156
14933TIP3   OH266213   4.053   4.665   2.792 -0.2944  0.2374  0.3626
14933TIP3    H166214   3.973   4.702   2.754 -0.1798 -0.0371 -0.1461
14933TIP3    H266215   4.114   4.739   2.795 -0.4380  0.3559  0.3936
14934TIP3   OH266216   2.858   3.237   2.359  0.4373 -0.0593 -1.1496
14934TIP3    H166217   2.827   3.324   2.384  1.1989 -0.1707  0.3015
14934TIP3    H266218   2.806   3.177   2.412  2.7872 -0.2598  1.1361
14935TIP3   OH266219   0.126   5.676   1.500  0.5440  0.7006 -0.4847
14935TIP3    H166220   0.215   5.648   1.521  0.2229 -1.3112 -1.6111
14935TIP3    H266221   0.131   5.708   1.410  0.2499  1.2326 -0.3161
14936TIP3   OH266222   0.094   3.482   4.956 -0.6197  0.0288  0.3826
14936TIP3    H166223   0.069   3.557   4.903  2.2051  0.0693 -1.0842
14936TIP3    H266224   0.117   3.414   4.893  2.1855 -0.1450  1.4392
14937TIP3   OH266225   5.082   3.795   4.779  0.1119 -0.2643  0.0469
14937TIP3    H166226   5.161   3.834   4.742 -0.1755  1.1620  0.8282
14937TIP3    H266227   5.096   3.800   4.874  0.1141 -2.2634  0.1889
14938TIP3   OH266228   1.491   1.505  14.498  0.5189  0.1993  0.0711
14938TIP3    H166229   1.491   1.465  14.411  0.7585  0.0498  0.1411
14938TIP3    H266230   1.487   1.431  14.559  1.2176  0.2658  0.2084
14939TIP3   OH266231   3.664   6.561  12.779  0.1000  0.2809  0.1048
14939TIP3    H166232   3.724   6.486  12.775 -0.6107 -0.4428  1.9869
14939TIP3    H266233   3.580   6.523  12.804 -0.7851  1.4904 -0.9063
14940TIP3   OH266234   2.118   4.010  13.182  0.1291 -0.8909  0.2881
14940TIP3    H166235   2.050   3.960  13.228 -1.1824  1.1534  0.7101
14940TIP3    H266236   2.123   4.093  13.229  0.8401  0.1321 -1.4844
14941TIP3   OH266237   3.832   2.218   2.846  0.3089 -0.0879  0.1817
14941TIP3    H166238   3.740   2.217   2.817  0.8563  0.0958 -1.6895
14941TIP3    H266239   3.859   2.309   2.838  0.3728  0.0619  1.8024
14942TIP3   OH266240   0.334   1.976   0.530  0.2052  0.2898 -0.0975
14942TIP3    H166241   0.378   2.014   0.454  0.2044  0.2729 -0.1066
14942TIP3    H266242   0.397   1.987   0.602 -0.1936  1.2129  0.1268
14943TIP3   OH266243   3.960   3.597  13.834 -0.1237  0.0685 -0.3471
14943TIP3    H166244   3.894   3.537  13.798  0.8602 -0.6733 -0.9981
14943TIP3    H266245   3.912   3.677  13.854 -1.7138 -1.2839  1.5955
14944TIP3   OH266246   0.098   0.338   2.580 -0.2278 -0.0196 -0.0544
14944TIP3    H166247   0.167   0.277   2.607 -2.9019 -2.9444  0.6847
14944TIP3    H266248   0.107   0.344   2.485  0.6879 -0.8100 -0.0328
14945TIP3   OH266249   3.125   1.064   3.929  0.3792  0.0626  0.7533
14945TIP3    H166250   3.113   1.014   4.009  0.5330 -0.5483  0.4051
14945TIP3    H266251   3.215   1.097   3.934  0.4676 -0.1722  0.7260
14946TIP3   OH266252   2.170   2.419  16.474 -0.0847 -0.0055  0.1938
14946TIP3    H166253   2.249   2.366  16.479  2.3391  2.9302 -2.3203
14946TIP3    H266254   2.154   2.447  16.564  3.0910  0.9098  0.5966
14947TIP3   OH266255   0.655   1.629  14.426  0.1520 -0.2572  0.3570
14947TIP3    H166256   0.689   1.714  14.398 -1.3345 -0.1172 -1.0949
14947TIP3    H266257   0.706   1.566  14.377 -0.9009 -0.0787 -1.0126
14948TIP3   OH266258   1.254   3.813  14.194 -0.3598 -0.2980  0.2200
14948TIP3    H166259   1.270   3.720  14.179 -2.4614 -0.3436 -2.7600
14948TIP3    H266260   1.309   3.858  14.130 -0.9038  0.3625  0.2020
14949TIP3   OH266261   5.019   0.728  17.258 -0.0624 -0.5903  0.2117
14949TIP3    H166262   5.106   0.689  17.267 -0.3865 -1.3003  0.3746
14949TIP3    H266263   4.964   0.656  17.229 -0.0890  0.4341 -2.5691
14950TIP3   OH266264   4.093   0.791   0.915 -0.1315 -0.2980 -0.0132
14950TIP3    H166265   4.120   0.872   0.958  0.0148 -0.0800 -0.5157
14950TIP3    H266266   4.007   0.812   0.877 -0.5346 -0.6677  0.6636
14951TIP3   OH266267   4.190   6.106   0.177  0.4166  0.1026 -0.1730
14951TIP3    H166268   4.219   6.189   0.215  0.4680 -0.2588  0.6029
14951TIP3    H266269   4.270   6.066   0.142  0.6751 -0.3387  0.8811
14952TIP3   OH266270   0.011   2.251   5.699  0.0927 -0.5024 -0.1296
14952TIP3    H166271   0.068   2.181   5.732 -1.3483 -1.6060  0.1010
14952TIP3    H266272   0.022   2.248   5.604 -0.9944 -2.0152 -0.2414
14953TIP3   OH266273   1.608   3.124   3.616 -0.0623  0.0816  0.4329
14953TIP3    H166274   1.670   3.192   3.642  1.7843 -1.7850  1.1711
14953TIP3    H266275   1.590   3.075   3.696  1.8750 -2.7384 -0.6870
14954TIP3   OH266276   6.034   5.015  12.882  0.0435 -0.1824 -0.2307
14954TIP3    H166277   6.105   4.957  12.912 -3.1123 -3.9696  0.8528
14954TIP3    H266278   6.019   4.989  12.791 -0.1621  0.3979 -0.3669
14955TIP3   OH266279   1.437   5.294  15.039  0.6568 -0.3350  0.4219
14955TIP3    H166280   1.461   5.319  15.129 -1.5725  3.1668  0.2326
14955TIP3    H266281   1.350   5.257  15.047 -0.3563  1.7061 -0.3513
14956TIP3   OH266282   2.570   4.054   4.826 -0.1782 -0.3604  0.4210
14956TIP3    H166283   2.490   4.092   4.864 -1.0007 -0.9156 -0.7251
14956TIP3    H266284   2.631   4.050   4.900 -1.3079 -0.2314  1.3980
14957TIP3   OH266285   4.219   4.859  11.966  0.0746  0.1842  0.4353
14957TIP3    H166286   4.156   4.907  11.912 -1.2707 -0.3480  1.4721
14957TIP3    H266287   4.171   4.839  12.046  0.6811 -2.6145  0.1789
14958TIP3   OH266288   4.759   3.024   4.569  0.8117 -0.4065  0.0308
14958TIP3    H166289   4.756   3.062   4.657  2.8538 -2.3518  1.0355
14958TIP3    H266290   4.814   3.085   4.519  0.5840  0.1145  0.4022
14959TIP3   OH266291   0.896   6.046   1.129  0.0377  0.1313  0.0190
14959TIP3    H166292   0.988   6.044   1.103  0.0922  1.2529  0.0828
14959TIP3    H266293   0.886   6.128   1.177 -1.6552  1.6051 -2.6012
14960TIP3   OH266294   6.756   4.525  15.326 -0.0659  0.3959 -0.2600
14960TIP3    H166295   6.671   4.487  15.347  0.6137 -0.9808  0.0900
14960TIP3    H266296   6.819   4.467  15.368  1.0878  0.9364 -1.2031
14961TIP3   OH266297   1.767   1.751  16.275  0.5003  0.4753 -0.1239
14961TIP3    H166298   1.712   1.807  16.221  0.2191  1.2854  0.9591
14961TIP3    H266299   1.739   1.662  16.254 -0.2231  0.8141 -0.6373
14962TIP3   OH266300   5.776   5.090  12.299 -0.5883 -0.8666  0.2338
14962TIP3    H166301   5.732   5.095  12.214 -1.4326  1.3467  0.7254
14962TIP3    H266302   5.814   5.003  12.301 -1.0752 -1.2069 -2.1491
14963TIP3   OH266303   0.071   1.415   0.094  0.6865  0.5635  0.2252
14963TIP3    H166304   0.109   1.459   0.169  0.1431 -0.0907  0.8977
14963TIP3    H266305  -0.002   1.471   0.067  0.0863  0.1591  0.9863
14964TIP3   OH266306   3.192   5.169   4.667 -0.4567 -0.1163 -0.6871
14964TIP3    H166307   3.143   5.249   4.682 -1.6725 -0.9949  0.1895
14964TIP3    H266308   3.284   5.197   4.666 -0.9180  1.5194 -2.1600
14965TIP3   OH266309   4.458   6.700   3.540 -0.0217 -0.1429  0.3200
14965TIP3    H166310   4.380   6.697   3.485  0.9610 -1.9122 -1.0859
14965TIP3    H266311   4.516   6.763   3.497  0.4548 -0.9892 -0.3150
14966TIP3   OH266312   4.193   0.994  12.933 -0.1029 -0.2677 -0.2365
14966TIP3    H166313   4.282   1.025  12.948 -0.1648 -0.2031  0.0016
14966TIP3    H266314   4.165   0.961  13.018 -0.3284 -0.2341 -0.2979
14967TIP3   OH266315   4.371   5.038   4.132  0.5705 -0.4144  0.3217
14967TIP3    H166316   4.430   4.988   4.189 -0.6854 -0.2021  1.8993
14967TIP3    H266317   4.381   5.129   4.161 -0.8813 -0.4380  1.0019
14968TIP3   OH266318   2.451   1.899  15.027  0.2939 -0.2098  0.2087
14968TIP3    H166319   2.436   1.983  14.986 -1.4089  0.0169  1.2009
14968TIP3    H266320   2.364   1.867  15.050  1.0224 -1.2342  1.7743
14969TIP3   OH266321   3.216   3.137  12.225 -0.4000 -0.5052 -0.9517
14969TIP3    H166322   3.171   3.200  12.170 -1.4202 -0.7487 -0.4135
14969TIP3    H266323   3.269   3.085  12.164 -0.5696  0.0100 -1.5433
14970TIP3   OH266324   0.268   5.954  15.033 -0.6736 -0.0224 -0.4564
14970TIP3    H166325   0.240   6.022  14.972 -1.7192  1.5506  1.6639
14970TIP3    H266326   0.323   6.000  15.096 -1.1317 -1.2018  0.8478
14971TIP3   OH266327   2.802   3.561   4.644  0.2585 -0.4157  0.0961
14971TIP3    H166328   2.781   3.645   4.685  0.0973 -1.0378  1.3470
14971TIP3    H266329   2.740   3.554   4.572 -0.5654  0.0025  0.7345
14972TIP3   OH266330   0.457   2.049   1.157  0.5576 -0.2943 -0.1512
14972TIP3    H166331   0.523   2.037   1.089  1.7831  0.3517  0.8572
14972TIP3    H266332   0.378   2.009   1.122  0.7759  1.0976 -2.4727
14973TIP3   OH266333   6.256   1.186  13.742  0.4040  0.2311 -0.8336
14973TIP3    H166334   6.306   1.261  13.774 -1.8285  1.2142  0.6596
14973TIP3    H266335   6.182   1.225  13.695  0.3010 -1.1229 -1.8645
14974TIP3   OH266336   5.840   0.691  11.546  0.0245  0.3976  0.6051
14974TIP3    H166337   5.784   0.630  11.498 -1.3646 -0.2061  2.8674
14974TIP3    H266338   5.782   0.732  11.610  1.8840  0.7161  2.1842
14975TIP3   OH266339   0.020   4.529  13.710 -0.1018  0.2787 -0.4433
14975TIP3    H166340   0.062   4.615  13.710  1.0162 -0.2376  1.2888
14975TIP3    H266341   0.089   4.468  13.682 -0.7663 -0.1305 -1.2430
14976TIP3   OH266342   5.120   2.081  17.243 -0.2251  0.5459 -0.0287
14976TIP3    H166343   5.070   2.135  17.305 -0.8428 -0.4692  0.3821
14976TIP3    H266344   5.061   2.008  17.223 -1.1862  2.0705 -3.8307
14977TIP3   OH266345   5.702   3.428   4.829 -0.1117  0.8607 -0.5454
14977TIP3    H166346   5.736   3.516   4.811  1.0760  0.4908 -0.2430
14977TIP3    H266347   5.651   3.406   4.751 -0.6803  1.9228 -0.5015
14978TIP3   OH266348   0.079   0.810   0.844 -0.2606  0.0077 -0.2458
14978TIP3    H166349   0.089   0.878   0.910  0.1351  1.6560 -1.8929
14978TIP3    H266350   0.094   0.728   0.890 -1.2507  0.9779  1.9302
14979TIP3   OH266351   2.609   3.177   0.216 -0.0368  0.5482  0.4115
14979TIP3    H166352   2.570   3.108   0.163  1.2282 -0.4691  0.7378
14979TIP3    H266353   2.559   3.176   0.298 -0.2912  0.2974  0.2522
14980TIP3   OH266354   3.604   3.299   0.822 -0.3867  0.4911 -0.0062
14980TIP3    H166355   3.645   3.295   0.735 -0.1807  0.8993  0.0683
14980TIP3    H266356   3.544   3.225   0.823 -0.9476  0.9209 -0.7801
14981TIP3   OH266357   0.233   0.300  12.306 -0.4180  0.2593 -0.0887
14981TIP3    H166358   0.264   0.361  12.239 -1.5643  1.1838  0.1875
14981TIP3    H266359   0.149   0.336  12.334 -0.0392 -0.1717  1.7493
14982TIP3   OH266360   0.239   3.718  11.504 -0.2713  0.3799 -0.3021
14982TIP3    H166361   0.169   3.770  11.464 -0.3252  0.1491 -0.5134
14982TIP3    H266362   0.306   3.714  11.436 -0.3027  0.1049 -0.3182
14983TIP3   OH266363   3.067   1.928   0.882 -0.5124  0.0125  0.7860
14983TIP3    H166364   3.160   1.925   0.902  0.0699  0.9673 -1.3897
14983TIP3    H266365   3.045   1.839   0.854  0.2116  0.1849 -0.3927
14984TIP3   OH266366   2.096   1.129  14.908 -0.1590 -0.0699 -0.0211
14984TIP3    H166367   2.106   1.048  14.857  1.8315 -0.6998  1.2793
14984TIP3    H266368   2.002   1.133  14.927 -1.0497  0.2177 -3.6502
14985TIP3   OH266369   5.946   4.541  16.111 -0.1372 -0.0550 -0.0516
14985TIP3    H166370   5.972   4.526  16.020 -1.0018  1.5135 -0.5895
14985TIP3    H266371   5.865   4.592  16.105  0.5212  1.2535  1.6071
14986TIP3   OH266372   1.160   5.303  16.752 -0.6716  0.7012  0.1057
14986TIP3    H166373   1.163   5.396  16.729  0.3483  0.4966 -0.6582
14986TIP3    H266374   1.072   5.289  16.787 -0.1749  2.4263  2.2909
14987TIP3   OH266375   1.970   3.554  13.482 -0.1947  0.1314  0.4445
14987TIP3    H166376   1.944   3.559  13.574 -3.5292  0.1186 -0.3469
14987TIP3    H266377   1.966   3.644  13.451  0.0429  0.0259  0.1024
14988TIP3   OH266378   1.237   5.729  12.057 -0.0510  0.0588  0.1066
14988TIP3    H166379   1.257   5.636  12.048  0.7266  0.0880  1.3498
14988TIP3    H266380   1.209   5.739  12.148 -0.1204  1.0450 -0.0165
14989TIP3   OH266381   3.616   5.730  13.574  0.0830  0.0565  0.3907
14989TIP3    H166382   3.566   5.667  13.523 -1.0143 -0.7086  2.3080
14989TIP3    H266383   3.676   5.676  13.626  0.0367  0.6923  1.1179
14990TIP3   OH266384   5.957   4.039  15.666  0.3613 -0.0491  0.5323
14990TIP3    H166385   6.047   4.012  15.686  0.3725  0.6748  1.5259
14990TIP3    H266386   5.903   3.990  15.729  0.1714  0.4189  0.7375
14991TIP3   OH266387   4.150   3.954   2.367 -0.0234  0.2580 -0.5436
14991TIP3    H166388   4.126   4.022   2.430 -1.8696  0.3301 -1.2573
14991TIP3    H266389   4.238   3.978   2.338  0.5245  0.6752  1.3685
14992TIP3   OH266390   5.714   0.307   2.194 -0.2074 -0.3719 -0.0819
14992TIP3    H166391   5.679   0.396   2.188  0.3329 -0.1132  0.4445
14992TIP3    H266392   5.737   0.284   2.104  0.8391  0.5235 -0.0616
14993TIP3   OH266393   2.305   4.134   4.835 -0.2550 -0.1646 -0.3831
14993TIP3    H166394   2.283   4.124   4.742  2.2383 -0.7428 -0.9723
14993TIP3    H266395   2.254   4.066   4.879  1.2663 -2.4011 -1.8410
14994TIP3   OH266396   2.816   1.437   1.707  0.5697 -0.2011 -0.1538
14994TIP3    H166397   2.830   1.493   1.630 -1.3254  1.0495  0.3511
14994TIP3    H266398   2.903   1.400   1.725  2.0646  2.8881 -0.2935
14995TIP3   OH266399   6.655   1.007   2.007 -0.1553  0.5357 -0.0630
14995TIP3    H166400   6.664   1.028   2.100 -0.1479  0.9371 -0.1503
14995TIP3    H266401   6.648   1.092   1.964  0.9155  0.3984 -0.5374
14996TIP3   OH266402   2.108   4.833  16.220 -0.0533  0.3337 -0.4296
14996TIP3    H166403   2.175   4.806  16.283  0.4231  0.4772 -0.8766
14996TIP3    H266404   2.133   4.922  16.194 -0.2066  0.2476 -0.8827
14997TIP3   OH266405   5.109   5.817  13.345  0.5834  0.3195  0.0665
14997TIP3    H166406   5.154   5.783  13.423 -0.6196 -2.2610 -0.2726
14997TIP3    H266407   5.020   5.834  13.375  0.3817  0.3033 -0.5218
14998TIP3   OH266408   3.214   6.161   1.344 -0.2981  0.2110  0.1609
14998TIP3    H166409   3.210   6.213   1.264 -1.3235  1.0079  0.6894
14998TIP3    H266410   3.273   6.089   1.324 -1.2842 -0.1527 -1.6178
14999TIP3   OH266411   3.409   3.715   4.980 -0.4325 -0.2501  0.6164
14999TIP3    H166412   3.358   3.795   4.994 -0.3406 -0.2972  1.2497
14999TIP3    H266413   3.378   3.655   5.047  1.7974  0.3752  2.3054
15000TIP3   OH266414   4.164   2.688   5.335 -0.3606 -0.0117 -0.2867
15000TIP3    H166415   4.115   2.746   5.393  1.4574  0.4519  0.8648
15000TIP3    H266416   4.215   2.633   5.393 -0.3062 -1.2204 -1.4262
15001TIP3   OH266417   6.345   0.270   6.351 -0.2591  0.5983  0.2348
15001TIP3    H166418   6.356   0.339   6.416 -0.0750  0.1625  0.6715
15001TIP3    H266419   6.433   0.259   6.314 -0.3933  0.9478 -0.1985
15002TIP3   OH266420   2.734   0.743   4.361  0.1502 -0.8439  0.3540
15002TIP3    H166421   2.679   0.753   4.439  0.3116 -0.2140  0.3884
15002TIP3    H266422   2.761   0.651   4.363  1.9257 -0.3808  2.2651
15003TIP3   OH266423   5.591   0.732   1.461 -0.4221  0.6053  0.6894
15003TIP3    H166424   5.611   0.698   1.373  1.4884  1.3025  0.8077
15003TIP3    H266425   5.572   0.655   1.513  2.1770 -0.2174  0.5427
15004TIP3   OH266426   2.152   2.912   3.383  0.2217  0.0365 -0.2812
15004TIP3    H166427   2.193   2.998   3.395  0.1222 -0.0908  1.0741
15004TIP3    H266428   2.069   2.918   3.429  0.7684 -1.1772  0.9250
15005TIP3   OH266429   1.113   6.083   4.738 -0.3724  0.7742 -0.1733
15005TIP3    H166430   1.061   6.092   4.658 -0.9875  1.7104  0.3087
15005TIP3    H266431   1.059   6.028   4.795  0.8840 -1.4834 -1.0389
15006TIP3   OH266432   5.923   6.459  16.966  0.4375 -0.3905 -0.7991
15006TIP3    H166433   5.946   6.498  16.881  0.9847 -0.5505 -0.7312
15006TIP3    H266434   6.006   6.425  16.999 -0.1099 -2.0752 -1.0887
15007TIP3   OH266435   3.279   0.948  17.247 -0.0775  0.2813  0.5638
15007TIP3    H166436   3.311   1.031  17.282  0.0293  0.3178  0.3848
15007TIP3    H266437   3.358   0.903  17.217  0.0787 -0.6755  2.2939
15008TIP3   OH266438   2.094   5.259  13.244 -0.0422  0.2249 -0.5695
15008TIP3    H166439   2.081   5.349  13.275  1.1240  0.2981 -0.2489
15008TIP3    H266440   2.036   5.251  13.169 -0.5742  1.0664 -0.2610
15009TIP3   OH266441   3.127   1.203   4.608 -0.4255  0.3127  0.5255
15009TIP3    H166442   3.114   1.232   4.518 -0.0524  0.1016  0.4034
15009TIP3    H266443   3.213   1.162   4.608  0.5401  2.2107  1.4544
15010TIP3   OH266444   0.761   6.330   3.705 -0.0120  0.4548 -0.1755
15010TIP3    H166445   0.695   6.277   3.751 -1.1615  1.2521 -0.8703
15010TIP3    H266446   0.844   6.302   3.743 -0.4787 -2.3462 -0.9474
15011TIP3   OH266447   3.178   2.925   5.548 -0.4759 -0.0209 -0.3377
15011TIP3    H166448   3.171   3.007   5.597 -0.8342  0.3268 -0.9592
15011TIP3    H266449   3.258   2.884   5.581  0.5386  1.2978 -1.0877
15012TIP3   OH266450   4.644   4.466  11.167 -0.3151 -0.4401 -0.0597
15012TIP3    H166451   4.568   4.524  11.156  0.5340  0.3975 -2.0623
15012TIP3    H266452   4.679   4.456  11.078  0.9699 -2.1266  0.5896
15013TIP3   OH266453   1.392   6.544   4.723 -0.1635  0.1219  0.0872
15013TIP3    H166454   1.330   6.478   4.755  0.3988  0.1670  1.3428
15013TIP3    H266455   1.413   6.596   4.801  0.9082  0.5477 -0.4677
15014TIP3   OH266456   1.148   6.296   1.531 -0.1689  0.6619  0.2612
15014TIP3    H166457   1.220   6.343   1.573 -0.0214  0.3973  0.3000
15014TIP3    H266458   1.109   6.243   1.600 -0.9200  1.4187  0.4441
15015TIP3   OH266459   2.434   6.609  14.593 -0.0084  0.3989  0.1349
15015TIP3    H166460   2.393   6.523  14.595  0.2319  0.1912 -2.0772
15015TIP3    H266461   2.528   6.592  14.596  0.0379  0.7563  2.4087
15016TIP3   OH266462   5.512   6.322   1.105  0.2040 -0.8606 -0.0172
15016TIP3    H166463   5.483   6.231   1.114  1.1082 -1.1414  0.1076
15016TIP3    H266464   5.589   6.328   1.161 -0.7276  0.3982  1.1973
15017TIP3   OH266465   1.049   1.233   2.606 -0.4339 -0.1660  0.0236
15017TIP3    H166466   1.013   1.160   2.556 -0.1628 -0.3855  0.1526
15017TIP3    H266467   1.143   1.230   2.591 -0.3831 -0.0472  0.3008
15018TIP3   OH266468   0.038   0.244   6.471 -0.0884  0.1001 -0.3519
15018TIP3    H166469   0.008   0.320   6.420  0.7456  0.1570 -0.7733
15018TIP3    H266470  -0.001   0.257   6.557  1.6157  2.1072  0.2141
15019TIP3   OH266471   2.204   5.401  11.759  0.4274 -0.1632 -0.5589
15019TIP3    H166472   2.272   5.423  11.695 -0.1577  2.7935 -0.3077
15019TIP3    H266473   2.125   5.444  11.726 -0.1293  0.5965  1.5869
15020TIP3   OH266474   5.319   1.146   4.147 -0.3690  0.2541  0.1522
15020TIP3    H166475   5.233   1.119   4.115 -1.8345  2.8134  1.6017
15020TIP3    H266476   5.308   1.153   4.242  1.9291 -0.7966  0.5682
15021TIP3   OH266477   3.587   2.565  13.826  0.0601  0.8253 -0.0255
15021TIP3    H166478   3.578   2.512  13.904 -1.2586  0.4513 -0.4154
15021TIP3    H266479   3.640   2.512  13.767  1.4367  1.2902  0.7415
15022TIP3   OH266480   4.221   5.308  16.022  0.0744  0.0645  0.1116
15022TIP3    H166481   4.239   5.229  16.072 -0.9374  0.2798  0.8695
15022TIP3    H266482   4.225   5.281  15.931  0.7371 -0.6262  0.3412
15023TIP3   OH266483   0.129   0.566  14.991 -0.1454 -0.2387  0.0048
15023TIP3    H166484   0.055   0.556  14.931  1.6666 -0.3414 -2.3101
15023TIP3    H266485   0.172   0.481  14.990 -1.3305 -1.0372  3.3700
15024TIP3   OH266486   4.135   1.819   2.729  0.0265  0.1373  0.3831
15024TIP3    H166487   4.190   1.792   2.803  0.2292 -1.9584 -0.4650
15024TIP3    H266488   4.168   1.905   2.704  0.4971  0.5231  2.1818
15025TIP3   OH266489   4.806   5.184   3.111 -0.1581 -0.1168  0.1276
15025TIP3    H166490   4.805   5.173   3.206 -0.7779 -0.6162  0.0729
15025TIP3    H266491   4.771   5.272   3.097  1.2250  0.5033  0.4107
15026TIP3   OH266492   5.154   3.156  12.605  0.0985 -0.4183  0.2560
15026TIP3    H166493   5.176   3.111  12.523  1.3366  0.3989  0.1135
15026TIP3    H266494   5.234   3.200  12.630 -0.2713 -0.6273  1.9224
15027TIP3   OH266495   2.056   4.621  17.371  0.0728  0.4970 -0.4107
15027TIP3    H166496   2.032   4.639  17.280  1.1580  1.9280 -0.4360
15027TIP3    H266497   2.146   4.589  17.366 -0.7859 -2.2440 -0.0584
15028TIP3   OH266498   1.699   5.910  14.411 -0.5593 -0.2475 -0.5756
15028TIP3    H166499   1.607   5.898  14.434 -0.2764 -0.3153  0.5732
15028TIP3    H266500   1.712   5.852  14.335 -0.9399 -1.9385  0.5896
15029TIP3   OH266501   4.279   3.426   1.527  1.0288  0.2863 -0.3196
15029TIP3    H166502   4.314   3.348   1.486  1.3300 -0.9130  2.0615
15029TIP3    H266503   4.184   3.420   1.513  0.9875 -0.8527  0.3897
15030TIP3   OH266504   4.485   3.655  11.851  0.0638 -0.3253  0.8799
15030TIP3    H166505   4.420   3.599  11.894 -0.0352 -0.8494  0.0653
15030TIP3    H266506   4.568   3.611  11.867 -0.0353 -0.8257  0.0754
15031TIP3   OH266507   6.526   6.646  16.645 -0.7315  0.1370 -0.5247
15031TIP3    H166508   6.575   6.643  16.727 -1.2891 -1.1903 -0.2151
15031TIP3    H266509   6.436   6.666  16.672 -1.2839 -1.9945 -0.5904
15032TIP3   OH266510   5.765   4.671   1.485 -0.2933  0.1044  0.4295
15032TIP3    H166511   5.846   4.715   1.462  1.5617 -2.6523  1.1438
15032TIP3    H266512   5.749   4.696   1.576 -0.5653  1.0557  0.1323
15033TIP3   OH266513   0.966   2.710   1.667 -0.1458  0.2046  0.5845
15033TIP3    H166514   0.996   2.622   1.643  1.4222  1.0085 -0.5826
15033TIP3    H266515   0.871   2.702   1.673  0.0249 -1.7611  1.3766
15034TIP3   OH266516   1.936   4.117  14.590 -0.6160  0.0060 -0.3391
15034TIP3    H166517   1.953   4.108  14.496  1.7565  0.9672 -0.0674
15034TIP3    H266518   1.928   4.027  14.621 -2.0608 -0.3254 -1.5022
15035TIP3   OH266519   2.158   3.416  13.046  0.1382  0.0959 -0.0186
15035TIP3    H166520   2.084   3.473  13.068 -0.5298 -0.0703 -1.6238
15035TIP3    H266521   2.170   3.429  12.952  1.5934 -0.5544  0.0590
15036TIP3   OH266522   2.215   5.729  12.888 -0.1310 -0.0579  0.1858
15036TIP3    H166523   2.230   5.659  12.825 -0.9374 -1.0443  1.0537
15036TIP3    H266524   2.302   5.749  12.922  0.1999 -0.1215 -0.5909
15037TIP3   OH266525   6.722   6.669  17.153  0.4755 -0.0832  0.3209
15037TIP3    H166526   6.817   6.679  17.163  0.3307  1.8463  0.0891
15037TIP3    H266527   6.700   6.728  17.081 -0.9795 -0.0850  0.7438
15038TIP3   OH266528   0.123   4.334   3.004 -0.1441 -0.1959  0.2185
15038TIP3    H166529   0.066   4.396   3.049 -1.0599 -0.5049 -0.4884
15038TIP3    H266530   0.156   4.277   3.073  1.2222  1.4237  0.9851
15039TIP3   OH266531   5.454   2.531   3.061 -0.4513  0.2419 -0.0592
15039TIP3    H166532   5.430   2.517   2.969  2.9478 -1.0331 -0.9340
15039TIP3    H266533   5.447   2.626   3.074 -0.1018  0.5699 -1.9657
15040TIP3   OH266534   6.104   4.849  12.688 -0.9857  0.5055 -0.0788
15040TIP3    H166535   6.172   4.874  12.625 -1.1397 -0.9880 -0.8916
15040TIP3    H266536   6.153   4.816  12.763 -0.7954  0.2800 -0.2983
15041TIP3   OH266537   1.223   4.971  11.535 -0.2152  0.0251  0.2393
15041TIP3    H166538   1.164   4.964  11.461 -0.8574  1.1584  0.6128
15041TIP3    H266539   1.174   4.936  11.609  0.1839 -0.5068  0.2577
15042TIP3   OH266540   3.021   5.768  16.763  0.3440  1.1507 -1.1165
15042TIP3    H166541   3.042   5.845  16.711  1.8861  0.2130 -1.9894
15042TIP3    H266542   3.105   5.741  16.801 -0.2455  0.1837 -0.4333
15043TIP3   OH266543   0.507   3.410  13.697  0.2196  0.1431 -0.2023
15043TIP3    H166544   0.433   3.366  13.654  0.2172 -1.8657  1.6517
15043TIP3    H266545   0.577   3.407  13.633  0.0538 -2.2626 -0.3841
15044TIP3   OH266546   5.608   4.493   5.331 -0.6402  0.1997  0.4490
15044TIP3    H166547   5.684   4.493   5.273  0.2786  0.0532  1.6122
15044TIP3    H266548   5.535   4.519   5.275  0.2404  0.2208 -0.7243
15045TIP3   OH266549   6.006   3.864   1.040  0.1438 -0.6369  0.5066
15045TIP3    H166550   5.919   3.847   1.003 -0.3820  0.9291  0.9613
15045TIP3    H266551   6.047   3.924   0.977  0.8295 -1.1881  0.4115
15046TIP3   OH266552   3.891   1.685   5.121  0.3933 -0.4015  0.1816
15046TIP3    H166553   3.892   1.707   5.028  0.8391 -0.6520  0.1198
15046TIP3    H266554   3.865   1.593   5.124 -0.4090 -0.1702  0.3621
15047TIP3   OH266555   5.969   5.949  11.369 -0.0056  0.0948  0.3145
15047TIP3    H166556   5.881   5.913  11.374  0.3249 -1.0537 -1.3320
15047TIP3    H266557   5.963   6.020  11.306  0.3482 -0.3442 -0.2195
15048TIP3   OH266558   2.704   5.292  14.358  0.2678 -0.0613 -0.1643
15048TIP3    H166559   2.651   5.268  14.282  0.7841 -0.4786 -0.4003
15048TIP3    H266560   2.654   5.361  14.401 -0.7881 -0.8764 -0.0249
15049TIP3   OH266561   0.086   2.392  11.927  0.3521  0.5828  0.6712
15049TIP3    H166562   0.044   2.442  11.858  0.6564  1.7372  1.2967
15049TIP3    H266563   0.160   2.446  11.954  3.1668 -1.9350 -1.3008
15050TIP3   OH266564   4.386   1.906  15.570 -0.2138  0.2922 -0.8318
15050TIP3    H166565   4.398   1.847  15.645  2.4905  1.9475  0.1771
15050TIP3    H266566   4.456   1.881  15.509 -0.7893  0.6612 -1.6568
15051TIP3   OH266567   2.494   4.915   3.681  0.4662  0.0653  0.5061
15051TIP3    H166568   2.424   4.874   3.732 -0.7566 -1.6970 -2.3301
15051TIP3    H266569   2.453   4.993   3.644  0.0795 -0.7034 -0.7568
15052TIP3   OH266570   1.846   4.047  12.152 -0.4143  0.1980 -0.3077
15052TIP3    H166571   1.917   4.024  12.091  0.6801  1.2615  0.5277
15052TIP3    H266572   1.816   3.962  12.185  1.4341 -0.2556  0.3686
15053TIP3   OH266573   6.535   5.431   5.681 -0.0265  0.2827 -0.2166
15053TIP3    H166574   6.561   5.425   5.773  0.7086 -2.0232 -0.4967
15053TIP3    H266575   6.512   5.523   5.668  2.2303  1.2136  1.6435
15054TIP3   OH266576   3.829   5.477  14.488  0.2906  0.9789 -0.1511
15054TIP3    H166577   3.792   5.544  14.546  0.1438  0.2616  0.5978
15054TIP3    H266578   3.850   5.404  14.546  0.1783  0.2569 -1.0027
15055TIP3   OH266579   1.293   3.826  16.236  0.6494 -0.3691 -0.4913
15055TIP3    H166580   1.263   3.825  16.145 -0.6701 -5.2914 -0.2600
15055TIP3    H266581   1.213   3.842  16.287  1.1665  1.0595 -0.0672
15056TIP3   OH266582   0.147   3.170  16.230  0.1583 -0.0531 -0.1872
15056TIP3    H166583   0.164   3.248  16.179  0.1551  0.0512 -0.0282
15056TIP3    H266584   0.052   3.169  16.242  0.2419  0.3878  0.5543
15057TIP3   OH266585   4.059   1.616  11.259  0.3815 -0.5791  0.0460
15057TIP3    H166586   3.991   1.560  11.223  0.9570 -0.9575 -0.4707
15057TIP3    H266587   4.122   1.627  11.187 -0.5078  2.0751 -0.4356
15058TIP3   OH266588   1.239   6.658  13.190  0.3977 -0.1612 -0.2411
15058TIP3    H166589   1.253   6.752  13.181 -0.5461  0.0419  0.3747
15058TIP3    H266590   1.196   6.647  13.275 -0.7692 -1.0145 -0.9178
15059TIP3   OH266591   1.731   5.381  12.927  0.5776 -0.5447 -0.1898
15059TIP3    H166592   1.719   5.470  12.893  0.4498 -0.0236  1.1706
15059TIP3    H266593   1.669   5.328  12.877 -0.1435  0.3278 -0.2373
15060TIP3   OH266594   6.053   6.359  16.516 -0.7481 -0.4865  0.2908
15060TIP3    H166595   5.985   6.329  16.456  0.3048  0.3116 -1.3998
15060TIP3    H266596   6.124   6.295  16.506  0.0364  0.4607 -0.5447
15061TIP3   OH266597   1.205   2.930  16.724  0.0492 -0.3878  0.5693
15061TIP3    H166598   1.170   2.913  16.636  1.2986  0.9665 -0.2515
15061TIP3    H266599   1.207   3.026  16.730  0.0428 -0.4636  2.0635
15062TIP3   OH266600   4.154   2.278  14.251 -0.3442  0.0279 -0.0763
15062TIP3    H166601   4.189   2.227  14.179 -1.1978  1.4028 -1.5218
15062TIP3    H266602   4.059   2.275  14.239 -0.4461  1.2243  0.3056
15063TIP3   OH266603   5.489   5.609   3.526  0.7516 -0.4825 -0.3291
15063TIP3    H166604   5.397   5.632   3.515  0.9984 -0.3567 -2.7107
15063TIP3    H266605   5.515   5.651   3.608 -1.7365 -2.1299  1.4512
15064TIP3   OH266606   4.257   5.759  12.534 -1.0974 -0.3786 -0.4804
15064TIP3    H166607   4.264   5.723  12.446 -0.1477 -1.2306 -0.0789
15064TIP3    H266608   4.163   5.772  12.548 -1.7281 -4.2781 -0.0602
15065TIP3   OH266609   6.139   1.507   4.804 -0.4087  0.1746 -0.4850
15065TIP3    H166610   6.194   1.441   4.847 -1.5286 -0.1643  0.5007
15065TIP3    H266611   6.200   1.575   4.776  0.4902 -0.0885  0.7475
15066TIP3   OH266612   3.812   1.165  11.979 -0.0353 -0.2124  0.7018
15066TIP3    H166613   3.729   1.203  11.948  0.8216  0.4802 -0.8190
15066TIP3    H266614   3.831   1.096  11.916  0.2413 -0.7904  1.4113
15067TIP3   OH266615   2.654   4.709   0.410  0.2112  0.7620  0.1954
15067TIP3    H166616   2.644   4.740   0.500 -0.1115 -0.7848  0.7212
15067TIP3    H266617   2.745   4.680   0.405  0.2370  0.8738  0.0045
15068TIP3   OH266618   4.357   4.324  13.113 -0.1778  0.2885 -0.5974
15068TIP3    H166619   4.415   4.367  13.176 -1.1067 -0.0348  0.5223
15068TIP3    H266620   4.395   4.344  13.028  2.0860 -0.6635  0.1084
15069TIP3   OH266621   4.885   4.671  14.110 -0.0291  0.2939 -0.2616
15069TIP3    H166622   4.940   4.746  14.132  0.3749  0.2687 -1.1258
15069TIP3    H266623   4.804   4.685  14.158  0.4017  0.7993  0.3232
15070TIP3   OH266624   2.233   2.174  15.195  0.0391 -0.1270  0.3250
15070TIP3    H166625   2.282   2.255  15.186 -1.3444  0.6042 -0.9759
15070TIP3    H266626   2.262   2.120  15.121  0.9523 -0.8624  1.1815
15071TIP3   OH266627   3.191   3.864  11.189  0.4143  0.0605  0.0798
15071TIP3    H166628   3.125   3.800  11.161 -0.9952  1.6336 -0.3311
15071TIP3    H266629   3.147   3.917  11.255  1.4304  0.8303  0.1599
15072TIP3   OH266630   2.550   0.784  16.401  0.0598 -0.5219 -0.6757
15072TIP3    H166631   2.461   0.769  16.369  0.6894 -0.1143 -2.7361
15072TIP3    H266632   2.571   0.873  16.375  1.3369 -0.8550 -0.8726
15073TIP3   OH266633   4.846   0.327  15.998 -0.1526 -0.3263 -0.2601
15073TIP3    H166634   4.846   0.238  16.033  0.9875 -0.6871 -1.1448
15073TIP3    H266635   4.753   0.350  15.992 -0.4305 -1.0347  0.9826
15074TIP3   OH266636   2.654   5.916  12.613  0.5870 -0.7905 -0.1064
15074TIP3    H166637   2.632   5.970  12.537 -0.4244 -0.3743  0.4563
15074TIP3    H266638   2.748   5.899  12.604  0.4593 -0.9101 -1.5395
15075TIP3   OH266639   1.081   2.044  16.650 -0.2720  0.1774  0.1881
15075TIP3    H166640   1.046   2.124  16.689  0.0691  1.9219 -2.8096
15075TIP3    H266641   1.175   2.059  16.644 -0.3790  0.2632 -1.7988
15076TIP3   OH266642   1.950   3.074  11.978 -0.5163  0.3057 -0.3485
15076TIP3    H166643   1.899   3.081  12.058 -0.6534 -0.6668 -0.3391
15076TIP3    H266644   1.947   2.981  11.955  0.4926  0.3747 -0.8435
15077TIP3   OH266645   2.779   6.502   0.862 -0.1853  0.3398  0.1628
15077TIP3    H166646   2.844   6.565   0.890  1.1546 -0.5751 -0.7617
15077TIP3    H266647   2.778   6.436   0.931 -1.7367  1.3989  1.2333
15078TIP3   OH266648   6.685   4.081  13.696 -0.0025 -0.3708 -0.5167
15078TIP3    H166649   6.735   4.055  13.773  0.1613  1.8479  0.1681
15078TIP3    H266650   6.594   4.083  13.727 -0.2105 -1.4841 -0.9776
15079TIP3   OH266651   6.457   1.240   5.882 -0.0562  0.0003  0.0322
15079TIP3    H166652   6.499   1.282   5.958 -1.0721 -2.3196  2.0119
15079TIP3    H266653   6.505   1.159   5.871 -2.1273 -1.3686  0.5362
15080TIP3   OH266654   0.585   4.312  15.253 -0.1457  0.3616  0.3996
15080TIP3    H166655   0.609   4.378  15.188  0.2549  0.0356  0.2135
15080TIP3    H266656   0.489   4.313  15.254 -0.2493 -1.3116 -1.9568
15081TIP3   OH266657   6.057   0.128   5.589  0.3192 -0.4162  0.0795
15081TIP3    H166658   6.065   0.033   5.604 -0.8270 -0.5058  0.2181
15081TIP3    H266659   5.963   0.142   5.575  0.3802  0.8090  0.8011
15082TIP3   OH266660   1.983   0.779  10.814  0.2454  0.3836  0.1610
15082TIP3    H166661   1.964   0.844  10.747  1.0563  0.2268 -0.2310
15082TIP3    H266662   2.032   0.710  10.768  2.6656  1.2329  1.2770
15083TIP3   OH266663   2.528   0.119   3.404  0.1153 -0.1129 -0.1468
15083TIP3    H166664   2.618   0.148   3.417  0.4024 -1.2838  0.6772
15083TIP3    H266665   2.497   0.170   3.329  0.9679  1.3618  0.4609
15084TIP3   OH266666   5.380   0.031  11.290  0.1937  0.3250 -0.2060
15084TIP3    H166667   5.413  -0.044  11.240  0.1662  0.1950 -0.0315
15084TIP3    H266668   5.291   0.044  11.256 -0.1981 -0.3975  0.4956
15085TIP3   OH266669   2.055   0.679   1.206  0.2268  0.3546 -0.3438
15085TIP3    H166670   2.047   0.619   1.132  1.3566  0.5282 -0.6360
15085TIP3    H266671   2.118   0.636   1.265  0.2243  0.7507 -0.0454
15086TIP3   OH266672   1.205   0.588  12.106 -0.4232  0.0107  0.5996
15086TIP3    H166673   1.110   0.594  12.118 -0.7613 -2.3980 -0.3576
15086TIP3    H266674   1.232   0.676  12.080 -2.9635 -0.0205 -2.6812
15087TIP3   OH266675   0.297   3.913  14.793  0.7255  0.4289 -0.6254
15087TIP3    H166676   0.253   3.929  14.876  1.4018  0.2111 -0.2158
15087TIP3    H266677   0.259   3.977  14.733 -0.5231 -0.1090 -0.4301
15088TIP3   OH266678   2.846   2.501   3.201  0.5693 -0.5859  0.1903
15088TIP3    H166679   2.860   2.589   3.235 -0.1115 -1.0984  1.9470
15088TIP3    H266680   2.928   2.455   3.217  0.0982 -0.9672  1.7648
15089TIP3   OH266681   6.407   4.914   3.632  0.8823  0.6064 -0.2995
15089TIP3    H166682   6.403   4.927   3.727  0.9507  0.7947 -0.3222
15089TIP3    H266683   6.499   4.920   3.610  0.7434  2.1887 -0.5944
15090TIP3   OH266684   1.192   0.718   3.731 -0.6646 -0.2279 -0.7364
15090TIP3    H166685   1.160   0.700   3.819 -1.2582  1.4651 -0.5633
15090TIP3    H266686   1.113   0.732   3.679 -0.3021 -0.5469 -1.3781
15091TIP3   OH266687   1.178   2.849  16.083  0.8128 -0.2162  0.5326
15091TIP3    H166688   1.250   2.905  16.055  3.0523 -3.2393 -0.2515
15091TIP3    H266689   1.175   2.859  16.178  1.4369  0.8585  0.4548
15092TIP3   OH266690   5.748   3.969   3.137  0.1589 -0.2871 -0.2204
15092TIP3    H166691   5.708   3.886   3.164 -1.0628  0.5327  0.6275
15092TIP3    H266692   5.751   3.964   3.042  1.1169 -1.7367 -0.1543
15093TIP3   OH266693   4.715   3.678   4.023  0.4153 -0.0886  0.5558
15093TIP3    H166694   4.743   3.711   3.938 -1.5828  0.4494  0.0389
15093TIP3    H266695   4.795   3.648   4.066  1.6294  0.8422 -0.9825
15094TIP3   OH266696   0.111   6.127  12.991 -0.1951 -0.2879 -0.3581
15094TIP3    H166697   0.135   6.123  12.898 -1.5620  1.0442 -0.8036
15094TIP3    H266698   0.160   6.202  13.025  0.5353 -0.9523  0.0980
15095TIP3   OH266699   3.954   3.018   3.067  0.3909 -0.4738 -0.3576
15095TIP3    H166700   4.001   2.943   3.104  1.3505  0.7542  1.0314
15095TIP3    H266701   3.914   3.061   3.143 -3.5102 -1.7170 -1.4931
15096TIP3   OH266702   1.589   1.859   4.117  0.0093  0.4325 -0.4096
15096TIP3    H166703   1.544   1.790   4.068 -0.8602  0.4939  0.2838
15096TIP3    H266704   1.609   1.819   4.202 -0.4682  1.0158 -0.0151
15097TIP3   OH266705   0.296   2.949   5.845 -0.6023  0.2559 -0.0721
15097TIP3    H166706   0.316   2.889   5.773 -0.3593 -0.2771  0.4353
15097TIP3    H266707   0.269   2.892   5.917  2.8776  0.3943  1.5570
15098TIP3   OH266708   5.405   0.059  13.086 -0.0432 -0.6852 -0.3422
15098TIP3    H166709   5.323   0.012  13.076 -0.5736 -0.0066  0.6512
15098TIP3    H266710   5.394   0.111  13.165  0.7182  0.6847 -1.0884
15099TIP3   OH266711   6.113   0.627  11.359 -0.2218 -0.3609 -0.5345
15099TIP3    H166712   6.147   0.694  11.299 -0.3286  0.7051  0.5450
15099TIP3    H266713   6.018   0.633  11.350 -0.2221 -1.9544 -2.0783
15100TIP3   OH266714   2.417   1.364  16.097  0.1342 -0.1372 -0.2074
15100TIP3    H166715   2.491   1.334  16.150  0.5938  0.1678 -0.6760
15100TIP3    H266716   2.440   1.340  16.007  0.8069  2.1386 -0.7003
15101TIP3   OH266717   2.955   6.202   0.510 -0.3407  0.3833 -0.0617
15101TIP3    H166718   3.025   6.137   0.513 -0.1352  0.6196  1.8631
15101TIP3    H266719   2.911   6.192   0.595 -0.3771  2.6627  0.2278
15102TIP3   OH266720   1.769   1.590   1.444 -0.1332  0.0897  0.4299
15102TIP3    H166721   1.674   1.598   1.432  0.1599  2.4707 -0.9594
15102TIP3    H266722   1.785   1.496   1.444 -2.3987 -0.3705 -0.2304
15103TIP3   OH266723   3.268   6.711   0.468  0.4861  0.1240  0.0016
15103TIP3    H166724   3.274   6.759   0.385 -0.7403  0.0526 -0.1410
15103TIP3    H266725   3.359   6.702   0.497  0.7894  2.0926 -0.2198
15104TIP3   OH266726   1.137   1.281   1.408  0.4283  0.5237 -0.5091
15104TIP3    H166727   1.097   1.252   1.326 -0.9648  1.5041 -0.2134
15104TIP3    H266728   1.118   1.211   1.470  1.9166 -0.4573 -1.0943
15105TIP3   OH266729   0.212   0.495   0.649  0.0565  0.4194 -0.4460
15105TIP3    H166730   0.287   0.441   0.673 -1.1752 -2.0752 -1.7974
15105TIP3    H266731   0.154   0.490   0.724  0.3099  0.5498 -0.2403
15106TIP3   OH266732   2.960   4.810   0.221  0.0326  0.3270  0.0937
15106TIP3    H166733   2.984   4.903   0.219  2.0605  0.0247  3.2548
15106TIP3    H266734   3.035   4.765   0.182 -0.8764 -0.0685 -1.2822
15107TIP3   OH266735   3.659   6.415   4.022 -0.2529  0.1610 -0.4046
15107TIP3    H166736   3.724   6.441   4.088 -0.8508  0.6315  0.0071
15107TIP3    H266737   3.683   6.466   3.944  0.2738 -0.1703 -0.4632
15108TIP3   OH266738   2.864   5.061  14.279 -0.3130 -0.0129 -0.0912
15108TIP3    H166739   2.855   5.154  14.299  1.4607  0.1475  0.1841
15108TIP3    H266740   2.913   5.025  14.354 -0.3323 -1.0118 -0.5389
15109TIP3   OH266741   1.230   2.086   5.313 -0.7235 -0.0643 -0.2665
15109TIP3    H166742   1.226   2.058   5.221  1.9689  0.4924 -0.6411
15109TIP3    H266743   1.252   2.179   5.308 -0.1115 -0.1320  0.9289
15110TIP3   OH266744   4.443   4.943   1.453 -0.1733 -0.3280  0.0051
15110TIP3    H166745   4.464   4.958   1.361 -4.1835 -1.7800 -1.3040
15110TIP3    H266746   4.506   4.877   1.482  1.3507  0.3832 -1.5062
15111TIP3   OH266747   4.164   5.075   1.020  0.3077 -0.6108 -0.3382
15111TIP3    H166748   4.209   5.001   1.060  0.6419  0.7067  1.9192
15111TIP3    H266749   4.202   5.082   0.933  0.6749 -2.7214 -0.3950
15112TIP3   OH266750   1.950   3.260   1.297 -0.3446 -0.1597 -0.2731
15112TIP3    H166751   1.918   3.170   1.292  0.9452 -0.6198 -0.6819
15112TIP3    H266752   1.990   3.266   1.384  1.5965 -0.7262 -1.0769
15113TIP3   OH266753   6.469   0.738   5.624  0.7804  0.1782 -0.1547
15113TIP3    H166754   6.424   0.736   5.540 -0.6064  1.3089  0.5304
15113TIP3    H266755   6.488   0.830   5.640 -0.0270  0.1304  1.2858
15114TIP3   OH266756   1.087   0.015   4.996  0.3029  0.0153 -0.3250
15114TIP3    H166757   1.052   0.099   5.027 -1.7585 -1.6941  2.5266
15114TIP3    H266758   1.180   0.019   5.016  0.3978  1.8566 -0.9497
15115TIP3   OH266759   2.091   5.167  15.114  0.1727 -0.7326 -0.7099
15115TIP3    H166760   2.036   5.089  15.120 -0.8620  0.0211  0.2416
15115TIP3    H266761   2.109   5.190  15.206  1.3579 -0.4647 -0.9979
15116TIP3   OH266762   5.685   2.463   2.359 -0.5844 -0.0801 -0.0915
15116TIP3    H166763   5.743   2.442   2.286 -0.5627  1.9560 -0.7238
15116TIP3    H266764   5.629   2.386   2.369 -1.0647 -0.1350 -2.7152
15117TIP3   OH266765   2.634   5.352   2.321  0.3703  0.3285  0.1959
15117TIP3    H166766   2.650   5.271   2.369  0.5479  0.5475  0.5094
15117TIP3    H266767   2.690   5.417   2.364  0.4433  0.5523 -0.2352
15118TIP3   OH266768   4.950   1.103   2.563 -0.1133  0.2808 -0.0411
15118TIP3    H166769   5.041   1.085   2.538 -0.7135 -0.5409 -1.8219
15118TIP3    H266770   4.942   1.198   2.556  0.0241  0.1818 -2.2193
15119TIP3   OH266771   4.059   4.563   1.987 -0.2816 -0.1338  0.5537
15119TIP3    H166772   4.016   4.524   1.911 -2.7872 -0.5255  2.0720
15119TIP3    H266773   4.143   4.518   1.993  1.4595  2.0300 -3.6759
15120TIP3   OH266774   2.694   0.915   5.574 -0.4752 -0.1658 -0.0600
15120TIP3    H166775   2.619   0.950   5.526 -1.1459  0.9997  1.7429
15120TIP3    H266776   2.658   0.842   5.624 -0.2614 -0.0546  0.2585
15121TIP3   OH266777   6.770   2.339   2.011  0.1808  0.1836 -0.4741
15121TIP3    H166778   6.804   2.263   2.059  2.2941  1.5109  0.2705
15121TIP3    H266779   6.706   2.378   2.071 -0.4175 -0.6185 -0.5793
15122TIP3   OH266780   3.309   0.285   1.805 -0.2678  0.0990 -0.0624
15122TIP3    H166781   3.399   0.314   1.793  0.4802 -1.5999  1.0160
15122TIP3    H266782   3.255   0.361   1.782  1.2098  0.0139 -4.6825
15123TIP3   OH266783   3.781   6.541   4.451  0.7719  0.2409 -0.1807
15123TIP3    H166784   3.727   6.474   4.491  1.6253 -0.0350  0.5470
15123TIP3    H266785   3.739   6.624   4.474  1.4631  0.1193  1.6933
15124TIP3   OH266786   5.676   1.636   0.604 -0.2993 -0.3451 -0.2653
15124TIP3    H166787   5.747   1.575   0.585 -0.3018  0.1118 -1.8669
15124TIP3    H266788   5.693   1.711   0.546 -1.8693 -0.0737 -0.4034
15125TIP3   OH266789   2.109   0.485   0.999  0.1395 -0.3036  0.2903
15125TIP3    H166790   2.151   0.469   0.914 -0.1711  0.0178  0.0733
15125TIP3    H266791   2.174   0.456   1.063 -0.6217 -3.0321 -0.0674
15126TIP3   OH266792   6.219   3.739  13.311 -0.5874  0.2285 -0.3097
15126TIP3    H166793   6.171   3.656  13.306 -0.8752  0.3349  0.5650
15126TIP3    H266794   6.219   3.761  13.404  1.9852 -0.2515 -0.1078
15127TIP3   OH266795   6.682   3.185  11.631 -0.2659 -0.6251 -0.1639
15127TIP3    H166796   6.750   3.199  11.565 -0.2342 -2.7698 -0.6730
15127TIP3    H266797   6.719   3.220  11.711  1.4597 -1.6778 -0.4467
15128TIP3   OH266798   3.852   0.101   2.707  0.7481  0.1388  0.7526
15128TIP3    H166799   3.940   0.105   2.668 -0.0903  1.8148 -1.1679
15128TIP3    H266800   3.866   0.121   2.799  2.3174  1.5845  0.2629
15129TIP3   OH266801   3.070   5.968  15.359  0.7597 -0.7783  0.1232
15129TIP3    H166802   3.041   5.890  15.311 -0.4595  0.0385 -0.5003
15129TIP3    H266803   2.998   5.987  15.419  1.4040 -0.5897  0.8470
15130TIP3   OH266804   2.361   5.828   1.614  0.1711  0.1507 -0.1205
15130TIP3    H166805   2.449   5.794   1.632  0.5646  1.5804  0.8862
15130TIP3    H266806   2.376   5.908   1.563 -0.4093  1.2208  1.2937
15131TIP3   OH266807   1.320   3.569  14.661 -0.3140 -0.4042  0.0828
15131TIP3    H166808   1.270   3.501  14.706  0.5643 -0.0969  1.6164
15131TIP3    H266809   1.297   3.559  14.569 -1.2882 -1.8486  0.4423
15132TIP3   OH266810   1.616   6.116  11.005 -0.5618 -0.4154  0.2537
15132TIP3    H166811   1.614   6.096  10.911 -0.6924 -2.2421  0.6082
15132TIP3    H266812   1.571   6.200  11.013 -0.8568 -0.4070 -1.2755
15133TIP3   OH266813   0.057   1.155  16.206  0.5260  0.2456  0.2894
15133TIP3    H166814   0.007   1.235  16.190 -0.6967 -0.7856 -1.3795
15133TIP3    H266815   0.144   1.173  16.171  0.9040  1.5096  1.7785
15134TIP3   OH266816   0.889   6.630  15.704  0.0263  0.1960  0.0229
15134TIP3    H166817   0.895   6.584  15.788 -2.0985 -2.5057 -1.1617
15134TIP3    H266818   0.821   6.697  15.718  0.0690  0.1257  0.5874
15135TIP3   OH266819   3.212   2.508   3.470 -0.2881  0.3369  0.0768
15135TIP3    H166820   3.235   2.415   3.465  2.1516  0.8633  0.2430
15135TIP3    H266821   3.254   2.547   3.394 -1.3416  1.3203 -0.0181
15136TIP3   OH266822   3.529   0.988  12.026 -0.1641  0.5064  0.2128
15136TIP3    H166823   3.465   0.920  12.008  0.4556 -0.3448  1.1342
15136TIP3    H266824   3.585   0.989  11.949 -0.7706  0.6859 -0.2384
15137TIP3   OH266825   1.252   2.985  12.155  0.3409  0.2340  0.1718
15137TIP3    H166826   1.226   2.913  12.214  0.6526 -0.7204 -0.8198
15137TIP3    H266827   1.170   3.010  12.112  0.2535  0.3879  0.4254
15138TIP3   OH266828   6.572   0.201  13.698  0.0415 -0.4308  0.4601
15138TIP3    H166829   6.654   0.157  13.680  1.0123  1.1289  0.8220
15138TIP3    H266830   6.560   0.193  13.793 -0.0084 -0.3116  0.4646
15139TIP3   OH266831   3.031   6.052  13.337  0.0972 -0.1459  0.1054
15139TIP3    H166832   3.010   5.972  13.288  1.2370 -0.5079  0.1778
15139TIP3    H266833   2.988   6.040  13.422 -2.1459  0.6142 -0.8385
15140TIP3   OH266834   4.994   2.927   0.514  0.3160  0.1632  0.6405
15140TIP3    H166835   5.036   2.855   0.468  0.7442  0.1965  0.9648
15140TIP3    H266836   5.054   3.001   0.503 -1.2677  1.2081 -1.8042
15141TIP3   OH266837   4.694   2.654   2.667  0.3615  0.0922  0.1004
15141TIP3    H166838   4.632   2.727   2.672 -0.3724 -0.4317 -1.0080
15141TIP3    H266839   4.642   2.577   2.686  1.1825 -0.1659  1.4870
15142TIP3   OH266840   2.303   5.398  15.706 -0.0591  0.0996  0.1188
15142TIP3    H166841   2.227   5.355  15.665 -1.9389  2.3874  1.0010
15142TIP3    H266842   2.317   5.349  15.787  0.3137 -1.1673 -0.6755
15143TIP3   OH266843   5.572   0.255  16.781  0.4864  0.0885  0.0371
15143TIP3    H166844   5.576   0.348  16.804  0.1131 -0.1189  1.0176
15143TIP3    H266845   5.651   0.218  16.820 -0.7778 -0.4950  2.1858
15144TIP3   OH266846   4.921   6.075   1.055  0.2669 -0.5668  0.0230
15144TIP3    H166847   4.906   6.133   1.129  1.7363 -0.3742  0.1986
15144TIP3    H266848   4.857   6.101   0.990 -0.8398 -0.5401  1.1036
15145TIP3   OH266849   1.845   4.352   2.965  0.0847  0.1616  0.1823
15145TIP3    H166850   1.771   4.407   2.938 -0.1332  0.1394  0.7253
15145TIP3    H266851   1.815   4.263   2.947  0.5209  0.2203 -0.9000
15146TIP3   OH266852   1.208   5.045   3.402  0.0602 -0.1545  0.5701
15146TIP3    H166853   1.204   5.140   3.404 -0.0296 -0.0908  4.0501
15146TIP3    H266854   1.118   5.017   3.389  0.2353  0.1460 -1.6454
15147TIP3   OH266855   3.093   4.264   3.810 -0.0527 -0.8259  1.0308
15147TIP3    H166856   3.063   4.319   3.738 -2.1199 -0.3669  2.1650
15147TIP3    H266857   3.138   4.325   3.869 -0.5302 -0.7230  1.2947
15148TIP3   OH266858   3.247   5.727  11.469 -0.1549  0.1356  0.1639
15148TIP3    H166859   3.245   5.698  11.378 -0.2397 -2.9548  1.0463
15148TIP3    H266860   3.327   5.780  11.476  1.1757 -1.5700 -1.2167
15149TIP3   OH266861   5.265   3.608  17.331  0.3624 -0.0880  0.2008
15149TIP3    H166862   5.251   3.702  17.340  0.7515 -0.0448  0.3619
15149TIP3    H266863   5.360   3.597  17.334  0.3259 -0.4713  0.0332
15150TIP3   OH266864   5.666   2.798  13.274 -0.0678 -0.0900  0.4674
15150TIP3    H166865   5.665   2.749  13.356 -2.0042  1.2929  1.3456
15150TIP3    H266866   5.582   2.779  13.233 -0.7346  2.1030  0.6643
15151TIP3   OH266867   1.057   5.912   2.189 -0.6138 -0.0317  0.7508
15151TIP3    H166868   1.145   5.935   2.221 -0.6419 -2.2345  2.6646
15151TIP3    H266869   1.059   5.935   2.096  1.3167  1.7546  1.1428
15152TIP3   OH266870   2.584   3.710   0.443  0.2755 -0.9383  0.4120
15152TIP3    H166871   2.537   3.669   0.370 -1.8413 -0.1844  1.2816
15152TIP3    H266872   2.528   3.783   0.470  2.2007  0.3196  1.2309
15153TIP3   OH266873   2.970   0.330  10.558 -0.3642 -0.1246  0.0172
15153TIP3    H166874   2.903   0.389  10.592 -1.6793  0.3261 -3.0550
15153TIP3    H266875   2.932   0.243  10.565 -1.0304  0.0626 -1.0776
15154TIP3   OH266876   2.366   2.221  12.569 -0.2269  0.7891 -0.0113
15154TIP3    H166877   2.271   2.213  12.559 -0.2910 -0.2460  1.1676
15154TIP3    H266878   2.380   2.312  12.595 -1.0773  0.5708  1.3171
15155TIP3   OH266879   0.873   1.961   2.017 -0.2516  0.4884  0.2003
15155TIP3    H166880   0.957   1.925   1.987 -0.3647 -0.0442  0.5079
15155TIP3    H266881   0.881   1.962   2.112 -0.1409  1.5683  0.1930
15156TIP3   OH266882   5.891   5.871  14.390  0.1542 -0.1029 -0.5991
15156TIP3    H166883   5.907   5.920  14.471  1.2196 -1.3195 -0.0403
15156TIP3    H266884   5.797   5.880  14.375  0.0450  0.6745  0.4162
15157TIP3   OH266885   3.007   4.455   3.571  0.6676 -0.0350 -0.3388
15157TIP3    H166886   3.037   4.378   3.523 -0.1439 -0.6177  0.0814
15157TIP3    H266887   2.912   4.450   3.568  0.5820 -0.4418  1.8991
15158TIP3   OH266888   3.742   5.373   2.788  0.0329 -0.4220 -0.3230
15158TIP3    H166889   3.673   5.424   2.831  0.5918 -0.6962  0.9302
15158TIP3    H266890   3.822   5.423   2.803 -0.0425  0.7201 -3.1213
15159TIP3   OH266891   2.385   3.421   3.340 -0.7055  0.2875 -0.2042
15159TIP3    H166892   2.450   3.366   3.383 -2.0143 -3.0396 -2.1049
15159TIP3    H266893   2.301   3.392   3.375 -1.4471  1.1943 -1.1386
15160TIP3   OH266894   2.162   3.385   3.512 -0.0458 -0.4792 -0.2557
15160TIP3    H166895   2.069   3.395   3.494 -0.2251 -0.5142  0.5894
15160TIP3    H266896   2.174   3.427   3.597  0.8189  0.0154 -0.6147
15161TIP3   OH266897   1.314   5.920   1.298 -0.5745  0.3384  0.2128
15161TIP3    H166898   1.222   5.940   1.318 -0.5000  2.9426 -1.6439
15161TIP3    H266899   1.364   5.969   1.363 -0.3988 -1.6006  1.6472
15162TIP3   OH266900   1.176   5.279  15.909  0.2634 -0.5399 -0.0176
15162TIP3    H166901   1.088   5.312  15.892  0.4422 -1.0290 -2.2454
15162TIP3    H266902   1.170   5.236  15.994 -1.8534 -1.1591 -0.4183
15163TIP3   OH266903   4.595   0.547  14.871  0.3169  0.2435  0.2021
15163TIP3    H166904   4.630   0.492  14.801 -1.4857  1.2230 -1.5707
15163TIP3    H266905   4.534   0.490  14.917  0.5997 -0.0542  0.2156
15164TIP3   OH266906   1.013   0.903  13.798 -0.6107  0.5226 -0.0499
15164TIP3    H166907   1.093   0.895  13.745 -1.4392 -0.2608 -1.2271
15164TIP3    H266908   1.045   0.920  13.887  0.9499 -1.5670 -0.1450
15165TIP3   OH266909   0.385   2.657   4.438  0.2773 -0.4100 -0.1756
15165TIP3    H166910   0.371   2.577   4.489 -0.3159 -0.2880 -0.1343
15165TIP3    H266911   0.412   2.722   4.503  2.0883 -0.8962 -0.3950
15166TIP3   OH266912   3.599   4.355   5.213 -0.2174 -0.1273 -0.1078
15166TIP3    H166913   3.651   4.345   5.134  0.5626  1.7634  0.1315
15166TIP3    H266914   3.549   4.435   5.200 -3.2528 -1.8930 -0.3708
15167TIP3   OH266915   4.418   1.089  15.130 -0.0174  0.3866 -0.2583
15167TIP3    H166916   4.443   1.166  15.079  0.0975  0.8807  0.5187
15167TIP3    H266917   4.500   1.046  15.152 -0.1331 -0.6275 -1.6611
15168TIP3   OH266918   2.913   2.241   6.079  0.2609  0.2401 -0.1502
15168TIP3    H166919   2.875   2.327   6.098  0.2976 -0.2012  2.3488
15168TIP3    H266920   2.950   2.213   6.163  2.7360 -1.0222 -1.5359
15169TIP3   OH266921   2.093   0.217  14.260 -0.0385  0.3009 -0.0407
15169TIP3    H166922   2.188   0.229  14.250 -0.2184  1.4281 -0.5869
15169TIP3    H266923   2.062   0.195  14.173 -0.4246  1.0834 -0.1076
15170TIP3   OH266924   4.274   0.624  16.659 -0.0927  0.3441 -0.1098
15170TIP3    H166925   4.206   0.664  16.713  1.9317  2.0413  1.3568
15170TIP3    H266926   4.263   0.530  16.672 -0.6498  0.6640  2.0874
15171TIP3   OH266927   5.114   0.198  15.018 -0.2953  0.6225 -0.4702
15171TIP3    H166928   5.143   0.218  15.107 -2.3217  0.9005  0.1977
15171TIP3    H266929   5.153   0.266  14.964  1.5091  0.0629  0.0650
15172TIP3   OH266930   1.252   2.300   3.534  0.4934 -0.4746 -0.7621
15172TIP3    H166931   1.160   2.274   3.533  0.3764 -0.1919  0.4430
15172TIP3    H266932   1.254   2.383   3.486  0.2836 -0.9433 -1.5924
15173TIP3   OH266933   6.595   4.762   4.491 -0.0148  0.0795  0.4366
15173TIP3    H166934   6.684   4.786   4.464  0.2968 -1.0944  0.3293
15173TIP3    H266935   6.539   4.831   4.456  0.3170 -1.3606 -3.4174
15174TIP3   OH266936   5.437   4.294   4.613 -0.2858 -0.2504  0.6537
15174TIP3    H166937   5.526   4.298   4.578 -0.3193 -0.5309  0.5355
15174TIP3    H266938   5.417   4.385   4.636 -0.0147 -0.1664  0.5690
15175TIP3   OH266939   2.251   6.216   0.130 -0.0727  0.2131 -0.1443
15175TIP3    H166940   2.166   6.228   0.088 -0.7582  0.9877  1.3546
15175TIP3    H266941   2.278   6.304   0.156 -0.1145 -0.2698  1.7382
15176TIP3   OH266942   4.222   1.573  14.778  0.2321  0.6988  0.2465
15176TIP3    H166943   4.219   1.480  14.755  2.1088  0.2800  1.4221
15176TIP3    H266944   4.173   1.579  14.860  0.3983  0.6660  0.3500
15177TIP3   OH266945   1.346   6.143   2.489  0.8230  0.1977 -0.0336
15177TIP3    H166946   1.348   6.238   2.481 -1.3183  0.3441  0.6687
15177TIP3    H266947   1.407   6.124   2.561  1.0496  1.0502  0.0172
15178TIP3   OH266948   6.258   2.546  13.379  0.3527 -0.0734 -0.4969
15178TIP3    H166949   6.266   2.535  13.474 -0.3489  1.2844 -0.2559
15178TIP3    H266950   6.303   2.470  13.343  1.2891 -0.2320  0.9077
15179TIP3   OH266951   2.928   2.050  13.679  0.1535 -0.6049  0.2071
15179TIP3    H166952   2.884   2.049  13.764  1.5459 -0.1545  0.9639
15179TIP3    H266953   3.019   2.028  13.699  0.3419 -1.3318 -1.2865
15180TIP3   OH266954   0.629   0.425  16.127  0.2783 -0.1482  0.7293
15180TIP3    H166955   0.595   0.411  16.215  1.7893 -1.1079  1.2033
15180TIP3    H266956   0.721   0.446  16.140  0.5102 -0.2381 -0.6208
15181TIP3   OH266957   4.170   5.022   1.455 -0.1670  0.0599  0.0211
15181TIP3    H166958   4.237   4.974   1.406 -1.6589 -1.2195 -0.8104
15181TIP3    H266959   4.178   4.989   1.545 -0.1355 -0.5994 -0.2202
15182TIP3   OH266960   1.203   3.253   1.890  0.7299  0.5955 -0.3807
15182TIP3    H166961   1.235   3.237   1.979  1.2377  0.6748 -0.5446
15182TIP3    H266962   1.118   3.294   1.902  0.0142 -0.9537  0.0613
15183TIP3   OH266963   0.564   4.063  12.223 -0.3304  0.0684  0.1889
15183TIP3    H166964   0.538   4.128  12.287 -0.4110  0.9481 -0.7127
15183TIP3    H266965   0.594   4.114  12.148 -0.4749 -0.9276 -0.5664
15184TIP3   OH266966   3.364   0.417  12.699  0.2106 -0.1683  0.6193
15184TIP3    H166967   3.390   0.432  12.790 -1.9733 -0.0515  1.2902
15184TIP3    H266968   3.268   0.415  12.702  0.0462  0.9037 -1.8619
15185TIP3   OH266969   5.778   2.928  16.606  0.7117 -0.1997 -0.1365
15185TIP3    H166970   5.761   2.935  16.512 -0.5698 -1.3888 -0.0241
15185TIP3    H266971   5.692   2.917  16.645  1.2534 -0.0070  1.1683
15186TIP3   OH266972   6.186   2.610  12.884  0.1924  0.1125  0.2467
15186TIP3    H166973   6.261   2.621  12.943 -0.9087  1.7678  1.4251
15186TIP3    H266974   6.212   2.654  12.804 -0.3953  3.1106  1.5515
15187TIP3   OH266975   1.041   6.236  15.877 -0.3741 -0.4696  0.1106
15187TIP3    H166976   1.023   6.176  15.805  0.9823  0.4671 -1.0800
15187TIP3    H266977   1.080   6.313  15.835 -0.6519  0.6137  1.7312
15188TIP3   OH266978   5.641   0.050   6.658 -0.2354 -0.0003 -0.0180
15188TIP3    H166979   5.688  -0.006   6.597 -1.3960 -0.0593 -0.8854
15188TIP3    H266980   5.570   0.089   6.606 -0.3496  1.1206  0.9229
15189TIP3   OH266981   4.881   1.435   4.988  0.0161 -0.0038 -0.0077
15189TIP3    H166982   4.919   1.357   5.027 -2.3248 -1.9242 -1.3131
15189TIP3    H266983   4.818   1.466   5.053  0.4327  0.3906  0.2121
15190TIP3   OH266984   4.556   1.232   6.725 -0.1606  0.6433  0.1761
15190TIP3    H166985   4.522   1.298   6.665  0.2362  0.8138  0.1346
15190TIP3    H266986   4.479   1.181   6.751 -0.2056 -0.0840 -1.2626
15191TIP3   OH266987   1.696   2.445  13.878 -0.1559 -0.0521  0.1238
15191TIP3    H166988   1.680   2.440  13.783 -2.7998 -1.6900  0.5438
15191TIP3    H266989   1.789   2.466  13.885  0.6104 -1.7530 -2.8635
15192TIP3   OH266990   1.867   2.733   5.718 -0.1871 -0.4454 -0.0471
15192TIP3    H166991   1.825   2.794   5.779  0.6775 -0.2922  0.4097
15192TIP3    H266992   1.898   2.662   5.773  0.8207 -0.1885 -0.2667
15193TIP3   OH266993   6.191   2.550  13.992  0.0378 -0.3205  0.1306
15193TIP3    H166994   6.205   2.524  13.901  0.3715 -0.4077  0.2027
15193TIP3    H266995   6.131   2.624  13.987  2.0629  1.3866 -0.3605
15194TIP3   OH266996   3.780   3.216   4.302 -0.0917  0.1587  0.1643
15194TIP3    H166997   3.820   3.285   4.355  0.5725 -1.1880  1.4606
15194TIP3    H266998   3.724   3.264   4.240  0.9895  1.9003  0.4549
15195TIP3   OH266999   0.777   6.101  11.747  0.1354 -0.2114  0.5437
15195TIP3    H167000   0.733   6.162  11.806 -0.4524  0.3969 -0.5130
15195TIP3    H267001   0.715   6.086  11.676  1.1918 -0.1960 -0.4181
15196TIP3   OH267002   2.806   6.369  14.374 -0.2720 -0.1704 -0.5768
15196TIP3    H167003   2.858   6.310  14.430  0.1898 -0.0373 -0.8585
15196TIP3    H267004   2.851   6.453  14.381 -0.5857  0.0039 -0.6508
15197TIP3   OH267005   1.636   0.853   5.567  0.4861  0.0898  0.1635
15197TIP3    H167006   1.606   0.796   5.638  1.4125  0.0844  0.5751
15197TIP3    H267007   1.596   0.938   5.586 -2.1978 -0.7400 -1.3387
15198TIP3   OH267008   1.333   6.171   0.468  0.0056 -0.0118  0.5825
15198TIP3    H167009   1.266   6.220   0.420 -0.7404 -0.1617  1.4343
15198TIP3    H267010   1.322   6.080   0.440  0.3059  0.0660  0.2138
15199TIP3   OH267011   5.888   0.010  10.481  0.1089  0.3398  0.2978
15199TIP3    H167012   5.981   0.033  10.489  0.3250 -0.3442 -0.0937
15199TIP3    H267013   5.888  -0.068  10.426 -0.5132 -0.9854  2.0791
15200TIP3   OH267014   3.545   3.176   1.927  0.0373  0.1417  0.2672
15200TIP3    H167015   3.558   3.266   1.898 -0.2892 -0.2210 -1.0758
15200TIP3    H267016   3.450   3.166   1.932  0.0709 -0.1662  0.3012
15201TIP3   OH267017   3.034   4.602  12.962  0.9688 -0.4827  0.2662
15201TIP3    H167018   3.111   4.600  12.906  1.2618  0.6804  0.5919
15201TIP3    H267019   3.059   4.660  13.035 -0.6465  1.0038 -0.2922
15202TIP3   OH267020   3.353   1.034   6.033 -0.3604  0.9260 -0.0476
15202TIP3    H167021   3.358   1.000   5.944 -2.2453  4.7085 -1.8008
15202TIP3    H267022   3.299   0.969   6.079  2.3444 -2.1925 -0.8651
15203TIP3   OH267023   4.609   3.005   6.251  0.3517 -0.7491 -0.6294
15203TIP3    H167024   4.539   3.066   6.273  1.0292  0.2312 -1.1667
15203TIP3    H267025   4.626   2.959   6.334  0.5002  0.4587  0.0291
15204TIP3   OH267026   2.560   0.373  11.536 -0.2957  0.1103  0.0837
15204TIP3    H167027   2.610   0.405  11.461 -0.3552  0.0413  0.0150
15204TIP3    H267028   2.536   0.452  11.585 -1.4906  0.2858 -0.7339
15205TIP3   OH267029   2.044   4.968   4.442 -0.5294 -0.3674 -1.2712
15205TIP3    H167030   2.027   4.896   4.503 -0.0298  0.0436 -0.6322
15205TIP3    H267031   1.988   5.039   4.472 -0.1854 -0.1192 -1.2037
15206TIP3   OH267032   2.306   6.695  10.395  0.2781 -0.0495 -0.4160
15206TIP3    H167033   2.382   6.737  10.436 -0.4564  1.2185 -0.3159
15206TIP3    H267034   2.272   6.761  10.335 -0.1739 -0.9725 -1.1902
15207TIP3   OH267035   6.751   0.991  13.428 -0.2910  0.3379  0.0896
15207TIP3    H167036   6.763   0.916  13.486 -3.2724 -1.2198 -1.1177
15207TIP3    H267037   6.743   1.066  13.488  1.9362 -0.3274  1.3491
15208TIP3   OH267038   4.478   2.858   5.776  0.1266  0.0954 -0.3755
15208TIP3    H167039   4.509   2.862   5.866  0.0826 -0.8698 -0.3069
15208TIP3    H267040   4.495   2.945   5.741  3.1894 -0.3985 -0.4022
15209TIP3   OH267041   5.137   4.927   2.372 -0.1122  0.0811 -0.3233
15209TIP3    H167042   5.148   4.841   2.412  2.8928 -0.1465 -1.4192
15209TIP3    H267043   5.147   4.989   2.444 -2.0691 -0.3898  0.4306
15210TIP3   OH267044   6.494   1.869   5.468  0.1069  0.4097 -0.1155
15210TIP3    H167045   6.522   1.960   5.463 -1.3842  0.9294  0.3913
15210TIP3    H267046   6.443   1.855   5.388  0.5437 -0.0574 -0.3158
15211TIP3   OH267047   5.868   2.058  13.062  0.1607 -0.3004  0.3165
15211TIP3    H167048   5.942   2.057  13.123  1.1951 -1.4163 -0.8951
15211TIP3    H267049   5.804   2.116  13.103  2.1098  1.5389  0.9088
15212TIP3   OH267050   3.003   0.132  16.815  0.5771 -0.0380  0.2412
15212TIP3    H167051   3.014   0.107  16.906 -0.9951  0.4656  0.5931
15212TIP3    H267052   3.012   0.227  16.814  1.9510 -0.1437 -0.3711
15213TIP3   OH267053   0.097   1.999  13.072  0.3160  0.2232  0.0906
15213TIP3    H167054   0.006   2.027  13.069  0.1924  0.1401  2.1335
15213TIP3    H267055   0.145   2.074  13.108  1.3486  0.7997 -2.2367
15214TIP3   OH267056   2.252   4.309   5.458 -0.5668  0.2897 -0.1578
15214TIP3    H167057   2.202   4.387   5.481 -0.8358 -0.2828  1.2967
15214TIP3    H267058   2.342   4.331   5.480 -0.9356 -0.5806  2.5519
15215TIP3   OH267059   2.915   4.528   0.015  0.5138  0.0128 -0.5870
15215TIP3    H167060   3.008   4.551   0.016  0.5532 -0.1436  0.0429
15215TIP3    H267061   2.892   4.519   0.108 -0.0212 -0.3807 -0.7550
15216TIP3   OH267062   5.146   0.813   2.829 -0.0769 -0.6430 -0.9873
15216TIP3    H167063   5.176   0.843   2.743 -1.0544  0.7170 -0.8898
15216TIP3    H267064   5.169   0.885   2.888  0.2665 -1.4129 -0.1705
15217TIP3   OH267065   6.177   3.537  14.132 -0.0021 -0.3723  0.4586
15217TIP3    H167066   6.104   3.596  14.151  0.7245 -0.1756  3.1182
15217TIP3    H267067   6.247   3.594  14.101 -0.1533 -0.2147  0.4064
15218TIP3   OH267068   5.189   4.476   5.065  0.6332  0.3077  0.3443
15218TIP3    H167069   5.272   4.433   5.045  1.1889  1.3776  0.2723
15218TIP3    H267070   5.129   4.404   5.086  1.3627 -0.5258 -0.3461
15219TIP3   OH267071   2.621   5.703  15.629  0.4990  0.0405  0.5545
15219TIP3    H167072   2.608   5.670  15.540  0.0551  0.8476  0.3096
15219TIP3    H267073   2.715   5.723  15.634  0.3282  1.0933 -0.1351
15220TIP3   OH267074   5.505   5.152   1.175  0.4820  0.0435 -0.2019
15220TIP3    H167075   5.440   5.116   1.114 -1.3236  1.6595  0.6451
15220TIP3    H267076   5.559   5.209   1.121 -0.6969  0.9671 -0.4433
15221TIP3   OH267077   0.901   3.876   3.052 -0.3106 -0.5350 -0.1095
15221TIP3    H167078   0.949   3.950   3.090  1.4012 -2.5176  1.8581
15221TIP3    H267079   0.946   3.858   2.970  0.1002 -0.2392  0.0482
15222TIP3   OH267080   3.930   1.779  16.768  0.0270  0.2467 -0.0867
15222TIP3    H167081   4.017   1.784  16.729  1.0163 -2.6255  1.4447
15222TIP3    H267082   3.936   1.832  16.847 -0.0555  1.1020 -0.6417
15223TIP3   OH267083   3.867   1.269   0.676 -0.4008  0.2792 -0.0613
15223TIP3    H167084   3.903   1.245   0.590  1.0649  0.3324  0.4966
15223TIP3    H267085   3.814   1.346   0.659  0.7091  0.9189 -0.7828
15224TIP3   OH267086   2.366   1.922  14.665 -0.4868 -0.2396 -0.0988
15224TIP3    H167087   2.432   1.990  14.676 -0.4464 -0.1634 -0.7584
15224TIP3    H267088   2.287   1.969  14.639 -0.2077 -0.5116 -1.5130
15225TIP3   OH267089   3.110   6.744   1.055 -0.6904  0.0809  0.1578
15225TIP3    H167090   3.026   6.752   1.010 -0.3259  0.9228 -0.3954
15225TIP3    H267091   3.146   6.832   1.056  0.3743 -0.3330  0.0309
15226TIP3   OH267092   3.596   6.696   4.635 -0.3084  0.3014  0.2955
15226TIP3    H167093   3.546   6.755   4.691  0.4094 -0.9419  2.3483
15226TIP3    H267094   3.533   6.667   4.569 -1.7991  0.2628  1.6752
15227TIP3   OH267095   3.083   2.773   0.145  0.0068 -0.2259 -0.3988
15227TIP3    H167096   3.107   2.705   0.208  0.5108 -1.4877 -1.8866
15227TIP3    H267097   3.143   2.760   0.072 -1.5871  0.1455 -1.8412
15228TIP3   OH267098   0.041   4.237   5.358  0.5924  0.0456  0.3092
15228TIP3    H167099   0.077   4.173   5.298  1.2095  0.6075  0.0688
15228TIP3    H267100  -0.008   4.298   5.302 -0.8012 -0.7371  0.6357
15229TIP3   OH267101   4.768   3.718   4.860  0.5215  0.4037 -0.2705
15229TIP3    H167102   4.692   3.770   4.835 -0.2812 -0.3314  0.5940
15229TIP3    H267103   4.820   3.712   4.780 -0.4137  0.7542 -0.9209
15230TIP3   OH267104   5.760   0.735   2.312  0.1441  0.3002  0.1885
15230TIP3    H167105   5.842   0.780   2.335  0.9314 -0.9909  0.0441
15230TIP3    H267106   5.740   0.765   2.224  0.7678  0.2347  0.0175
15231TIP3   OH267107   2.262   3.596  15.086  0.4022 -0.0706  0.9279
15231TIP3    H167108   2.242   3.580  14.994 -0.4639 -1.3030  1.3057
15231TIP3    H267109   2.345   3.644  15.085  0.3186  0.0758 -0.4904
15232TIP3   OH267110   6.070   3.915  11.979 -0.3194 -0.0578  0.6100
15232TIP3    H167111   6.006   3.984  11.993 -1.0604 -0.6108  0.0349
15232TIP3    H267112   6.103   3.894  12.066 -0.8523  0.3061  0.9012
15233TIP3   OH267113   2.392   5.825   3.673 -0.1091  0.5238  0.1805
15233TIP3    H167114   2.482   5.795   3.685 -0.1805  0.6795  1.1946
15233TIP3    H267115   2.399   5.902   3.617  0.3791  0.4667  0.1648
15234TIP3   OH267116   5.920   5.373   4.569  0.1119  0.2730 -0.5848
15234TIP3    H167117   5.944   5.432   4.640 -0.8857 -0.5819  0.4849
15234TIP3    H267118   5.883   5.430   4.502  1.0256  1.0812 -0.4371
15235TIP3   OH267119   3.701   6.559  13.780 -0.4070 -0.3429  0.1804
15235TIP3    H167120   3.623   6.581  13.831 -0.4959 -0.9908  0.3368
15235TIP3    H267121   3.752   6.502  13.837  1.6540  2.3905  1.2183
15236TIP3   OH267122   4.569   5.057   4.374 -0.7248  0.0455 -0.0973
15236TIP3    H167123   4.658   5.065   4.339 -0.6244  1.8577  0.4888
15236TIP3    H267124   4.540   4.971   4.344  0.5562  0.1469 -1.8277
15237TIP3   OH267125   0.566   1.858   4.274 -0.7005  0.6626 -0.0746
15237TIP3    H167126   0.492   1.797   4.278 -0.9523  0.7739 -1.9702
15237TIP3    H267127   0.565   1.902   4.359 -0.2878 -2.1563  1.5220
15238TIP3   OH267128   6.632   1.665  14.798  0.0546  0.3870  0.1757
15238TIP3    H167129   6.622   1.602  14.727 -0.8412  1.0956 -0.3540
15238TIP3    H267130   6.696   1.728  14.764 -0.6845  0.9576 -0.1969
15239TIP3   OH267131   3.208   1.336  11.175 -0.3039  0.2656 -0.1434
15239TIP3    H167132   3.214   1.409  11.114 -0.1953  1.1123  0.8435
15239TIP3    H267133   3.123   1.346  11.217 -0.1123  0.0934  0.3003
15240TIP3   OH267134   1.968   4.240   1.090  0.1646  0.1106 -0.3260
15240TIP3    H167135   1.875   4.219   1.081  0.6435 -1.7419 -1.6617
15240TIP3    H267136   2.013   4.156   1.078  2.0302  1.0198 -0.0906
15241TIP3   OH267137   2.771   6.237  11.637 -0.2201 -0.2379 -0.2656
15241TIP3    H167138   2.778   6.328  11.665  0.9710 -0.4964  0.3445
15241TIP3    H267139   2.696   6.202  11.687 -0.6925  0.3963 -0.5174
15242TIP3   OH267140   1.903   5.602   1.770 -0.5029 -0.0202  0.3600
15242TIP3    H167141   1.930   5.523   1.818  0.9384 -0.7036 -1.4604
15242TIP3    H267142   1.983   5.655   1.766 -0.2811 -0.4300 -2.0416
15243TIP3   OH267143   1.403   2.109   3.279  0.0087  0.1166 -0.0641
15243TIP3    H167144   1.475   2.128   3.219  0.3767  1.5505  0.7928
15243TIP3    H267145   1.335   2.173   3.257 -0.0862  0.2713  0.6516
15244TIP3   OH267146   2.986   5.801   0.894  1.0233 -0.7654 -0.1456
15244TIP3    H167147   2.954   5.714   0.871 -1.7676  0.3030 -0.6086
15244TIP3    H267148   2.930   5.829   0.965  1.1324  1.1115 -0.7633
15245TIP3   OH267149   0.116   5.535   3.041  0.7735 -0.2174  0.3140
15245TIP3    H167150   0.090   5.485   2.963  1.7507  1.0482 -0.8621
15245TIP3    H267151   0.187   5.591   3.011  0.8689  0.6275  2.0237
15246TIP3   OH267152   4.742   3.306   5.980 -0.0599 -0.5494  0.7311
15246TIP3    H167153   4.692   3.352   6.047  1.0626  1.9776 -0.0403
15246TIP3    H267154   4.776   3.228   6.024 -0.4906  0.3218  2.7036
15247TIP3   OH267155   0.248   5.867  12.422  0.2150 -0.4952 -0.5190
15247TIP3    H167156   0.316   5.921  12.462  1.0308 -1.0250 -1.1753
15247TIP3    H267157   0.224   5.803  12.489 -1.0348  0.8778  0.4116
15248TIP3   OH267158   1.050   6.426   4.115  0.4916 -0.1856 -0.0338
15248TIP3    H167159   1.099   6.505   4.091  0.1547 -0.1376 -0.5864
15248TIP3    H267160   0.975   6.458   4.165 -0.2059 -0.0566 -1.1385
15249TIP3   OH267161   6.206   1.509   2.184  0.3108 -0.1167 -0.6672
15249TIP3    H167162   6.232   1.569   2.114 -2.5091 -1.0854 -2.7124
15249TIP3    H267163   6.140   1.558   2.234  0.4287 -0.3625 -0.2636
15250TIP3   OH267164   3.059   4.944   4.610  0.6451  0.7410  0.1137
15250TIP3    H167165   3.111   5.022   4.629 -0.5340  0.9194  3.1473
15250TIP3    H267166   3.095   4.876   4.668 -0.8572  0.1742  0.4141
15251TIP3   OH267167   4.135   5.204  12.083  0.2116  0.7489 -0.0283
15251TIP3    H167168   4.158   5.190  11.991 -0.4800 -0.0913 -0.0748
15251TIP3    H267169   4.061   5.265  12.081 -1.0595 -0.7452 -0.1397
15252TIP3   OH267170   6.157   1.123   0.897  0.0514 -0.1510  0.2448
15252TIP3    H167171   6.175   1.064   0.824  0.5841  1.2945 -0.8388
15252TIP3    H267172   6.195   1.207   0.871 -0.5677  0.6648  1.7840
15253TIP3   OH267173   4.586   2.716  16.394  0.2242  0.0949 -0.1939
15253TIP3    H167174   4.656   2.655  16.419 -0.9812 -1.4820 -0.5496
15253TIP3    H267175   4.612   2.799  16.435  1.9774 -0.5908  0.1958
15254TIP3   OH267176   3.320   1.666   4.501 -0.1238  0.4301  0.0935
15254TIP3    H167177   3.282   1.687   4.585  0.1074  0.6759  0.1381
15254TIP3    H267178   3.369   1.584   4.516  1.1803  1.2666  0.5860
15255TIP3   OH267179   5.784   1.246   4.035  0.3031  0.0239  0.0629
15255TIP3    H167180   5.709   1.189   4.053  0.2452  0.8603  2.9423
15255TIP3    H267181   5.752   1.309   3.972 -0.9345 -0.5802  0.0513
15256TIP3   OH267182   2.246   6.249  13.865  0.3246 -0.1883  0.5767
15256TIP3    H167183   2.291   6.281  13.787  0.4806 -1.3499  0.1702
15256TIP3    H267184   2.226   6.328  13.915 -0.1061  0.6226 -0.8044
15257TIP3   OH267185   6.513   0.015   5.702 -0.4604 -0.4840 -0.0956
15257TIP3    H167186   6.571   0.092   5.706  0.2737 -1.0019 -0.4520
15257TIP3    H267187   6.439   0.044   5.648  0.3292 -0.3489 -1.1406
15258TIP3   OH267188   0.164   1.562   0.321 -0.3007 -0.4144 -0.7651
15258TIP3    H167189   0.258   1.580   0.313  0.1650 -1.8597  0.8099
15258TIP3    H267190   0.131   1.635   0.374  0.3539 -0.8916  0.3511
15259TIP3   OH267191   6.038   1.437  14.996  0.7825  0.7675  0.6915
15259TIP3    H167192   6.004   1.522  15.025 -0.1257  0.3912  0.7714
15259TIP3    H267193   5.982   1.373  15.039  0.6216  0.1495 -0.3913
15260TIP3   OH267194   3.124   2.561   0.325 -0.1662  0.2720  0.0848
15260TIP3    H167195   3.196   2.510   0.364  1.8041  1.3071 -1.9708
15260TIP3    H267196   3.106   2.518   0.242 -0.7509  1.0522 -0.2028
15261TIP3   OH267197   5.029   5.616   5.232  0.1386 -0.3572  0.1172
15261TIP3    H167198   5.098   5.676   5.204  1.5282 -1.9351 -0.0092
15261TIP3    H267199   4.949   5.651   5.192  1.2509  0.2223 -1.7390
15262TIP3   OH267200   4.861   5.093   5.245  0.3003  0.2197  0.6109
15262TIP3    H167201   4.899   5.069   5.329 -1.3434  2.1879  2.0098
15262TIP3    H267202   4.843   5.186   5.252 -1.1419  0.1549 -1.4065
15263TIP3   OH267203   0.590   1.303  12.368  0.1682  0.6867 -0.6768
15263TIP3    H167204   0.659   1.240  12.392  2.1841  2.8214 -0.5010
15263TIP3    H267205   0.539   1.257  12.301  0.2250 -1.8806  0.8820
15264TIP3   OH267206   6.441   2.100   2.511  0.3057  0.0646 -0.6272
15264TIP3    H167207   6.427   2.104   2.606  0.5984  1.3353 -0.6246
15264TIP3    H267208   6.354   2.082   2.475  0.0926  0.1059 -0.1468
15265TIP3   OH267209   1.936   6.713  17.314  0.2829  0.4509 -0.1726
15265TIP3    H167210   1.999   6.751  17.376  1.0898 -0.9579 -0.0754
15265TIP3    H267211   1.891   6.646  17.365  2.1357 -1.9406 -1.4424
15266TIP3   OH267212   6.645   0.726  11.278  0.5520 -0.1241  0.3488
15266TIP3    H167213   6.590   0.763  11.209  0.1448 -2.2886 -0.5442
15266TIP3    H267214   6.584   0.690  11.342  0.8816 -1.9830 -0.3409
15267TIP3   OH267215   6.276   4.758  14.263 -0.0530 -0.3819  0.8051
15267TIP3    H167216   6.274   4.677  14.313 -1.9326 -0.0388  1.3565
15267TIP3    H267217   6.266   4.827  14.328 -2.0824  0.0872  0.0670
15268TIP3   OH267218   6.328   1.722  15.939  0.1891  0.6683 -0.0313
15268TIP3    H167219   6.420   1.710  15.914 -0.0029 -2.0744  0.1792
15268TIP3    H267220   6.328   1.713  16.034 -0.5943 -3.3692 -0.2302
15269TIP3   OH267221   2.698   2.573  14.196 -0.3492  0.3575 -0.0972
15269TIP3    H167222   2.734   2.604  14.279  1.0937 -1.0685 -0.1300
15269TIP3    H267223   2.669   2.652  14.151  1.4116  1.4618  0.6063
15270TIP3   OH267224   2.133   6.639   6.429  1.0019  0.1931 -0.0455
15270TIP3    H167225   2.189   6.675   6.360  0.8449 -1.0225 -0.8312
15270TIP3    H267226   2.189   6.574   6.473  0.3458 -0.7934 -0.6255
15271TIP3   OH267227   0.481   3.030  11.839  0.1640 -0.0847  0.5051
15271TIP3    H167228   0.520   3.082  11.770  1.2832  0.6319  1.6362
15271TIP3    H267229   0.386   3.039  11.826  0.3066 -1.1851 -1.7843
15272TIP3   OH267230   0.622   2.894   5.212  0.2098  0.2018  0.4792
15272TIP3    H167231   0.622   2.902   5.117 -0.8257  2.5270  0.5988
15272TIP3    H267232   0.708   2.925   5.239  0.3233  0.0190  0.3274
15273TIP3   OH267233   4.024   1.312  12.158 -0.3383  0.4905 -0.3136
15273TIP3    H167234   4.051   1.248  12.093 -2.1835 -1.0128  0.3199
15273TIP3    H267235   3.932   1.292  12.175 -0.4918  2.2161  1.1822
15274TIP3   OH267236   4.189   0.382  15.268 -0.5542 -0.4290  0.4650
15274TIP3    H167237   4.128   0.441  15.312 -0.4676  0.0571 -0.0433
15274TIP3    H267238   4.168   0.295  15.301 -0.8041 -0.1323  1.0978
15275TIP3   OH267239   5.640   5.430  12.565  0.0457 -0.5146  0.1338
15275TIP3    H167240   5.596   5.447  12.648 -1.5593  0.8042 -0.9299
15275TIP3    H267241   5.708   5.498  12.560 -1.1948  0.7113 -0.5265
15276TIP3   OH267242   3.252   3.191   1.922 -0.6041 -0.0930 -0.2207
15276TIP3    H167243   3.258   3.279   1.886  2.0167 -0.6916 -1.5239
15276TIP3    H267244   3.240   3.204   2.016  1.0337  1.7170 -0.1901
15277TIP3   OH267245   3.186   3.998  15.333  0.0460 -0.1812  0.4184
15277TIP3    H167246   3.272   4.033  15.355 -0.4943  1.7260 -0.3292
15277TIP3    H267247   3.187   3.989  15.238 -0.4855 -0.4348  0.4331
15278TIP3   OH267248   4.429   0.368   0.996  0.2572  0.3275  0.0812
15278TIP3    H167249   4.390   0.444   0.954 -0.3054  0.5905  1.0497
15278TIP3    H267250   4.371   0.295   0.972  0.1883  0.3954  0.0424
15279TIP3   OH267251   2.766   3.988   2.377 -0.1010  0.4578 -0.3722
15279TIP3    H167252   2.719   3.983   2.294 -1.3773  0.8851  0.2971
15279TIP3    H267253   2.722   4.059   2.425  0.8931  0.5141  0.4924
15280TIP3   OH267254   6.197   3.017  11.809 -0.1001  0.4769  0.2678
15280TIP3    H167255   6.169   3.072  11.883 -0.2604  2.0765 -0.9291
15280TIP3    H267256   6.286   3.046  11.790 -0.4927  0.9685 -0.9273
15281TIP3   OH267257   4.297   1.349   0.682 -0.1324  0.0636 -0.4887
15281TIP3    H167258   4.357   1.339   0.756  1.0555 -0.1194 -1.4384
15281TIP3    H267259   4.313   1.438   0.650  0.4233 -0.3459 -1.3943
15282TIP3   OH267260   0.570   5.237  16.060 -0.0143 -0.0968  0.7413
15282TIP3    H167261   0.546   5.146  16.075  1.0175 -0.6338 -0.6477
15282TIP3    H267262   0.523   5.261  15.980  1.3936 -0.1120 -0.1149
15283TIP3   OH267263   2.563   5.471  14.566  0.1112  0.1088  0.2896
15283TIP3    H167264   2.549   5.414  14.641 -0.3125 -0.1154  0.0435
15283TIP3    H267265   2.590   5.555  14.604  0.6101 -0.2099  0.6561
15284TIP3   OH267266   2.024   6.340  14.323 -0.3955 -0.4388  0.0282
15284TIP3    H167267   1.957   6.271  14.318 -1.7113  0.8927 -2.0789
15284TIP3    H267268   1.976   6.417  14.355  1.0553 -0.4042  2.3618
15285TIP3   OH267269   5.939   0.510  14.659 -0.3744  0.3609  0.0084
15285TIP3    H167270   5.901   0.472  14.580 -0.2916 -0.0018  0.1407
15285TIP3    H267271   5.959   0.434  14.714  0.4182  0.5541 -0.0051
15286TIP3   OH267272   3.294   0.267   0.095 -0.4938 -0.2823 -0.4129
15286TIP3    H167273   3.299   0.234   0.005 -2.3843 -0.8762 -0.3529
15286TIP3    H267274   3.307   0.189   0.150 -0.3136 -0.0914 -0.1826
15287TIP3   OH267275   6.309   4.412   1.400 -0.3472  0.3249  0.9010
15287TIP3    H167276   6.387   4.360   1.417 -0.9575 -0.7564  0.4718
15287TIP3    H267277   6.341   4.503   1.397  0.6006  0.0779  2.4754
15288TIP3   OH267278   6.205   3.469  13.626  0.0336  0.3014 -0.3113
15288TIP3    H167279   6.190   3.495  13.535  1.0130  0.6633 -0.3753
15288TIP3    H267280   6.209   3.552  13.674 -0.1781  0.1233  0.0175
15289TIP3   OH267281   5.161   4.292   5.319 -0.1248 -0.3875  0.1627
15289TIP3    H167282   5.205   4.377   5.328 -1.0742  0.0752  0.5470
15289TIP3    H267283   5.113   4.298   5.237 -0.8889 -0.2190  0.6126
15290TIP3   OH267284   5.983   6.555   3.561 -0.2773 -0.1635  0.4566
15290TIP3    H167285   6.038   6.527   3.635 -1.1420  0.0839  1.2010
15290TIP3    H267286   5.922   6.617   3.599 -1.8256 -1.2820 -0.1240
15291TIP3   OH267287   1.553   5.042  11.573 -0.1612 -0.5961  0.0173
15291TIP3    H167288   1.613   5.059  11.501  1.4376 -1.0983  1.1730
15291TIP3    H267289   1.551   4.947  11.581  1.8129 -0.5550  2.2521
15292TIP3   OH267290   3.155   0.644  13.512  0.1329  0.6908  0.3438
15292TIP3    H167291   3.174   0.703  13.439  1.1070 -0.2866 -0.2205
15292TIP3    H267292   3.059   0.643  13.517  0.0810  1.5445 -0.2728
15293TIP3   OH267293   4.594   6.056  13.131 -0.1154  0.2261  0.6093
15293TIP3    H167294   4.517   6.104  13.164 -0.5530  0.0203 -0.0876
15293TIP3    H267295   4.585   5.969  13.169  0.0985  0.3767  1.0093
15294TIP3   OH267296   6.602   1.262  16.779 -0.1829  0.9876  0.1708
15294TIP3    H167297   6.680   1.219  16.814 -1.0397  0.1651  1.1290
15294TIP3    H267298   6.627   1.287  16.690  0.7810 -0.3734  0.0232
15295TIP3   OH267299   2.313   1.954   0.628 -0.0116 -0.4918 -0.2020
15295TIP3    H167300   2.318   1.866   0.667 -0.6113 -0.1987  0.5643
15295TIP3    H267301   2.289   1.938   0.536  0.7352 -1.1615 -0.2949
15296TIP3   OH267302   0.814   4.458  14.496 -0.1679 -0.1335 -0.1822
15296TIP3    H167303   0.859   4.518  14.436  0.2721 -0.9097 -0.6351
15296TIP3    H267304   0.813   4.505  14.580 -0.6765  0.9108 -0.7489
15297TIP3   OH267305   5.861   3.155  11.042  0.0855  0.5118 -0.6814
15297TIP3    H167306   5.940   3.151  11.095  1.9912  0.4715 -3.3439
15297TIP3    H267307   5.874   3.090  10.973 -3.5000 -1.4244  0.2283
15298TIP3   OH267308   3.120   4.675  16.672 -0.0990 -1.0323  0.6553
15298TIP3    H167309   3.211   4.664  16.699  0.2081 -0.3389 -0.0610
15298TIP3    H267310   3.072   4.684  16.754  0.8907  1.5828  1.0559
15299TIP3   OH267311   3.089   0.989  14.278 -0.1814  0.1724 -0.0398
15299TIP3    H167312   3.091   1.082  14.300  0.1142  0.9397 -2.8897
15299TIP3    H267313   3.181   0.964  14.276 -0.2363 -0.0489  0.2313
15300TIP3   OH267314   0.260   1.238  12.932  0.3198  0.0579  0.1959
15300TIP3    H167315   0.257   1.331  12.952  0.6691  0.3704 -1.1705
15300TIP3    H267316   0.296   1.232  12.844  0.3785 -1.3773  0.2824
15301TIP3   OH267317   1.674   6.707   3.736 -0.1358 -0.0536 -0.0296
15301TIP3    H167318   1.733   6.775   3.704 -0.9151  0.3142 -0.7139
15301TIP3    H267319   1.587   6.743   3.724 -0.5141  0.0892  2.5180
15302TIP3   OH267320   5.816   5.388  16.199 -0.0736 -0.5045 -0.0726
15302TIP3    H167321   5.822   5.478  16.232 -0.7238 -0.4412 -0.1172
15302TIP3    H267322   5.837   5.333  16.274 -1.1940 -0.3528  0.3673
15303TIP3   OH267323   1.879   2.882   5.176  0.0443 -0.4117 -0.5447
15303TIP3    H167324   1.819   2.857   5.246  0.7043  0.4476  0.3473
15303TIP3    H267325   1.960   2.833   5.195 -0.1062 -0.9727 -1.3025
15304TIP3   OH267326   6.470   0.091  13.413 -0.1032 -0.1290 -0.2588
15304TIP3    H167327   6.472   0.184  13.437 -2.7458 -0.4119  1.3525
15304TIP3    H267328   6.562   0.064  13.417  0.5115  1.9126  1.2870
15305TIP3   OH267329   1.996   6.764  16.628 -0.0483 -0.4005 -0.8011
15305TIP3    H167330   2.038   6.834  16.677  0.7777 -2.0731  1.0224
15305TIP3    H267331   1.902   6.778  16.640  0.0295  1.2346 -1.7965
15306TIP3   OH267332   4.903   4.110  16.991  0.3815  0.3983 -0.3156
15306TIP3    H167333   4.985   4.081  17.030  0.4973  1.3500  0.1673
15306TIP3    H267334   4.919   4.201  16.965 -0.5237  0.6042 -0.1895
15307TIP3   OH267335   0.454   3.740   2.067 -0.4049 -0.3287  0.6015
15307TIP3    H167336   0.435   3.647   2.080  2.1304 -0.9866  0.0548
15307TIP3    H267337   0.461   3.750   1.972 -2.2123  0.8217  0.5312
15308TIP3   OH267338   4.834   5.880   1.751 -0.1098 -0.3197  0.5804
15308TIP3    H167339   4.793   5.860   1.667 -1.2761 -0.2907  1.1172
15308TIP3    H267340   4.915   5.926   1.728 -0.0144 -1.0124 -0.5313
15309TIP3   OH267341   1.060   0.485  14.442 -0.2424  0.2712  0.1326
15309TIP3    H167342   1.092   0.396  14.425  0.9933  0.2347  2.2903
15309TIP3    H267343   1.002   0.475  14.518 -0.6187  1.2257 -0.0169
15310TIP3   OH267344   1.244   1.506  17.096 -0.2753 -0.2796  0.1339
15310TIP3    H167345   1.215   1.597  17.093 -0.0402 -0.1204  1.8889
15310TIP3    H267346   1.273   1.488  17.007 -0.2382  1.3952 -0.2311
15311TIP3   OH267347   2.724   0.229   4.407 -0.1963 -0.3565 -0.4308
15311TIP3    H167348   2.767   0.148   4.382 -2.8378 -1.7273 -0.9773
15311TIP3    H267349   2.678   0.207   4.488  0.7829  1.2795  0.6115
15312TIP3   OH267350   2.344   6.733   5.894  0.0431  0.0457  0.7231
15312TIP3    H167351   2.323   6.739   5.801  1.0377  2.1359  0.5856
15312TIP3    H267352   2.264   6.757   5.940  0.2339  1.4684  0.3368
15313TIP3   OH267353   4.004   3.179  16.606 -0.3040 -0.0915  0.3906
15313TIP3    H167354   4.042   3.099  16.569  0.3913  0.6367 -0.5273
15313TIP3    H267355   4.039   3.249  16.551 -0.2827  0.9217  1.6697
15314TIP3   OH267356   4.022   4.079   6.242 -0.6695  0.1383 -0.4304
15314TIP3    H167357   4.049   3.989   6.226 -0.9348  0.2014 -1.2876
15314TIP3    H267358   4.094   4.132   6.210  1.0064  0.2298  3.0515
15315TIP3   OH267359   0.471   5.013  12.786 -0.2867  0.3530 -0.4208
15315TIP3    H167360   0.506   5.060  12.862 -2.1685  2.3530 -0.6816
15315TIP3    H267361   0.453   5.082  12.721 -3.0287 -0.6710 -0.9035
15316TIP3   OH267362   2.960   1.475  16.345 -0.1379  0.0335 -0.0633
15316TIP3    H167363   2.944   1.439  16.258  2.4904 -0.0576 -0.5807
15316TIP3    H267364   3.004   1.404  16.393 -2.9317 -0.5013  1.9625
15317TIP3   OH267365   1.742   0.696  14.601 -0.0343 -0.5557 -0.3344
15317TIP3    H167366   1.665   0.641  14.609 -0.8063  0.6847  1.2263
15317TIP3    H267367   1.729   0.744  14.519 -0.5113 -0.9556 -0.4974
15318TIP3   OH267368   3.322   0.351  11.316 -0.6579 -0.7856  0.1037
15318TIP3    H167369   3.393   0.368  11.255 -2.0372  0.5356 -1.2014
15318TIP3    H267370   3.355   0.384  11.400  0.2000 -0.0474 -0.5035
15319TIP3   OH267371   3.421   0.219  10.940  0.5677  0.5822  0.4226
15319TIP3    H167372   3.491   0.175  10.891  1.3131 -0.1903  2.1044
15319TIP3    H267373   3.463   0.296  10.977 -0.0908  1.3651 -0.4191
15320TIP3   OH267374   5.110   5.947   3.106  0.0404  0.4847  0.0229
15320TIP3    H167375   5.025   5.960   3.065  0.1162  4.4907  0.7501
15320TIP3    H267376   5.093   5.954   3.200  0.9581 -0.3707  0.2698
15321TIP3   OH267377   5.182   6.428   2.065  0.0879 -0.0200  0.2009
15321TIP3    H167378   5.099   6.460   2.101 -0.2800  0.0871 -0.7311
15321TIP3    H267379   5.165   6.335   2.046  0.7441 -0.4808  1.6526
15322TIP3   OH267380   1.035   0.066   5.959 -0.0274  0.0234 -0.2666
15322TIP3    H167381   1.002   0.131   5.896 -1.6876  1.1657  1.6542
15322TIP3    H267382   1.113   0.107   5.996 -0.4555  0.4916  0.1521
15323TIP3   OH267383   3.319   3.763   0.755 -0.2422 -0.3694 -0.1614
15323TIP3    H167384   3.359   3.680   0.782 -0.2462  0.0415  1.1691
15323TIP3    H267385   3.292   3.804   0.837  0.5152  1.3406 -0.7330
15324TIP3   OH267386   4.529   2.792   3.182  0.4189  0.4121 -0.1466
15324TIP3    H167387   4.556   2.700   3.176  0.4387  0.4234 -0.2429
15324TIP3    H267388   4.600   2.840   3.141  0.4305  0.4743 -0.0517
15325TIP3   OH267389   0.853   3.213  13.129  0.0189 -0.2331 -0.3426
15325TIP3    H167390   0.816   3.136  13.086 -0.6502  0.0493 -0.2882
15325TIP3    H267391   0.918   3.247  13.067 -0.2209 -0.4114 -0.6936
15326TIP3   OH267392   3.664   3.702   0.258  0.1136 -0.2602  0.0041
15326TIP3    H167393   3.660   3.626   0.316  1.2733  0.4128  1.0330
15326TIP3    H267394   3.573   3.724   0.239 -0.2599 -1.0954  0.7787
15327TIP3   OH267395   3.106   4.509  11.931 -0.6382 -1.0439  0.5353
15327TIP3    H167396   3.192   4.481  11.901 -1.5928 -1.8622 -1.6682
15327TIP3    H267397   3.111   4.503  12.027  1.0320 -3.3244  0.3984
15328TIP3   OH267398   0.318   2.764  13.226 -0.4795 -0.1777  0.6428
15328TIP3    H167399   0.325   2.669  13.216  0.9560 -0.3811  2.9485
15328TIP3    H267400   0.224   2.780  13.238 -0.8467 -1.1595 -0.6972
15329TIP3   OH267401   4.186   4.586  11.261 -0.2456 -1.2303  0.1385
15329TIP3    H167402   4.168   4.636  11.182  0.8357 -0.8313  0.1335
15329TIP3    H267403   4.105   4.538  11.278 -0.8957 -0.3915 -0.5186
15330TIP3   OH267404   2.138   4.711  11.167 -0.3560 -0.2392 -0.1213
15330TIP3    H167405   2.059   4.751  11.204 -0.2487 -1.2141  1.2311
15330TIP3    H267406   2.108   4.673  11.084 -1.5671 -1.3872  0.7890
15331TIP3   OH267407   1.866   3.000   1.255  0.7844 -0.0938 -0.0565
15331TIP3    H167408   1.789   3.047   1.222  1.3265  0.5269 -0.4739
15331TIP3    H267409   1.831   2.920   1.294 -0.4674  1.7478  2.9645
15332TIP3   OH267410   2.318   4.270  16.877  0.1375  0.6361  0.0535
15332TIP3    H167411   2.394   4.229  16.919 -0.0391 -0.4494 -0.6402
15332TIP3    H267412   2.243   4.218  16.907  0.0730 -0.6475 -2.0856
15333TIP3   OH267413   5.535   6.401   5.047 -0.1432  0.1245 -0.1889
15333TIP3    H167414   5.508   6.351   5.124  0.5619 -0.1313 -0.1019
15333TIP3    H267415   5.454   6.417   4.999 -1.0389  2.4203  1.8383
15334TIP3   OH267416   5.038   0.088  13.824 -0.7557  0.3743  0.2125
15334TIP3    H167417   5.089   0.022  13.872  0.2281  1.3176  0.4905
15334TIP3    H267418   4.982   0.037  13.766  0.0422 -0.7111  0.3685
15335TIP3   OH267419   0.144   6.003  14.621  0.0672  0.0270  0.2611
15335TIP3    H167420   0.165   5.910  14.623  0.4991  0.1308  1.9961
15335TIP3    H267421   0.054   6.007  14.587 -0.2528 -1.0872  0.9320
15336TIP3   OH267422   1.741   2.651  14.143 -0.2931  0.1443  0.1272
15336TIP3    H167423   1.788   2.639  14.225 -1.0900 -0.0664  0.5591
15336TIP3    H267424   1.758   2.571  14.093 -0.4217 -0.0571  0.4033
15337TIP3   OH267425   0.324   5.102  15.827  0.1153  0.5566  0.0677
15337TIP3    H167426   0.354   5.095  15.736  2.2112  1.2576  0.6515
15337TIP3    H267427   0.284   5.189  15.832  0.6065  0.7901 -0.0185
15338TIP3   OH267428   5.090   6.649  14.559 -0.8778 -0.7859  0.2202
15338TIP3    H167429   5.105   6.739  14.589  2.1551 -1.3565  0.8396
15338TIP3    H267430   5.018   6.656  14.497  0.7396  2.5190 -1.5955
15339TIP3   OH267431   5.364   2.098   1.542 -0.2222 -0.2062  0.1783
15339TIP3    H167432   5.308   2.129   1.471 -0.1462 -1.4713 -0.4555
15339TIP3    H267433   5.358   2.167   1.609 -1.9778  0.0237 -0.1586
15340TIP3   OH267434   6.332   0.353  13.949  0.2478 -0.0250  0.3399
15340TIP3    H167435   6.327   0.371  14.043  0.1849  1.1619  0.1280
15340TIP3    H267436   6.244   0.324  13.925 -0.3470  1.7498  0.2651
15341TIP3   OH267437   4.591   0.324  15.939  0.3862 -0.0517  0.3161
15341TIP3    H167438   4.498   0.333  15.960  0.7968  1.0645  1.8512
15341TIP3    H267439   4.603   0.374  15.859 -0.2350  0.2758  0.4250
15342TIP3   OH267440   3.817   0.885   2.464 -0.1821 -0.5991 -0.4426
15342TIP3    H167441   3.729   0.890   2.501  0.1288 -0.7784  0.3398
15342TIP3    H267442   3.838   0.791   2.465 -0.5490 -0.7154 -2.0070
15343TIP3   OH267443   5.883   0.901   5.903  0.0299 -0.6451 -0.3167
15343TIP3    H167444   5.805   0.907   5.960  1.0009 -2.1791  1.2959
15343TIP3    H267445   5.892   0.988   5.866 -1.4755  0.0485  0.8115
15344TIP3   OH267446   3.201   4.333  13.085  0.2960  0.1158 -0.6206
15344TIP3    H167447   3.125   4.295  13.041 -0.1277 -2.6821  2.1640
15344TIP3    H267448   3.164   4.404  13.138  0.0738  0.3747 -1.1044
15345TIP3   OH267449   3.479   5.484  16.814 -1.0244  0.1903 -0.1380
15345TIP3    H167450   3.533   5.554  16.851 -2.1603  0.8582  0.3112
15345TIP3    H267451   3.494   5.409  16.871 -0.4666  0.3184 -0.1096
15346TIP3   OH267452   5.477   5.596   3.959  0.2624 -0.2330  0.4874
15346TIP3    H167453   5.537   5.524   3.980 -0.3958 -0.9821 -0.1392
15346TIP3    H267454   5.532   5.661   3.917  0.9227 -0.2326  1.3164
15347TIP3   OH267455   4.492   2.065  15.935 -0.1360  0.1372 -0.2084
15347TIP3    H167456   4.584   2.083  15.954  0.0680 -0.8074 -0.2494
15347TIP3    H267457   4.448   2.071  16.020  0.1437 -0.3885 -0.0182
15348TIP3   OH267458   3.793   2.812   3.859  0.5683 -0.1398 -0.0034
15348TIP3    H167459   3.761   2.825   3.949 -1.7653 -1.2674 -0.5903
15348TIP3    H267460   3.781   2.718   3.843 -0.9103  0.3593 -2.1218
15349TIP3   OH267461   3.880   5.014  13.110 -0.2141  0.0944  0.1210
15349TIP3    H167462   3.879   4.920  13.095 -0.3507  0.3167 -1.4061
15349TIP3    H267463   3.973   5.036  13.116 -0.1858 -0.1462  0.6493
15350TIP3   OH267464   1.284   1.070  11.354 -0.6444  0.5349 -0.4186
15350TIP3    H167465   1.281   1.135  11.283  0.8849  0.3065 -0.7318
15350TIP3    H267466   1.260   0.988  11.312  1.4150  0.1730 -1.0109
15351TIP3   OH267467   0.784   3.391  12.651  0.6333  0.1566 -0.0681
15351TIP3    H167468   0.807   3.386  12.558 -1.6146 -0.0669 -0.6708
15351TIP3    H267469   0.727   3.316  12.665  1.2047  0.0097  1.5982
15352TIP3   OH267470   0.696   6.683  12.580  0.7527  0.5648  0.1563
15352TIP3    H167471   0.668   6.765  12.619  1.3148  0.4876  0.7298
15352TIP3    H267472   0.619   6.626  12.586  0.1587  1.2389 -0.8180
15353TIP3   OH267473   3.335   6.202   2.123  0.2378 -0.8141 -0.2776
15353TIP3    H167474   3.401   6.194   2.055  0.2931  0.3648 -0.3810
15353TIP3    H267475   3.367   6.271   2.181 -1.6308  0.9517 -1.2153
15354TIP3   OH267476   3.456   5.516  12.613  0.2377  0.6990 -0.1923
15354TIP3    H167477   3.367   5.482  12.624 -0.0827  1.3934 -0.5453
15354TIP3    H267478   3.483   5.484  12.526 -0.2485  1.7159 -0.7350
15355TIP3   OH267479   5.725   2.458  11.004 -0.1483  0.2556 -0.4788
15355TIP3    H167480   5.712   2.366  11.025 -0.9029 -0.0763 -2.2237
15355TIP3    H267481   5.640   2.498  11.016  0.5823  1.2285  2.2322
15356TIP3   OH267482   0.045   6.031   1.312  0.2563  0.5580  1.1474
15356TIP3    H167483  -0.008   6.110   1.320 -0.3781  0.2738 -0.0848
15356TIP3    H267484  -0.010   5.962   1.351 -1.5422 -0.2536 -2.4427
15357TIP3   OH267485   2.297   6.220   5.709  0.3678 -0.3288  0.2054
15357TIP3    H167486   2.391   6.204   5.718  0.2430 -0.8554  0.5735
15357TIP3    H267487   2.286   6.243   5.616  0.6448 -1.7831 -0.2107
15358TIP3   OH267488   3.580   6.005   1.449 -0.7347 -1.2586 -0.0201
15358TIP3    H167489   3.518   6.006   1.376 -1.4474  0.9176  0.5558
15358TIP3    H267490   3.632   5.926   1.435 -2.4609 -2.1958 -1.5098
15359TIP3   OH267491   2.440   0.227  14.751  0.8290 -0.1993  0.4800
15359TIP3    H167492   2.508   0.168  14.782  0.6475  0.1264  1.5642
15359TIP3    H267493   2.380   0.235  14.826  1.7327  2.6713  1.0171
15360TIP3   OH267494   2.032   3.774  12.290 -0.5902  0.5884  0.2679
15360TIP3    H167495   2.001   3.856  12.328 -2.5126 -0.7640  1.8699
15360TIP3    H267496   1.956   3.716  12.294  1.0787 -1.7130  0.5652
15361TIP3   OH267497   5.455   1.207  15.881 -0.0599  0.6671 -0.2644
15361TIP3    H167498   5.494   1.203  15.794  0.5156 -0.3081  0.0166
15361TIP3    H267499   5.528   1.191  15.941 -0.9944 -2.4802  0.2359
15362TIP3   OH267500   4.701   1.395  14.989 -0.0232  0.2163 -0.5482
15362TIP3    H167501   4.612   1.406  14.956  0.1906  1.7928 -0.7069
15362TIP3    H267502   4.696   1.322  15.050 -1.6213  0.8678  0.1482
15363TIP3   OH267503   0.187   0.062  13.938  0.4351  0.1071  0.1802
15363TIP3    H167504   0.240   0.022  14.006 -0.2712 -2.6478 -0.7684
15363TIP3    H267505   0.248   0.078  13.866  0.2753 -1.9545 -0.4654
15364TIP3   OH267506   1.341   4.409  11.665  0.1681 -0.3437 -0.9616
15364TIP3    H167507   1.362   4.390  11.757  0.1198  0.4709 -0.7769
15364TIP3    H267508   1.426   4.427  11.625 -0.0377  2.7585 -0.2574
15365TIP3   OH267509   0.776   0.997  13.678 -0.2864  0.3638  0.0846
15365TIP3    H167510   0.848   0.950  13.721 -1.2234 -0.9998  0.2073
15365TIP3    H267511   0.765   1.077  13.730 -0.5972 -0.6808  1.6840
15366TIP3   OH267512   5.736   4.220  14.736  0.2480 -0.3079  0.5674
15366TIP3    H167513   5.737   4.128  14.710 -0.9908 -0.4657  1.0129
15366TIP3    H267514   5.772   4.220  14.825 -0.3520 -0.4522  0.8129
15367TIP3   OH267515   2.221   5.489   5.002 -0.2297 -0.0513  0.0569
15367TIP3    H167516   2.183   5.563   5.048 -0.4879 -0.4653  0.5180
15367TIP3    H267517   2.267   5.439   5.070  1.2130  0.4740 -0.4976
15368TIP3   OH267518   2.077   6.172   6.231 -0.2331 -0.4292  0.1223
15368TIP3    H167519   2.068   6.078   6.246 -0.0830 -0.4193  0.2688
15368TIP3    H267520   2.099   6.209   6.316  0.7002 -0.3883 -0.1247
15369TIP3   OH267521   1.348   2.544  11.592 -0.3104 -0.8894  0.2525
15369TIP3    H167522   1.321   2.505  11.675 -0.2414 -1.1747  0.1417
15369TIP3    H267523   1.286   2.509  11.527 -0.8302 -0.0872  0.2974
15370TIP3   OH267524   4.345   5.723  15.109  0.2956  0.0441 -0.1113
15370TIP3    H167525   4.286   5.705  15.181 -2.2598  1.0576 -1.8125
15370TIP3    H267526   4.356   5.639  15.064  2.1043 -0.6504  1.4616
15371TIP3   OH267527   2.412   3.979   0.173  0.2477 -0.6701  0.3954
15371TIP3    H167528   2.382   4.055   0.223 -0.7122 -0.0582 -1.0284
15371TIP3    H267529   2.342   3.915   0.182  0.1327 -0.6096 -0.0325
15372TIP3   OH267530   0.989   2.030   4.044 -0.0976 -0.4131  0.0324
15372TIP3    H167531   0.949   2.102   4.094  0.9210 -0.0139  0.2963
15372TIP3    H267532   0.927   1.957   4.054 -0.8259  0.2228  0.3082
15373TIP3   OH267533   4.943   3.159   4.406 -0.4406  0.0464 -0.5401
15373TIP3    H167534   5.000   3.104   4.352 -0.2971  0.6431 -1.0175
15373TIP3    H267535   4.918   3.231   4.347 -2.0237 -0.4205 -0.4718
15374TIP3   OH267536   6.019   5.242   6.488  0.1648  0.6692  1.0287
15374TIP3    H167537   6.074   5.307   6.444 -0.6601  0.8913  0.2818
15374TIP3    H267538   5.959   5.293   6.542 -0.4611  0.5405  0.4697
15375TIP3   OH267539   0.688   6.291  11.914  0.4955 -0.3813  0.1327
15375TIP3    H167540   0.626   6.307  11.985 -0.4547 -1.3321 -0.4474
15375TIP3    H267541   0.677   6.366  11.855  0.8746  0.1222  0.6938
15376TIP3   OH267542   1.753   0.176   1.059  0.4503  0.4858 -0.2160
15376TIP3    H167543   1.733   0.120   1.134  2.4410 -1.1191 -0.8018
15376TIP3    H267544   1.796   0.253   1.098  1.8507 -0.5261  0.3047
15377TIP3   OH267545   0.388   2.694   0.019 -0.4322  0.3377 -0.4022
15377TIP3    H167546   0.479   2.700  -0.010 -0.4920 -1.1422 -1.0035
15377TIP3    H267547   0.342   2.658  -0.057 -1.0000 -1.5474  0.7658
15378TIP3   OH267548   0.574   5.837  11.606 -0.0250 -0.1990 -0.0752
15378TIP3    H167549   0.575   5.932  11.619  0.4432 -0.1722 -0.2498
15378TIP3    H267550   0.612   5.826  11.518 -0.1740 -0.5407 -0.0948
15379TIP3   OH267551   5.562   5.114  11.822  0.2340  0.4024  0.2980
15379TIP3    H167552   5.552   5.053  11.748 -0.0988  0.2045  0.5020
15379TIP3    H267553   5.511   5.191  11.797  1.0081  0.7761 -0.1489
15380TIP3   OH267554   1.069   3.806   5.562 -0.0664  0.3426 -0.0779
15380TIP3    H167555   1.054   3.878   5.623 -0.1088 -0.4170  0.8323
15380TIP3    H267556   1.113   3.739   5.614 -1.5829 -0.9936 -0.4327
15381TIP3   OH267557   3.013   2.635  13.749  0.5125 -0.1270 -1.0398
15381TIP3    H167558   3.075   2.621  13.821 -1.5168  0.4212  0.9529
15381TIP3    H267559   3.058   2.694  13.689  2.3352 -0.7064 -0.3033
15382TIP3   OH267560   2.962   3.172  14.743 -0.1922  0.1182  0.0527
15382TIP3    H167561   2.872   3.165  14.774  0.0532  1.7220  1.2091
15382TIP3    H267562   3.012   3.119  14.806 -0.1203  0.6146  0.4169
15383TIP3   OH267563   3.327   4.427  16.422  0.1427  0.1785  0.7937
15383TIP3    H167564   3.351   4.502  16.367 -1.6371  0.4160  0.2473
15383TIP3    H267565   3.377   4.439  16.502  2.2815  0.2113 -0.4633
15384TIP3   OH267566   1.893   0.275   0.064  0.1553  0.2849 -0.2142
15384TIP3    H167567   1.884   0.260  -0.030 -0.7350  0.0545 -0.0962
15384TIP3    H267568   1.831   0.214   0.105 -1.2918  2.0895  0.4113
15385TIP3   OH267569   1.759   0.935  13.123 -0.2268  0.2715 -0.2516
15385TIP3    H167570   1.673   0.915  13.084  0.5191 -0.1229 -1.7914
15385TIP3    H267571   1.798   0.997  13.061  1.6266 -1.5486 -1.0016
15386TIP3   OH267572   5.723   1.345   6.238 -0.4793 -0.3076  0.1002
15386TIP3    H167573   5.740   1.306   6.152 -0.4458  0.3469 -0.2005
15386TIP3    H267574   5.628   1.345   6.246 -0.6378  1.8950 -1.0518
15387TIP3   OH267575   6.097   5.622  17.371  0.0363 -0.3691 -0.0859
15387TIP3    H167576   6.019   5.652  17.324 -0.4397  0.2178  1.0289
15387TIP3    H267577   6.170   5.648  17.315 -0.4743  1.0660 -0.1441
15388TIP3   OH267578   2.460   5.664   4.482  0.3880  0.0429 -0.1004
15388TIP3    H167579   2.370   5.691   4.501 -0.7785 -2.3492 -1.7296
15388TIP3    H267580   2.491   5.728   4.418 -0.5690  0.2542 -0.3677
15389TIP3   OH267581   4.663   3.893   3.636  0.7007  0.1120  0.1767
15389TIP3    H167582   4.691   3.807   3.667  3.1006  1.2909  1.5925
15389TIP3    H267583   4.575   3.904   3.671  0.9182 -1.1923  1.2028
15390TIP3   OH267584   4.161   3.809   6.278  0.0863  0.0902 -0.3879
15390TIP3    H167585   4.164   3.719   6.309  1.9684 -0.3708 -1.7954
15390TIP3    H267586   4.244   3.848   6.307  0.1978  0.7557 -1.5457
15391TIP3   OH267587   0.188   4.237   5.607 -0.3674 -0.0116  0.3579
15391TIP3    H167588   0.260   4.182   5.576 -0.1332 -0.2918  1.3593
15391TIP3    H267589   0.140   4.261   5.528 -0.7294 -1.9865 -0.0624
15392TIP3   OH267590   4.652   1.015   0.049 -0.6618 -0.6435 -0.1496
15392TIP3    H167591   4.683   1.106   0.052 -0.9348 -0.5571  0.1090
15392TIP3    H267592   4.709   0.972  -0.015 -0.4801 -0.3087 -0.2137
15393TIP3   OH267593   5.057   5.390  13.212 -0.1379 -0.4595 -0.3238
15393TIP3    H167594   4.972   5.353  13.185  0.1319 -0.4613 -1.2120
15393TIP3    H267595   5.095   5.423  13.131 -0.1614  1.3764  0.3780
15394TIP3   OH267596   6.068   4.967   1.928  0.7837  0.4193  0.0677
15394TIP3    H167597   6.142   5.027   1.922  0.6216  0.4758 -2.7653
15394TIP3    H267598   6.050   4.943   1.837 -1.6461 -0.8687  0.8170
15395TIP3   OH267599   3.882   0.978  11.235 -0.0655 -0.4056 -0.6310
15395TIP3    H167600   3.819   1.051  11.236 -1.4699 -1.5512  1.1884
15395TIP3    H267601   3.828   0.901  11.252  1.7068 -1.6041 -0.2846
15396TIP3   OH267602   3.722   4.209  11.648  0.0640 -0.0014 -0.5716
15396TIP3    H167603   3.805   4.189  11.692 -0.9546 -1.1570  0.9383
15396TIP3    H267604   3.680   4.274  11.705 -0.5883 -0.3282 -0.6739
15397TIP3   OH267605   6.721   6.135  16.865 -0.5361  0.3367 -0.0863
15397TIP3    H167606   6.800   6.102  16.909 -0.5739  1.4179  0.8396
15397TIP3    H267607   6.721   6.091  16.780  0.5600 -0.3896  0.2636
15398TIP3   OH267608   3.880   4.429   4.137 -0.1418  0.4165  0.0432
15398TIP3    H167609   3.936   4.438   4.060  0.5808  0.8013  0.6011
15398TIP3    H267610   3.795   4.405   4.102  0.4199 -0.4040 -0.8165
15399TIP3   OH267611   4.543   5.507   3.743  0.4965 -0.9674 -0.7309
15399TIP3    H167612   4.627   5.517   3.699 -0.1090 -0.3987 -1.7914
15399TIP3    H267613   4.500   5.592   3.735  1.1443 -0.1571  2.7565
15400TIP3   OH267614   0.765   2.937   1.786 -0.3878  0.4281  0.3345
15400TIP3    H167615   0.808   2.970   1.707 -0.8217 -0.5266 -0.3207
15400TIP3    H267616   0.674   2.967   1.778 -0.8849 -1.1787 -0.4637
15401TIP3   OH267617   0.378   3.583   0.470  0.3778 -0.1385 -0.0676
15401TIP3    H167618   0.385   3.628   0.385 -0.6024 -0.3855 -0.2893
15401TIP3    H267619   0.309   3.518   0.457  0.2062 -0.1699  0.9258
15402TIP3   OH267620   5.053   5.495   5.465 -0.4792 -0.2249 -0.1814
15402TIP3    H167621   5.022   5.526   5.381 -0.6259  1.0218  0.3103
15402TIP3    H267622   5.095   5.571   5.505  1.1736 -1.2520  0.1421
15403TIP3   OH267623   3.109   3.555   0.452 -0.5189 -0.4987  0.1992
15403TIP3    H167624   3.164   3.632   0.466 -0.5828 -0.7302  1.9152
15403TIP3    H267625   3.169   3.489   0.418 -0.2800  0.0120 -0.4052
15404TIP3   OH267626   3.186   2.071   5.863  0.4352 -0.3656  0.2546
15404TIP3    H167627   3.124   2.115   5.804  0.4577  2.2394  2.0217
15404TIP3    H267628   3.272   2.094   5.829  0.4342  0.1776  0.5982
15405TIP3   OH267629   0.900   6.714  15.041  0.4740 -0.2267  0.7939
15405TIP3    H167630   0.913   6.808  15.045  0.8421 -0.2769  0.7895
15405TIP3    H267631   0.809   6.703  15.015  0.8203  0.1327 -0.6034
15406TIP3   OH267632   2.746   5.093   2.388  0.1977  0.0415  0.4088
15406TIP3    H167633   2.841   5.089   2.401  0.3197 -1.7390 -0.5879
15406TIP3    H267634   2.712   5.016   2.433 -0.3137 -1.3468 -2.1597
15407TIP3   OH267635   0.250   1.702  17.122  0.0423  0.0424  0.2369
15407TIP3    H167636   0.247   1.788  17.165  1.6684 -0.4180  1.3579
15407TIP3    H267637   0.252   1.639  17.194  5.1763 -0.6911 -0.2245
15408TIP3   OH267638   5.850   0.658  13.235  0.2395 -0.4006  0.0228
15408TIP3    H167639   5.826   0.669  13.326  3.2243  0.8530  0.7768
15408TIP3    H267640   5.824   0.739  13.192  0.3114 -0.3319  0.1114
15409TIP3   OH267641   2.675   6.145   6.290 -0.1904 -0.0460  0.4388
15409TIP3    H167642   2.740   6.075   6.293  0.2941  0.4158  0.8802
15409TIP3    H267643   2.708   6.212   6.350 -1.2881  0.0158  1.0097
15410TIP3   OH267644   1.473   3.683   5.742  0.4388 -0.1854 -0.1614
15410TIP3    H167645   1.495   3.633   5.821  0.1643  1.4535  0.9977
15410TIP3    H267646   1.377   3.687   5.743  0.3541 -1.2693 -1.3331
15411TIP3   OH267647   0.021   6.571  12.735 -0.6074  0.2186  0.2569
15411TIP3    H167648  -0.002   6.543  12.824 -1.9427  0.3800 -0.0202
15411TIP3    H267649  -0.032   6.516  12.678 -1.1774  1.3962 -0.3784
15412TIP3   OH267650   0.308   1.051   5.013 -0.0855  0.3514  0.4305
15412TIP3    H167651   0.291   0.969   4.965  1.8157  0.9327 -1.3924
15412TIP3    H267652   0.377   1.027   5.075  0.3509  0.4931  0.0125
15413TIP3   OH267653   6.456   3.305   0.747  0.1703  0.0962 -0.4360
15413TIP3    H167654   6.440   3.399   0.755 -0.2005  0.0574 -0.6844
15413TIP3    H267655   6.502   3.296   0.663  3.3450  0.4197  1.1194
15414TIP3   OH267656   5.516   1.582  17.342 -0.1641  0.3468 -0.1101
15414TIP3    H167657   5.457   1.513  17.311 -1.5689  0.4836  2.1164
15414TIP3    H267658   5.604   1.550  17.319 -0.9692 -0.3571 -2.5100
15415TIP3   OH267659   2.660   0.868  11.564  0.2490 -0.2765  0.0983
15415TIP3    H167660   2.665   0.963  11.573 -2.7104 -0.0927  0.7237
15415TIP3    H267661   2.667   0.835  11.654 -0.8337 -0.4664  0.1262
15416TIP3   OH267662   3.348   4.602  13.948 -0.3029 -0.0149 -0.0528
15416TIP3    H167663   3.400   4.535  13.991 -1.9509 -0.8075  0.8252
15416TIP3    H267664   3.289   4.635  14.016 -2.5559 -0.8612 -1.4523
15417TIP3   OH267665   5.603   2.414  11.860 -0.0819  0.4863  0.0228
15417TIP3    H167666   5.569   2.413  11.770  0.7645  1.7615 -0.3360
15417TIP3    H267667   5.650   2.498  11.867  0.0758  0.2934  1.5773
15418TIP3   OH267668   4.530   6.549   2.288 -0.2160  0.0265  0.0592
15418TIP3    H167669   4.565   6.636   2.308  0.3065 -0.3554  0.8407
15418TIP3    H267670   4.587   6.488   2.334  0.4901 -0.8718 -1.8751
15419TIP3   OH267671   3.921   1.735   5.904  0.3754 -0.2648 -0.0493
15419TIP3    H167672   3.834   1.771   5.922 -0.0876 -0.3600 -1.8960
15419TIP3    H267673   3.949   1.780   5.824  3.3343  1.9516  2.0470
15420TIP3   OH267674   6.513   4.141   5.030  0.3040  0.0079  0.2478
15420TIP3    H167675   6.420   4.122   5.029  0.3723 -0.3190  0.1714
15420TIP3    H267676   6.544   4.118   4.943  0.5298 -0.2565  0.3960
15421TIP3   OH267677   0.629   4.372  13.262  0.3809 -0.9630 -0.1479
15421TIP3    H167678   0.662   4.426  13.190 -0.2765  1.2025  1.0816
15421TIP3    H267679   0.685   4.394  13.336 -0.6399 -1.0698  0.6812
15422TIP3   OH267680   5.931   6.353  13.446  0.0447  0.2628 -0.1669
15422TIP3    H167681   5.960   6.301  13.521 -0.2484 -1.5023 -1.2311
15422TIP3    H267682   5.837   6.340  13.442  0.2411 -0.9128 -1.7139
15423TIP3   OH267683   6.428   5.258  14.103 -0.1249 -0.0340 -0.3467
15423TIP3    H167684   6.337   5.254  14.073 -0.8285  0.4890  1.5855
15423TIP3    H267685   6.451   5.167  14.121 -0.4512 -0.1194 -0.3466
15424TIP3   OH267686   1.750   5.979   5.209 -0.2148  0.1027  0.4178
15424TIP3    H167687   1.667   5.974   5.257 -0.6841  0.2851 -0.3509
15424TIP3    H267688   1.730   6.034   5.133  0.7010  0.4110  0.3932
15425TIP3   OH267689   1.128   5.692  16.429 -0.4075  0.2139  0.2675
15425TIP3    H167690   1.129   5.724  16.339  0.4060 -0.2016  0.1102
15425TIP3    H267691   1.036   5.685  16.452 -0.6403 -0.3221 -0.7772
15426TIP3   OH267692   3.536   0.480  16.646  0.1157 -0.4499 -0.4661
15426TIP3    H167693   3.542   0.466  16.552 -3.2787  0.2320 -0.9272
15426TIP3    H267694   3.528   0.575  16.656 -3.2640 -0.6479  0.0152
15427TIP3   OH267695   1.975   5.712  11.129 -0.1728 -0.2760  0.3739
15427TIP3    H167696   1.978   5.790  11.184  2.2279 -0.1337  0.1617
15427TIP3    H267697   1.894   5.720  11.080 -0.7617  1.2658  1.5175
15428TIP3   OH267698   1.021   1.102  12.729 -0.1425 -0.0861  0.0407
15428TIP3    H167699   1.059   1.169  12.672 -1.0801  1.5197  1.2253
15428TIP3    H267700   0.929   1.099  12.705 -0.6555  0.9450  1.7223
15429TIP3   OH267701   3.004   6.448  11.368  0.3977 -0.0021  0.3816
15429TIP3    H167702   3.038   6.538  11.375  0.9938 -0.1653 -0.2105
15429TIP3    H267703   2.937   6.454  11.300 -0.7344  0.3036  1.4933
15430TIP3   OH267704   6.688   1.590  14.011  0.0763  0.6777  0.5610
15430TIP3    H167705   6.657   1.601  14.101  0.9218  2.6783  0.6495
15430TIP3    H267706   6.623   1.634  13.957 -0.9236 -1.3075  0.0415
15431TIP3   OH267707   1.917   2.938   4.179  0.1688 -0.2710 -0.0774
15431TIP3    H167708   1.987   3.001   4.193 -2.0620  1.8715  2.8532
15431TIP3    H267709   1.865   2.975   4.108 -0.9517  1.1917  1.4208
15432TIP3   OH267710   6.104   0.443   5.780  0.4842  0.0542  0.0036
15432TIP3    H167711   6.013   0.462   5.804  0.3229  1.2589 -1.4445
15432TIP3    H267712   6.119   0.354   5.813 -1.6125 -0.6421 -0.7850
15433TIP3   OH267713   4.392   3.565   4.360 -0.3781 -0.3694 -0.0430
15433TIP3    H167714   4.365   3.562   4.452 -0.3518 -0.2473 -0.0319
15433TIP3    H267715   4.430   3.652   4.349 -2.6765  0.6038 -0.8271
15434TIP3   OH267716   1.693   6.134   2.183  0.4070 -0.4693  0.1498
15434TIP3    H167717   1.698   6.228   2.200 -0.2123 -0.7116  1.8368
15434TIP3    H267718   1.660   6.128   2.093 -1.5123  0.9645  0.6857
15435TIP3   OH267719   6.340   0.717   1.294  0.6932  0.6622  0.2321
15435TIP3    H167720   6.303   0.732   1.381  0.5753 -0.8053  0.4660
15435TIP3    H267721   6.429   0.750   1.300  0.3512  1.5543  0.5685
15436TIP3   OH267722   6.266   2.169   3.584 -0.1140 -0.1946  0.4146
15436TIP3    H167723   6.188   2.166   3.640  1.0863 -0.0297  2.1955
15436TIP3    H267724   6.321   2.097   3.616  0.0143 -1.0116 -1.5477
15437TIP3   OH267725   3.339   0.588  13.791 -0.2790 -0.0128 -0.1145
15437TIP3    H167726   3.319   0.650  13.721 -0.5496  0.5427  0.4435
15437TIP3    H267727   3.428   0.611  13.818 -0.7947  0.9490  0.8910
15438TIP3   OH267728   1.550   1.589   5.666  0.3483 -0.0311 -0.2134
15438TIP3    H167729   1.509   1.587   5.580  1.4375  0.5391 -0.7688
15438TIP3    H267730   1.548   1.681   5.691 -0.1642 -0.2222  0.4855
15439TIP3   OH267731   4.626   3.973   2.715 -0.2259  0.6318 -0.0484
15439TIP3    H167732   4.616   4.057   2.760  1.0113  1.7119 -1.6723
15439TIP3    H267733   4.710   3.939   2.746 -1.2205 -0.5951  1.4382
15440TIP3   OH267734   6.156   1.942   4.957  0.2287 -0.6425 -0.1663
15440TIP3    H167735   6.154   1.867   4.899 -0.3066 -0.6516 -0.1403
15440TIP3    H267736   6.248   1.953   4.980  0.5986  0.0227 -1.8537
15441TIP3   OH267737   3.723   1.314  12.586  0.4501 -0.3131 -0.1945
15441TIP3    H167738   3.792   1.261  12.548  0.0958 -0.8122 -0.1476
15441TIP3    H267739   3.687   1.364  12.513  1.0746  0.1977 -0.1612
15442TIP3   OH267740   6.052   6.478   0.558 -0.3797  0.6683 -0.3055
15442TIP3    H167741   6.003   6.442   0.632  0.2836 -2.0286 -1.0544
15442TIP3    H267742   5.993   6.469   0.484  0.1103  0.3402 -0.6606
15443TIP3   OH267743   3.298   6.554  13.696 -0.5104  0.3520  0.2301
15443TIP3    H167744   3.364   6.595  13.641  2.4638 -0.8496  2.6404
15443TIP3    H267745   3.291   6.612  13.772 -0.0524 -0.9920  1.3237
15444TIP3   OH267746   6.148   0.332  14.850 -0.6992 -1.0412 -0.9480
15444TIP3    H167747   6.127   0.246  14.886 -0.7496 -0.5844  0.1410
15444TIP3    H267748   6.205   0.313  14.776 -1.1798 -2.0404 -1.0748
15445TIP3   OH267749   4.784   1.100  12.016 -0.1720 -0.3926  0.0035
15445TIP3    H167750   4.805   1.193  12.005 -0.3701 -0.4510 -0.9702
15445TIP3    H267751   4.855   1.054  11.972  0.2502 -0.7303  1.0185
15446TIP3   OH267752   6.286   6.420  16.760 -0.2658 -0.0890  0.1755
15446TIP3    H167753   6.303   6.404  16.668 -1.6785 -1.6451  0.1327
15446TIP3    H267754   6.364   6.389  16.806  0.6941  1.2449 -0.4956
15447TIP3   OH267755   5.905   2.036   3.287  0.0200  0.6280 -0.2187
15447TIP3    H167756   5.892   2.100   3.357 -0.9190 -1.4824  1.6544
15447TIP3    H267757   5.986   1.990   3.311 -0.9695 -0.9510  0.2042
15448TIP3   OH267758   5.049   0.499   4.814 -0.3721  0.1294  0.3948
15448TIP3    H167759   4.984   0.500   4.744 -0.4375  1.2535  0.4471
15448TIP3    H267760   5.001   0.466   4.890 -1.0032  1.2738  0.5198
15449TIP3   OH267761   2.070   5.295  15.353 -0.1032  0.7869  0.0509
15449TIP3    H167762   2.085   5.389  15.362 -0.2710  0.8622 -0.4350
15449TIP3    H267763   2.064   5.263  15.443 -0.5085  1.3174  0.2145
15450TIP3   OH267764   6.550   1.923  11.011 -0.0844  0.0409  0.2898
15450TIP3    H167765   6.537   1.951  10.920 -1.9874 -0.6235  0.3135
15450TIP3    H267766   6.496   1.983  11.062  0.2552 -0.1605  0.8892
15451TIP3   OH267767   1.274   0.258   5.039 -0.2369 -0.1377  0.0770
15451TIP3    H167768   1.206   0.294   4.981  0.2202  1.1250  0.2939
15451TIP3    H267769   1.232   0.256   5.125 -0.1375  0.2480  0.1352
15452TIP3   OH267770   1.967   0.067  10.933  0.7193  0.8329  0.6516
15452TIP3    H167771   1.872   0.060  10.924  0.6988  1.3845  0.4118
15452TIP3    H267772   1.980   0.105  11.020  0.6737  1.8256  0.2349
15453TIP3   OH267773   4.605   1.148  13.247 -0.2269 -0.7244 -0.3071
15453TIP3    H167774   4.571   1.073  13.295 -0.8775 -0.6892 -0.7006
15453TIP3    H267775   4.620   1.215  13.313 -0.5917 -0.8623 -0.0846
15454TIP3   OH267776   4.355   3.109  15.207 -0.3994  0.3114  0.0811
15454TIP3    H167777   4.316   3.056  15.137  1.3324 -1.4302  0.3570
15454TIP3    H267778   4.285   3.119  15.272 -0.3069 -3.4243  0.9666
15455TIP3   OH267779   6.454   5.682   5.742 -0.5026  0.1977  0.3137
15455TIP3    H167780   6.424   5.659   5.829  1.0114 -2.2166  0.2861
15455TIP3    H267781   6.513   5.756   5.755  1.2856 -1.3901  1.6672
15456TIP3   OH267782   4.846   1.146   3.566  0.3259 -0.4875 -0.2006
15456TIP3    H167783   4.864   1.151   3.660  0.0843  0.0456 -0.1795
15456TIP3    H267784   4.906   1.079   3.534  1.2273  0.1437  0.1335
15457TIP3   OH267785   1.581   5.666  14.296  0.0297  0.2930 -0.1028
15457TIP3    H167786   1.547   5.655  14.207 -0.3657 -2.0814  0.2715
15457TIP3    H267787   1.657   5.608  14.299  0.4978  0.9402  0.8924
15458TIP3   OH267788   1.136   1.827   2.513 -0.1093 -0.2889 -0.1274
15458TIP3    H167789   1.130   1.737   2.482  0.7334  0.6143 -3.3550
15458TIP3    H267790   1.047   1.852   2.535 -0.4810 -1.6109 -0.0790
15459TIP3   OH267791   6.142   6.658   2.488  0.0746  0.4129 -0.3568
15459TIP3    H167792   6.235   6.649   2.511 -0.6653 -0.4610  2.8156
15459TIP3    H267793   6.128   6.752   2.481  0.7019  0.7669  2.0225
15460TIP3   OH267794   3.513   4.139   0.824 -0.1867  0.3763  0.0696
15460TIP3    H167795   3.587   4.105   0.775 -0.3077 -0.4731  0.4598
15460TIP3    H267796   3.552   4.187   0.897 -0.0195  0.8841 -0.3470
15461TIP3   OH267797   6.143   3.329   4.358 -0.6707 -0.2741  0.1587
15461TIP3    H167798   6.150   3.270   4.283  1.6910  1.3174 -0.9796
15461TIP3    H267799   6.188   3.284   4.429  1.1435  0.0780 -0.7090
15462TIP3   OH267800   6.434   1.671   4.112  0.2227 -0.1647  0.2205
15462TIP3    H167801   6.355   1.706   4.071 -1.0838 -2.6428  0.4305
15462TIP3    H267802   6.420   1.683   4.206  0.8607  0.8047  0.2133
15463TIP3   OH267803   4.192   5.677  14.274  0.3700  0.3793 -0.3043
15463TIP3    H167804   4.172   5.762  14.236  2.5101  2.3678  2.5787
15463TIP3    H267805   4.284   5.662  14.251 -0.1972 -1.6366 -1.4689
15464TIP3   OH267806   3.242   6.161  15.480  0.3103  0.3334  0.5187
15464TIP3    H167807   3.186   6.094  15.441 -0.5435  1.9047 -1.1113
15464TIP3    H267808   3.181   6.227  15.514  1.1176  1.4495 -0.1186
15465TIP3   OH267809   5.912   0.442   1.931 -0.1233 -0.2432  0.3014
15465TIP3    H167810   5.828   0.472   1.895  0.3063 -0.3353 -0.8216
15465TIP3    H267811   5.933   0.507   1.998 -1.9904 -1.2517  1.9695
15466TIP3   OH267812   4.051   1.449   4.005 -0.4186 -0.4894 -0.3761
15466TIP3    H167813   4.012   1.367   4.034 -1.6132 -0.3703 -1.5768
15466TIP3    H267814   4.073   1.495   4.086 -3.1810 -0.3718  0.4005
15467TIP3   OH267815   6.402   5.913   3.870 -0.5167  0.5051  0.5132
15467TIP3    H167816   6.468   5.848   3.893 -1.0171 -0.5915 -0.9821
15467TIP3    H267817   6.327   5.891   3.925 -1.6090 -1.9180 -1.7221
15468TIP3   OH267818   5.188   3.115  17.207 -0.1734 -0.5812  0.4728
15468TIP3    H167819   5.178   3.109  17.302 -0.5655  2.3724  0.7157
15468TIP3    H267820   5.098   3.119  17.174 -0.0427  0.7239  0.2322
15469TIP3   OH267821   0.533   0.069  11.635  0.3812 -0.2690  0.0740
15469TIP3    H167822   0.557   0.120  11.713 -0.8421  0.8293 -0.2375
15469TIP3    H267823   0.551   0.127  11.562 -1.5934 -0.0125 -0.2595
15470TIP3   OH267824   1.131   2.025   1.368  0.4977  0.2967 -0.1122
15470TIP3    H167825   1.181   2.091   1.319 -1.6607  0.1633 -2.7374
15470TIP3    H267826   1.068   2.074   1.419 -0.5049  0.3558 -1.3623
15471TIP3   OH267827   5.570   6.402   5.454 -0.4284  0.4332  0.1284
15471TIP3    H167828   5.641   6.456   5.420 -0.4059  0.0164 -0.5147
15471TIP3    H267829   5.555   6.435   5.542  1.8388 -0.7120  1.0085
15472TIP3   OH267830   4.718   1.842   1.571 -0.1259 -0.4714  0.2666
15472TIP3    H167831   4.751   1.752   1.574  0.5961 -0.3027 -1.5146
15472TIP3    H267832   4.705   1.865   1.663  2.9425 -1.2241  1.0172
15473TIP3   OH267833   0.284   2.430  12.939  0.2511  0.0422  0.1328
15473TIP3    H167834   0.282   2.337  12.964 -2.9489 -0.6002 -1.9002
15473TIP3    H267835   0.255   2.477  13.017  0.1281 -0.8593  0.6439
15474TIP3   OH267836   3.948   4.453  12.544 -0.0049 -0.4581  0.4059
15474TIP3    H167837   3.938   4.418  12.455 -1.0626 -0.0518  0.3521
15474TIP3    H267838   3.891   4.398  12.598 -0.4943  0.2190  0.5811
15475TIP3   OH267839   4.667   3.789  17.074  0.2103  0.0075 -0.3395
15475TIP3    H167840   4.744   3.817  17.024 -0.2659  1.6662 -0.1940
15475TIP3    H267841   4.700   3.768  17.161  0.2551  3.0771  0.4998
15476TIP3   OH267842   4.531   3.834  13.330 -0.0927 -0.1649 -0.4764
15476TIP3    H167843   4.496   3.888  13.400  1.0092  1.0284 -0.8107
15476TIP3    H267844   4.477   3.755  13.332 -1.3448  0.6632  0.4322
15477TIP3   OH267845   0.540   6.594  11.452 -0.5636  0.3605  0.5745
15477TIP3    H167846   0.532   6.571  11.360 -0.5887  1.7841  0.1982
15477TIP3    H267847   0.484   6.671  11.462  0.7015  1.2152  1.3949
15478TIP3   OH267848   3.363   5.382  13.004  0.0910  0.3888 -0.4506
15478TIP3    H167849   3.354   5.353  13.095 -1.1645 -1.3212 -1.0558
15478TIP3    H267850   3.273   5.401  12.976  0.4558  0.8713 -1.3573
15479TIP3   OH267851   0.613   6.505  11.769 -0.3462 -0.4318 -0.1146
15479TIP3    H167852   0.632   6.582  11.822  0.2332  1.0774 -2.3984
15479TIP3    H267853   0.594   6.539  11.682  2.8263 -2.9483 -2.0160
15480TIP3   OH267854   4.478   4.880  10.977  0.2657  0.1420 -0.3867
15480TIP3    H167855   4.405   4.829  10.942 -0.7207  0.9192  0.4957
15480TIP3    H267856   4.490   4.951  10.914  0.1169  0.1459 -0.4099
15481TIP3   OH267857   2.953   6.306   1.362 -0.0375  0.1065  0.5440
15481TIP3    H167858   3.043   6.274   1.365  0.1638  0.5192 -0.6640
15481TIP3    H267859   2.961   6.400   1.351 -0.5569 -0.0968 -2.2672
15482TIP3   OH267860   6.238   4.473   5.578 -0.0726  0.1813 -0.3585
15482TIP3    H167861   6.158   4.495   5.626  0.8596  2.8978  0.1330
15482TIP3    H267862   6.237   4.377   5.572 -3.4576  0.0852 -0.5998
15483TIP3   OH267863   3.892   0.770  15.476 -0.4585  0.9744  0.0541
15483TIP3    H167864   3.870   0.829  15.404 -0.3166  0.3186 -0.5358
15483TIP3    H267865   3.914   0.829  15.548  0.4447  1.6616 -0.7419
15484TIP3   OH267866   3.792   4.093  10.754  0.6711  0.0622  0.1698
15484TIP3    H167867   3.800   4.174  10.705  0.4965  0.2432  0.4331
15484TIP3    H267868   3.699   4.070  10.747  0.8566 -0.5013 -0.5064
15485TIP3   OH267869   0.998   1.098   1.574 -0.4476  0.3105  0.3541
15485TIP3    H167870   0.942   1.088   1.650 -2.2089 -1.2340 -1.0700
15485TIP3    H267871   1.061   1.026   1.580  0.2311  0.9395  0.9749
15486TIP3   OH267872   1.996   6.575  12.375  0.3451  0.4523 -0.6231
15486TIP3    H167873   2.069   6.587  12.314  2.3912  1.0926  1.7858
15486TIP3    H267874   2.001   6.483  12.400  0.2307  0.4672 -0.5472
15487TIP3   OH267875   2.262   5.323   5.245 -0.4185 -0.2604 -0.1146
15487TIP3    H167876   2.180   5.312   5.294 -1.8955  0.1803 -2.3307
15487TIP3    H267877   2.295   5.233   5.234 -0.2833 -0.3993  1.2439
15488TIP3   OH267878   5.173   6.521  14.918 -0.2649  0.1426 -0.3802
15488TIP3    H167879   5.144   6.608  14.890 -0.4638  0.4881  0.8414
15488TIP3    H267880   5.267   6.531  14.932 -0.0812 -0.1543 -1.3433
15489TIP3   OH267881   0.626   4.774  12.733 -0.4701  0.1590  0.2552
15489TIP3    H167882   0.586   4.854  12.767 -0.8608  1.3473 -2.6916
15489TIP3    H267883   0.561   4.739  12.673 -0.3476 -2.5376  1.5541
15490TIP3   OH267884   2.947   4.731  12.320 -0.3192 -0.1322  0.1680
15490TIP3    H167885   2.900   4.648  12.308 -0.4983 -0.2447  1.4890
15490TIP3    H267886   2.881   4.798  12.303 -0.0774 -0.2308 -1.2918
15491TIP3   OH267887   3.778   1.544  12.047  0.2282  0.0218 -0.5321
15491TIP3    H167888   3.722   1.480  12.004  0.2408 -0.5205  0.2396
15491TIP3    H267889   3.774   1.521  12.140  2.4474 -0.6192 -0.5410
15492TIP3   OH267890   6.648   2.150  13.047  0.0811 -0.9334  0.2185
15492TIP3    H167891   6.646   2.226  13.106  0.4545 -0.3601 -0.4986
15492TIP3    H267892   6.628   2.186  12.961 -0.0656 -1.7107 -0.0767
15493TIP3   OH267893   4.203   2.408   5.803 -0.0179  0.2103  0.3729
15493TIP3    H167894   4.159   2.328   5.832 -1.0947  0.5300 -0.3314
15493TIP3    H267895   4.293   2.382   5.787  0.3813 -0.2392  2.9041
15494TIP3   OH267896   6.254   2.351   4.865  0.1197 -0.1717 -0.0499
15494TIP3    H167897   6.185   2.299   4.907  0.6273 -1.9650 -1.3261
15494TIP3    H267898   6.249   2.326   4.772  1.5383  0.7858 -0.4099
15495TIP3   OH267899   0.455   1.639   0.837  0.3073 -0.5877 -0.1322
15495TIP3    H167900   0.528   1.642   0.898 -1.6243 -1.8546  2.4439
15495TIP3    H267901   0.412   1.555   0.856 -1.8780  0.1558 -1.4448
15496TIP3   OH267902   6.537   3.164  13.822 -0.4942 -0.3794 -0.1180
15496TIP3    H167903   6.540   3.222  13.746 -0.9094  0.7706  0.7134
15496TIP3    H267904   6.557   3.077  13.787  0.9649  0.3803 -1.2722
15497TIP3   OH267905   2.167   2.176   5.372 -0.6398 -0.5627 -0.4010
15497TIP3    H167906   2.212   2.139   5.295 -0.6537 -0.6752 -0.3547
15497TIP3    H267907   2.231   2.236   5.409 -0.0762 -1.5856  0.3413
15498TIP3   OH267908   3.674   1.943  16.739  0.1871 -0.5879 -0.7348
15498TIP3    H167909   3.645   2.025  16.779 -2.3435 -2.1165  0.7979
15498TIP3    H267910   3.754   1.920  16.785  1.6301  1.5311 -2.0065
15499TIP3   OH267911   3.699   4.026  15.274  0.4588 -0.5064 -0.7278
15499TIP3    H167912   3.673   4.057  15.361 -1.4977 -0.5959 -1.2202
15499TIP3    H267913   3.793   4.042  15.269  0.3194  1.0851  0.7708
15500TIP3   OH267914   4.228   1.418   5.390 -0.3419  0.1317 -0.0018
15500TIP3    H167915   4.259   1.480   5.324 -1.2693 -0.4621 -1.0427
15500TIP3    H267916   4.292   1.346   5.387 -0.1273  0.3200  0.0794
15501TIP3   OH267917   5.137   1.044  13.223 -0.1666 -0.2701  0.4284
15501TIP3    H167918   5.138   0.948  13.219  0.1946 -0.2909  0.9016
15501TIP3    H267919   5.071   1.063  13.291 -0.5574 -0.1684  0.0247
15502TIP3   OH267920   4.898   4.013   2.169  0.6767  0.0583 -0.0999
15502TIP3    H167921   4.955   3.955   2.220  1.7389  0.5650 -0.6900
15502TIP3    H267922   4.861   3.956   2.102  1.2690 -0.0724 -0.3250
15503TIP3   OH267923   4.772   2.016  15.257 -0.4220 -0.2598  0.4188
15503TIP3    H167924   4.717   1.944  15.288  1.5527 -1.7220  0.7284
15503TIP3    H267925   4.745   2.030  15.166 -3.0760  0.9257  1.2594
15504TIP3   OH267926   5.789   6.678   1.960 -0.0452 -0.3470  0.2068
15504TIP3    H167927   5.789   6.648   1.869  1.1107 -2.8378  0.9320
15504TIP3    H267928   5.875   6.717   1.973 -0.9790  2.0637 -0.2845
15505TIP3   OH267929   6.339   3.387   5.719  0.0004  0.0003 -0.1617
15505TIP3    H167930   6.391   3.326   5.771  1.7996  0.9678 -0.7073
15505TIP3    H267931   6.391   3.401   5.640 -1.0584  1.1127 -0.7008
15506TIP3   OH267932   5.037   1.285  16.563  0.1592 -0.1335  0.0269
15506TIP3    H167933   4.999   1.197  16.559  1.2660 -0.6141 -0.6463
15506TIP3    H267934   4.977   1.335  16.617 -1.3065 -0.8891 -0.8492
15507TIP3   OH267935   2.173   2.133  11.250  0.0981  0.5234 -0.2361
15507TIP3    H167936   2.121   2.055  11.268  1.2955  0.0275  1.3091
15507TIP3    H267937   2.196   2.126  11.157  1.0535 -1.5273  0.1059
15508TIP3   OH267938   3.728   1.121  12.931 -0.2240 -0.0851 -0.3636
15508TIP3    H167939   3.750   1.143  13.022  1.0479  0.2862 -0.7361
15508TIP3    H267940   3.788   1.174  12.879 -1.8678  0.7382 -1.4743
15509TIP3   OH267941   6.556   1.200   3.011 -0.4113 -0.1128  0.1381
15509TIP3    H167942   6.634   1.185   3.064 -0.7273 -1.8530  0.1761
15509TIP3    H267943   6.495   1.245   3.071 -0.0771 -0.3366  0.6526
15510TIP3   OH267944   6.208   4.166  15.555 -0.5972  0.1606  0.1180
15510TIP3    H167945   6.225   4.210  15.639  0.4588  0.6419 -0.3273
15510TIP3    H267946   6.149   4.225  15.508 -0.1217  0.5475 -0.0039
15511TIP3   OH267947   4.739   2.687  12.013 -0.5354  0.5759  0.2212
15511TIP3    H167948   4.746   2.728  11.927 -0.2215 -1.9071 -1.0071
15511TIP3    H267949   4.692   2.606  11.997 -0.3584 -0.0086  2.3878
15512TIP3   OH267950   5.785   6.756  16.846 -0.5729 -0.7860  0.3785
15512TIP3    H167951   5.824   6.836  16.810 -2.3948 -0.7179 -1.6666
15512TIP3    H267952   5.859   6.706  16.879  0.7322  1.2722  0.7818
15513TIP3   OH267953   3.064   3.915  15.660  0.1777 -0.4073  0.3081
15513TIP3    H167954   3.012   3.838  15.684 -0.9524 -0.4459 -1.9514
15513TIP3    H267955   3.154   3.882  15.656 -0.1555 -1.3778  0.4053
15514TIP3   OH267956   3.780   2.967  16.347 -0.4605  0.0639 -0.3240
15514TIP3    H167957   3.725   2.895  16.376  0.6264 -1.2504 -1.4245
15514TIP3    H267958   3.869   2.942  16.373 -0.1620  1.4309  0.0635
15515TIP3   OH267959   3.948   5.468   4.911  0.1473 -0.1100 -0.1721
15515TIP3    H167960   3.991   5.435   4.991  0.0592  0.6161  0.1811
15515TIP3    H267961   4.021   5.487   4.852  0.1882 -1.3039 -0.5440
15516TIP3   OH267962   6.516   2.825   2.292  0.4729  0.2559  0.4832
15516TIP3    H167963   6.580   2.893   2.270 -0.5935  0.6649 -1.6964
15516TIP3    H267964   6.556   2.744   2.261  0.2182  0.4320 -0.3364
15517TIP3   OH267965   2.591   0.971   2.627 -0.2890 -0.0718 -0.7713
15517TIP3    H167966   2.554   0.930   2.549 -0.7114  0.5773 -0.9169
15517TIP3    H267967   2.536   0.941   2.699 -0.9475  0.6679 -0.9516
15518TIP3   OH267968   4.690   6.150  14.646 -0.0595 -0.3473 -0.0086
15518TIP3    H167969   4.693   6.210  14.571  0.3474  0.7462  0.8443
15518TIP3    H267970   4.761   6.088  14.630  1.4964  1.2008  0.5081
15519TIP3   OH267971   0.067   2.840  12.551  0.0022 -0.1258 -0.3886
15519TIP3    H167972   0.140   2.811  12.606  0.8220  1.7464 -0.4134
15519TIP3    H267973   0.043   2.763  12.500  1.0158 -1.1650  0.6488
15520TIP3   OH267974   5.034   5.179  14.226  0.2575  0.2173  0.3515
15520TIP3    H167975   4.988   5.243  14.280  1.3332  0.6980  0.7098
15520TIP3    H267976   5.054   5.226  14.145 -0.1715 -0.0950  0.0602
15521TIP3   OH267977   5.958   2.690   1.133 -0.3110  0.7298 -0.6398
15521TIP3    H167978   5.943   2.596   1.121 -2.0800  1.1639 -2.4467
15521TIP3    H267979   5.962   2.703   1.227  1.8404 -1.3787 -0.3450
15522TIP3   OH267980   2.938   2.551  16.863  0.2084 -0.3092 -0.1507
15522TIP3    H167981   3.020   2.595  16.886 -0.1831 -0.1143  0.9357
15522TIP3    H267982   2.966   2.472  16.818  0.9708  0.1500 -0.5114
15523TIP3   OH267983   2.530   5.926  15.303  0.0308  0.1696 -0.2902
15523TIP3    H167984   2.590   5.924  15.229  0.8495 -0.8665  0.3749
15523TIP3    H267985   2.549   5.846  15.352 -2.4150 -0.5721 -0.4408
15524TIP3   OH267986   6.522   4.772  14.472 -0.1046  0.3867 -0.2971
15524TIP3    H167987   6.545   4.686  14.508  1.5613  0.2466 -1.5616
15524TIP3    H267988   6.445   4.800  14.522  0.5433 -0.9281  1.5155
15525TIP3   OH267989   3.997   3.467  15.304 -0.0888 -0.0768 -0.4421
15525TIP3    H167990   4.067   3.531  15.317 -1.3060  1.8140 -2.5483
15525TIP3    H267991   3.920   3.509  15.343 -0.1456 -2.2510  2.1223
15526TIP3   OH267992   3.823   1.279  17.310  0.1052  0.2886 -0.3629
15526TIP3    H167993   3.905   1.318  17.279 -0.0648 -0.0000 -1.2120
15526TIP3    H267994   3.784   1.241  17.231  0.6323 -2.2780  0.5187
15527TIP3   OH267995   3.626   1.786   5.950 -0.6957 -0.2894 -0.1463
15527TIP3    H167996   3.604   1.697   5.977 -0.4336 -1.5845 -3.6572
15527TIP3    H267997   3.573   1.801   5.871  0.2055  2.1839 -0.3745
15528TIP3   OH267998   2.950   3.850   2.506  0.3574  0.4439  0.0170
15528TIP3    H167999   2.876   3.899   2.470 -0.4009  1.1919  2.4303
15528TIP3    H268000   2.936   3.850   2.600  3.2230  0.2577  0.5536
15529TIP3   OH268001   0.249   0.699  11.794 -0.0718 -0.0173  0.2809
15529TIP3    H168002   0.246   0.745  11.878 -0.2368 -0.8331  0.7333
15529TIP3    H268003   0.167   0.650  11.791  0.2346 -0.5151 -0.0573
15530TIP3   OH268004   0.953   0.889   1.854  0.3319 -0.0577 -0.0291
15530TIP3    H168005   0.950   0.900   1.949  0.5201  0.4540 -0.0790
15530TIP3    H268006   0.881   0.944   1.821 -0.3713 -0.9961 -0.1270
15531TIP3   OH268007   2.396   3.228   6.182 -0.8208 -0.3580  0.7449
15531TIP3    H168008   2.440   3.150   6.216  0.2345 -0.0680  0.0942
15531TIP3    H268009   2.410   3.294   6.250  1.9257  0.4338 -0.4337
15532TIP3   OH268010   2.219   6.746  12.851  0.8002 -0.0614 -0.6289
15532TIP3    H168011   2.140   6.738  12.904  2.1223  0.8971  1.6073
15532TIP3    H268012   2.189   6.727  12.762 -1.9536  0.3667  0.0983
15533TIP3   OH268013   5.769   5.012  17.381  0.7508  0.3308  0.3367
15533TIP3    H168014   5.852   5.059  17.390  0.0093  1.5601  0.9056
15533TIP3    H268015   5.728   5.018  17.467 -0.0320 -0.0807  0.0036
15534TIP3   OH268016   5.788   0.121   3.181  0.3260  0.3559  0.2148
15534TIP3    H168017   5.840   0.057   3.229  0.6251  1.7688  1.8488
15534TIP3    H268018   5.769   0.078   3.097  2.2860 -1.0190  0.4154
15535TIP3   OH268019   1.679   0.134   0.614  0.1991  0.1366  0.3249
15535TIP3    H168020   1.644   0.104   0.698  0.0636 -1.2783 -0.2070
15535TIP3    H268021   1.751   0.192   0.637  0.0983 -0.1567  1.4237
15536TIP3   OH268022   3.656   0.812   0.928  0.1484 -0.4003  0.2705
15536TIP3    H168023   3.611   0.785   0.848  1.0545 -3.4708  0.6564
15536TIP3    H268024   3.715   0.881   0.901 -0.4552 -0.5158 -1.4488
15537TIP3   OH268025   0.592   3.103   2.856 -0.4264 -0.0122  0.2856
15537TIP3    H168026   0.587   3.058   2.772 -0.2700  0.4184  0.0435
15537TIP3    H268027   0.633   3.039   2.915  0.9563  0.2365 -0.3676
15538TIP3   OH268028   4.421   3.648   2.436 -0.5689  0.3795 -0.1233
15538TIP3    H168029   4.364   3.571   2.438 -2.2379  1.5900  0.7832
15538TIP3    H268030   4.489   3.629   2.500 -2.0563  0.4266  1.5265
15539TIP3   OH268031   2.668   4.834   2.805 -0.0147  0.6677  0.2887
15539TIP3    H168032   2.654   4.744   2.835  0.0457  0.5841  0.0698
15539TIP3    H268033   2.648   4.831   2.711  1.2480  0.5947  0.0044
15540TIP3   OH268034   5.870   5.252  16.410  0.2390 -0.4131  0.2674
15540TIP3    H168035   5.816   5.174  16.398 -0.7116  0.3322 -0.3627
15540TIP3    H268036   5.945   5.221  16.462 -1.5494 -1.1348  2.5956
15541TIP3   OH268037   0.509   2.824  13.837 -0.3873 -0.4885 -0.6524
15541TIP3    H168038   0.511   2.731  13.861  1.7536 -0.5557 -0.9393
15541TIP3    H268039   0.601   2.847  13.822 -0.9463  1.5078 -1.2684
15542TIP3   OH268040   1.004   6.025  15.693  0.1163 -0.3080  0.7119
15542TIP3    H168041   0.927   6.081  15.683 -1.4920 -2.6341 -1.5421
15542TIP3    H268042   1.044   6.024  15.606  1.6384 -0.5860  1.3939
15543TIP3   OH268043   6.471   5.652  11.479 -0.4898 -0.1840 -0.2899
15543TIP3    H168044   6.455   5.679  11.389 -0.3183  1.3671  0.1263
15543TIP3    H268045   6.408   5.703  11.531  1.0480  0.8036  0.6909
15544TIP3   OH268046   6.354   0.393  14.216  0.0484  0.6622  0.1479
15544TIP3    H168047   6.301   0.451  14.272 -0.0597  0.8054 -0.1032
15544TIP3    H268048   6.438   0.387  14.261 -0.0866  0.6603  0.4028
15545TIP3   OH268049   5.660   1.872  13.242 -0.0467 -0.1321  0.0500
15545TIP3    H168050   5.741   1.903  13.203 -0.0800 -0.7451 -0.5218
15545TIP3    H268051   5.684   1.791  13.287 -0.2388 -0.0321  0.3368
15546TIP3   OH268052   0.799   3.753  12.951  0.3237  0.2431 -0.7502
15546TIP3    H168053   0.835   3.830  12.907 -1.2697  1.3452 -0.2094
15546TIP3    H268054   0.746   3.789  13.023 -0.6810 -1.3297 -0.6585
15547TIP3   OH268055   6.276   6.515  11.570  0.0817 -0.6276 -0.2531
15547TIP3    H168056   6.358   6.561  11.588  1.1299 -2.1172 -0.9698
15547TIP3    H268057   6.208   6.574  11.600  1.3461  1.3922 -1.1466
15548TIP3   OH268058   4.383   1.226   5.251 -0.7743  0.9365 -0.7517
15548TIP3    H168059   4.381   1.257   5.161  1.1895  1.4697 -0.6606
15548TIP3    H268060   4.476   1.227   5.274 -1.0990 -0.6064  0.7944
15549TIP3   OH268061   4.153   4.710   1.752  0.4251 -0.1514 -0.0645
15549TIP3    H168062   4.136   4.658   1.831  1.2761  1.1891  1.0472
15549TIP3    H268063   4.242   4.743   1.764  0.6843 -0.1615 -1.7421
15550TIP3   OH268064   4.843   1.612  14.007 -0.0568 -0.5717  0.4287
15550TIP3    H168065   4.765   1.569  13.972  0.0302  1.1162 -2.1013
15550TIP3    H268066   4.814   1.700  14.028  0.4556 -0.8805  2.6955
15551TIP3   OH268067   2.324   4.422  12.641 -0.0544  0.5072 -0.0364
15551TIP3    H168068   2.244   4.464  12.610  0.2208  1.2717  0.2676
15551TIP3    H268069   2.307   4.402  12.733 -0.6725 -1.2779 -0.4939
15552TIP3   OH268070   2.206   2.187   0.706  0.1819 -0.2238 -0.2286
15552TIP3    H168071   2.112   2.185   0.725  0.1390  0.1524 -0.3901
15552TIP3    H268072   2.226   2.098   0.676  0.2486 -0.8250  1.5160
15553TIP3   OH268073   5.950   1.343   2.111 -0.1132  0.0908  0.3418
15553TIP3    H168074   5.917   1.254   2.127 -1.0415  0.4828  0.6414
15553TIP3    H268075   6.040   1.340   2.144 -0.1789 -0.7003  0.4876
15554TIP3   OH268076   1.439   2.827   1.444  0.3881 -0.3035 -0.6535
15554TIP3    H168077   1.352   2.832   1.406  1.0633  0.4500 -2.2078
15554TIP3    H268078   1.429   2.774   1.523 -1.4333 -0.3254 -0.8763
15555TIP3   OH268079   4.011   0.015  15.643  0.1261 -0.4220 -0.4812
15555TIP3    H168080   3.959   0.060  15.576 -0.5137 -2.7450 -1.6684
15555TIP3    H268081   4.099   0.008  15.606  0.4036  0.3932 -0.0044
15556TIP3   OH268082   0.831   5.680  13.423  0.8280  0.2802 -0.0896
15556TIP3    H168083   0.866   5.719  13.343 -1.1039 -1.6902 -2.0244
15556TIP3    H268084   0.886   5.603  13.439  0.2618 -0.2097 -0.4582
15557TIP3   OH268085   3.014   4.410  14.200 -0.1914  0.5134  0.3034
15557TIP3    H168086   2.955   4.436  14.271  0.2307 -2.1179  1.7540
15557TIP3    H268087   2.968   4.437  14.120 -2.3142  0.5417  1.4456
15558TIP3   OH268088   2.457   4.043  11.704  0.3636  0.3880  0.2900
15558TIP3    H168089   2.499   4.120  11.742  0.7253  1.1383 -1.4886
15558TIP3    H268090   2.396   4.079  11.639 -0.4535 -0.8048  0.3615
15559TIP3   OH268091   1.132   4.393  11.178  0.0524 -0.2189 -0.2182
15559TIP3    H168092   1.105   4.382  11.087 -0.4724 -1.3713  0.0707
15559TIP3    H268093   1.223   4.362  11.180 -0.0963 -0.6565 -0.2473
15560TIP3   OH268094   0.570   4.688  14.900 -0.2266 -1.0260  0.2037
15560TIP3    H168095   0.504   4.757  14.908 -0.9097 -1.8431  2.4085
15560TIP3    H268096   0.564   4.660  14.809 -0.7100  1.0415 -0.4591
15561TIP3   OH268097   1.673   3.044  15.867  0.5309  0.1492 -0.7171
15561TIP3    H168098   1.673   2.987  15.790  2.1807  1.2315 -1.5686
15561TIP3    H268099   1.673   3.133  15.832  1.1287  0.6716  0.5303
15562TIP3   OH268100   0.861   1.768  13.021 -0.3726 -0.0934  0.1516
15562TIP3    H168101   0.898   1.816  13.095  0.7676 -0.7352  0.0127
15562TIP3    H268102   0.891   1.816  12.944 -0.3963 -0.2199  0.0630
15563TIP3   OH268103   1.842   2.647  11.395  1.0929  0.2041  0.1615
15563TIP3    H168104   1.897   2.662  11.471  0.8823  1.0991  0.1461
15563TIP3    H268105   1.753   2.638  11.431  1.0096  0.5096  0.0379
15564TIP3   OH268106   5.392   2.166  14.441  0.0734  0.6357 -0.0231
15564TIP3    H168107   5.392   2.235  14.375 -0.4799 -0.5459 -1.3227
15564TIP3    H268108   5.401   2.212  14.525 -2.0491  2.4270 -0.6764
15565TIP3   OH268109   1.561   2.458  16.757  0.0730 -0.9622  0.2785
15565TIP3    H168110   1.552   2.504  16.674  0.6876 -2.2720 -0.5620
15565TIP3    H268111   1.655   2.440  16.763  0.1009 -0.4455  1.5088
15566TIP3   OH268112   4.294   1.798   4.462  0.8347  0.0113  0.0074
15566TIP3    H168113   4.335   1.794   4.376 -0.0105 -0.9085 -0.3761
15566TIP3    H268114   4.368   1.800   4.524  1.4523 -0.3472 -0.6982
15567TIP3   OH268115   1.249   0.247  13.804 -0.3082  0.5242  0.2118
15567TIP3    H168116   1.304   0.302  13.747  1.8080  0.5053  2.0891
15567TIP3    H268117   1.226   0.304  13.878 -1.1487 -0.0866  0.4345
15568TIP3   OH268118   1.371   4.007   5.805 -0.5585  0.3701  0.0580
15568TIP3    H168119   1.321   4.052   5.738  1.2898  2.2524 -0.1612
15568TIP3    H268120   1.330   4.031   5.888 -1.0852  0.4144 -0.2164
15569TIP3   OH268121   1.694   4.865  15.489 -0.5666 -0.4365  0.3131
15569TIP3    H168122   1.764   4.833  15.545 -0.6715  0.8438  1.2304
15569TIP3    H268123   1.734   4.933  15.436 -0.5016 -1.5516 -1.1302
15570TIP3   OH268124   2.732   2.266  11.514 -0.4583  0.4238 -0.5535
15570TIP3    H168125   2.814   2.242  11.471 -0.3378 -0.5723  0.1833
15570TIP3    H268126   2.730   2.362  11.510  0.0544  0.4008 -1.8109
15571TIP3   OH268127   3.395   3.779   0.268  0.0202 -0.2186 -0.2287
15571TIP3    H168128   3.373   3.739   0.353  0.0577  1.4361  0.5912
15571TIP3    H268129   3.311   3.791   0.225 -0.0380 -0.6328 -0.2409
15572TIP3   OH268130   4.666   5.947   1.536  0.0270 -0.5723 -0.5358
15572TIP3    H168131   4.607   6.007   1.581  0.4479 -0.8746  0.4393
15572TIP3    H268132   4.609   5.877   1.504 -0.2753 -0.3519 -0.4781
15573TIP3   OH268133   1.213   6.440   5.294 -0.9221  0.0935  0.5674
15573TIP3    H168134   1.232   6.434   5.200  0.4529  0.4443  0.7980
15573TIP3    H268135   1.128   6.396   5.304 -0.3025 -1.4835 -0.5990
15574TIP3   OH268136   4.772   3.507  11.419 -0.3916  0.0663  0.6197
15574TIP3    H168137   4.839   3.512  11.351  1.0137 -0.2358  1.9451
15574TIP3    H268138   4.712   3.439  11.389  0.5553 -0.4970 -0.0141
15575TIP3   OH268139   6.482   5.937   1.901  0.1048 -0.4415  0.2540
15575TIP3    H168140   6.405   5.896   1.863 -0.0218 -1.2055  1.3209
15575TIP3    H268141   6.488   6.022   1.856 -0.7680 -0.7852 -0.5453
15576TIP3   OH268142   5.503   4.356   5.542  0.2818  0.3612 -0.6643
15576TIP3    H168143   5.548   4.405   5.474  2.1278  0.2753  0.4238
15576TIP3    H268144   5.519   4.264   5.521  1.2176  0.3394  0.0783
15577TIP3   OH268145   6.188   4.338   6.334 -0.1581 -0.2358 -0.1214
15577TIP3    H168146   6.129   4.272   6.299 -0.1733  0.5019 -1.5575
15577TIP3    H268147   6.271   4.324   6.289  0.3574 -0.3639  0.8401
15578TIP3   OH268148   1.885   5.439  16.758 -0.6067 -0.1972  0.0355
15578TIP3    H168149   1.868   5.496  16.833 -0.1692 -0.6584  0.5037
15578TIP3    H268150   1.930   5.363  16.796 -0.5591 -0.5307 -0.6683
15579TIP3   OH268151   0.193   3.006   4.514  0.1243  0.5012 -0.2245
15579TIP3    H168152   0.288   3.021   4.515  0.3877 -0.8993 -0.7909
15579TIP3    H268153   0.182   2.933   4.453 -1.3050  0.4934  0.0151
15580TIP3   OH268154   4.784   3.554   1.853 -0.2730 -0.3409 -0.2944
15580TIP3    H168155   4.838   3.521   1.925 -0.7367 -0.3086  0.0711
15580TIP3    H268156   4.759   3.475   1.805 -0.4397 -0.4178 -0.0843
15581TIP3   OH268157   6.522   0.567  13.965  0.2673  0.0912  0.0535
15581TIP3    H168158   6.586   0.516  14.014  1.0969  0.3502 -0.7386
15581TIP3    H268159   6.446   0.509  13.957  0.8363 -0.6582 -0.0033
15582TIP3   OH268160   2.835   5.757   4.432 -0.1396 -0.1801 -0.8317
15582TIP3    H168161   2.808   5.849   4.434  1.7910  0.4191 -0.5471
15582TIP3    H268162   2.880   5.743   4.516 -0.3368 -1.3733 -0.9010
15583TIP3   OH268163   6.706   1.892  12.821 -0.1520  0.1214  1.0120
15583TIP3    H168164   6.737   1.905  12.911 -1.8370 -0.2498  1.6668
15583TIP3    H268165   6.642   1.821  12.826 -1.3465  1.0492 -0.2274
15584TIP3   OH268166   3.310   5.344   4.028  0.4899 -0.1084 -0.4799
15584TIP3    H168167   3.259   5.392   4.094  0.5521  0.8003 -1.0814
15584TIP3    H268168   3.310   5.401   3.951  1.1862 -0.7523 -0.9714
15585TIP3   OH268169   2.664   5.315   1.645 -0.2948 -0.0513  0.1089
15585TIP3    H168170   2.652   5.245   1.709  0.9231 -2.5887 -2.2562
15585TIP3    H268171   2.759   5.330   1.644 -0.3898  0.5541 -0.5517
15586TIP3   OH268172   0.297   4.285  12.967  0.4084  0.6210  0.0485
15586TIP3    H168173   0.364   4.292  12.899 -0.0150 -0.6231 -0.5098
15586TIP3    H268174   0.220   4.328  12.930 -0.2128 -1.1447 -0.8023
15587TIP3   OH268175   4.296   1.395  15.739 -0.0103  0.3129  0.3779
15587TIP3    H168176   4.291   1.299  15.740  0.2338  0.2583 -1.0413
15587TIP3    H268177   4.367   1.415  15.800  2.2076 -0.6514 -1.7242
15588TIP3   OH268178   0.323   1.462  16.643 -0.0772  0.6409 -0.0754
15588TIP3    H168179   0.321   1.494  16.733 -0.0102 -0.5337  0.3617
15588TIP3    H268180   0.319   1.366  16.651  0.3809  0.4949 -1.2963
15589TIP3   OH268181   5.795   0.456   1.662  0.2310 -0.4757 -0.4193
15589TIP3    H168182   5.729   0.388   1.650 -0.7525  0.6376 -1.6905
15589TIP3    H268183   5.871   0.410   1.697 -1.0872 -1.8639  0.7726
15590TIP3   OH268184   3.510   6.626  13.438 -0.0846  0.9508 -0.0128
15590TIP3    H168185   3.601   6.656  13.432 -0.2064  0.9830 -2.6458
15590TIP3    H268186   3.515   6.532  13.425 -0.3934  0.8728  0.4135
15591TIP3   OH268187   5.027   0.313  15.359  0.5173 -0.0060 -0.5113
15591TIP3    H168188   5.039   0.324  15.454  0.8206  2.1683 -0.7580
15591TIP3    H268189   5.097   0.365  15.320 -0.9720  1.0092 -1.9457
15592TIP3   OH268190   4.099   6.419   5.399 -0.5703  0.2191 -0.0376
15592TIP3    H168191   4.061   6.479   5.335  1.2719  2.3916  0.7701
15592TIP3    H268192   4.183   6.392   5.361 -0.2760  0.0999  0.6822
15593TIP3   OH268193   2.805   6.076  17.313 -0.5006 -0.0686 -0.3301
15593TIP3    H168194   2.725   6.029  17.290 -0.0625 -0.9283 -0.1134
15593TIP3    H268195   2.801   6.085  17.408  1.0106 -2.6657  0.0557
15594TIP3   OH268196   5.219   2.430  15.595  0.2424 -0.4349 -0.3026
15594TIP3    H168197   5.177   2.457  15.513  0.1224  1.1339  0.2415
15594TIP3    H268198   5.227   2.335  15.587  0.3242 -0.3180 -2.1664
15595TIP3   OH268199   2.607   6.221   0.469  0.5132 -0.3558  0.2731
15595TIP3    H168200   2.551   6.299   0.475  0.3655 -0.4232 -0.1539
15595TIP3    H268201   2.670   6.231   0.540 -1.3051 -1.3001  2.1340
15596TIP3   OH268202   6.485   6.315  12.400 -0.4971  0.1660  0.5557
15596TIP3    H168203   6.430   6.286  12.327 -0.8695 -0.9709  1.2606
15596TIP3    H268204   6.442   6.394  12.433  1.1032  2.3294 -2.0687
15597TIP3   OH268205   2.041   0.631  13.856  0.0500 -0.7845  0.4492
15597TIP3    H168206   2.022   0.668  13.770  0.9890  0.5917  0.7968
15597TIP3    H268207   2.136   0.643  13.867 -0.1634 -0.2093  1.9744
15598TIP3   OH268208   2.312   0.435  13.714  0.0743  0.0370 -0.0478
15598TIP3    H168209   2.292   0.484  13.794  0.2345  0.4290 -0.2451
15598TIP3    H268210   2.240   0.455  13.654 -1.1444 -1.8553  0.6741
15599TIP3   OH268211   0.655   0.332  13.365 -0.8530  0.1568 -0.4418
15599TIP3    H168212   0.710   0.401  13.328 -1.1571  0.7642  0.2146
15599TIP3    H268213   0.716   0.264  13.393 -0.3148  1.3305  1.3597
15600TIP3   OH268214   4.830   5.460  14.224 -0.5442  0.2419 -0.1678
15600TIP3    H168215   4.761   5.468  14.290  1.7687 -1.5229  2.7366
15600TIP3    H268216   4.885   5.537  14.238  1.4907 -1.4648  2.1388
15601TIP3   OH268217   2.058   1.289   5.076 -0.1877 -0.3135 -0.1644
15601TIP3    H168218   1.994   1.221   5.095 -0.6989 -0.0797 -0.9898
15601TIP3    H268219   2.054   1.347   5.152 -1.1013 -0.1955 -0.2871
15602TIP3   OH268220   1.712   4.271   2.605 -0.0860  0.1310  0.1084
15602TIP3    H168221   1.757   4.191   2.634 -0.6042 -0.6420 -1.1183
15602TIP3    H268222   1.639   4.239   2.552  0.1336  1.4433 -1.0393
15603TIP3   OH268223   4.963   4.664   1.585 -0.6298 -0.4820 -0.4885
15603TIP3    H168224   4.876   4.635   1.614 -0.2098 -0.2266  1.1281
15603TIP3    H268225   4.951   4.757   1.565 -0.6458 -0.3403  0.1519
15604TIP3   OH268226   2.397   6.151   2.647 -0.1919 -0.4631 -0.1820
15604TIP3    H168227   2.319   6.142   2.593 -0.0897 -1.1772 -0.2171
15604TIP3    H268228   2.445   6.070   2.633  0.3277 -0.2243  0.2041
15605TIP3   OH268229   3.164   0.940   1.412  0.6170 -0.1761  0.4368
15605TIP3    H168230   3.243   0.896   1.444  0.7313  0.5928  1.2465
15605TIP3    H268231   3.116   0.871   1.365  1.4095 -0.8345  0.5663
15606TIP3   OH268232   6.490   2.500  12.769 -0.0039 -0.5283 -0.2297
15606TIP3    H168233   6.499   2.532  12.679 -1.9703  2.1358  0.4117
15606TIP3    H268234   6.436   2.421  12.761 -0.1737 -0.3152 -1.3826
15607TIP3   OH268235   3.102   4.578   4.040 -0.3680 -0.0376  0.6710
15607TIP3    H168236   3.158   4.571   3.963 -2.0180 -1.1386 -0.5060
15607TIP3    H268237   3.160   4.607   4.110  1.4692 -0.3253 -0.6716
15608TIP3   OH268238   1.222   1.839   3.055  0.7228 -0.3426 -0.0772
15608TIP3    H168239   1.193   1.790   2.978 -2.2230 -0.3188  0.9010
15608TIP3    H268240   1.293   1.894   3.023 -0.4465 -0.2810 -2.8153
15609TIP3   OH268241   3.318   1.643  11.405 -0.3108  0.6075  0.3127
15609TIP3    H168242   3.312   1.653  11.310 -0.0150 -0.9882  0.1022
15609TIP3    H268243   3.321   1.548  11.420 -0.7305  0.8079  1.9451
15610TIP3   OH268244   0.845   0.551   6.335  0.6419 -0.2313  0.4970
15610TIP3    H168245   0.834   0.646   6.321 -0.1822 -0.2310  1.0621
15610TIP3    H268246   0.904   0.524   6.265 -1.9140  0.0762 -1.9935
15611TIP3   OH268247   1.676   0.095  15.698  0.3308  0.1359  0.7534
15611TIP3    H168248   1.592   0.055  15.723 -1.0742  1.6528 -1.1800
15611TIP3    H268249   1.674   0.096  15.602  3.2979 -1.1626  0.5703
15612TIP3   OH268250   1.408   0.948   5.890 -0.1454  0.1188  0.2222
15612TIP3    H168251   1.414   0.904   5.975  1.1392  0.1000  0.1443
15612TIP3    H268252   1.329   0.913   5.850 -0.6716 -0.0075  1.3408
15613TIP3   OH268253   4.177   3.451   2.958  0.5771 -0.0083  0.4791
15613TIP3    H168254   4.235   3.523   2.932  0.4307 -0.3238 -0.7804
15613TIP3    H268255   4.171   3.459   3.054  1.4054  1.0023  0.4704
15614TIP3   OH268256   1.084   5.005  14.005  0.4332  0.1378 -0.1689
15614TIP3    H168257   1.018   4.990  13.938  0.6025  0.6454 -0.4548
15614TIP3    H268258   1.110   5.096  13.993  1.6966 -0.2466 -0.5368
15615TIP3   OH268259   5.830   6.225   4.829 -0.0774 -0.1492 -0.3114
15615TIP3    H168260   5.916   6.227   4.787  0.4168  0.4713  0.6941
15615TIP3    H268261   5.797   6.314   4.818  0.1846  0.1007  0.8426
15616TIP3   OH268262   6.012   3.348  11.283 -0.4012  0.3457 -0.3639
15616TIP3    H168263   6.036   3.258  11.259  1.7793  1.0832 -1.1706
15616TIP3    H268264   6.090   3.382  11.327 -1.4858  1.6143  0.6396
15617TIP3   OH268265   2.335   2.787  15.574 -0.2657  0.1495 -0.0667
15617TIP3    H168266   2.349   2.747  15.489  1.3190  0.0951  0.1832
15617TIP3    H268267   2.242   2.806  15.577 -0.6106 -1.2154 -1.1954
15618TIP3   OH268268   3.436   6.207  14.099  0.0778  0.2955  0.2602
15618TIP3    H168269   3.356   6.217  14.151  0.8744  2.1195  1.2001
15618TIP3    H268270   3.428   6.120  14.061 -2.4987  0.5062  0.0947
15619TIP3   OH268271   0.590   0.890   0.802 -0.5653 -0.1672  0.2859
15619TIP3    H168272   0.498   0.891   0.775 -0.3197 -1.8819 -0.7210
15619TIP3    H268273   0.588   0.863   0.894 -1.1325  1.4641  0.7979
15620TIP3   OH268274   2.063   4.541  11.653  0.6198 -0.2066  0.2956
15620TIP3    H168275   2.005   4.465  11.664  0.8044 -0.3176  0.5111
15620TIP3    H268276   2.033   4.603  11.720 -0.4615  0.4978 -0.7979
15621TIP3   OH268277   6.381   6.608   1.681  0.4932 -0.2125 -0.3210
15621TIP3    H168278   6.301   6.630   1.728  0.5810 -2.5400  1.0275
15621TIP3    H268279   6.357   6.535   1.624  1.1514  0.5658 -1.6717
15622TIP3   OH268280   3.142   0.286  11.741  0.0900 -0.0874  0.4863
15622TIP3    H168281   3.064   0.276  11.687 -0.5879 -1.0136  1.6014
15622TIP3    H268282   3.110   0.326  11.822  1.0719  1.1671  0.2944
15623TIP3   OH268283   0.862   0.370  13.677  0.3716  0.3066 -0.1673
15623TIP3    H168284   0.803   0.326  13.615  1.0461  0.6107 -1.0554
15623TIP3    H268285   0.947   0.370  13.632  0.9617  0.2107  0.9261
15624TIP3   OH268286   6.232   2.837  12.111  0.0744  0.6685 -0.2440
15624TIP3    H168287   6.297   2.800  12.051 -0.5708  1.5997 -1.5737
15624TIP3    H268288   6.262   2.927  12.126 -1.3791  1.4723 -1.7211
15625TIP3   OH268289   2.643   6.751  14.778  0.8876  0.5080 -0.5845
15625TIP3    H168290   2.657   6.739  14.684  3.0772 -2.2660 -0.0293
15625TIP3    H268291   2.609   6.666  14.808  0.3175  1.3091  1.1695
15626TIP3   OH268292   0.733   6.334   0.974  0.1483 -0.0989 -0.0747
15626TIP3    H168293   0.795   6.293   0.913  0.4051  0.5418 -0.2483
15626TIP3    H268294   0.784   6.350   1.053 -0.7400 -3.0609  1.2315
15627TIP3   OH268295   0.680   1.498   5.719  0.5022 -0.8929 -0.2587
15627TIP3    H168296   0.637   1.491   5.804 -1.3834  0.8491 -0.9687
15627TIP3    H268297   0.740   1.572   5.728  0.8462 -1.1760 -0.2285
15628TIP3   OH268298   0.456   6.365   5.633  0.0335  0.3659 -0.5634
15628TIP3    H168299   0.489   6.441   5.682  1.2553  0.4809 -1.5065
15628TIP3    H268300   0.486   6.380   5.544 -0.4464 -0.8256 -0.9417
15629TIP3   OH268301   5.382   0.958   3.914 -0.6824  0.3155  0.2062
15629TIP3    H168302   5.321   0.971   3.987  1.0418 -1.4226  2.0977
15629TIP3    H268303   5.420   0.872   3.930  2.0136  1.1723 -1.0234
15630TIP3   OH268304   3.005   5.215   4.385 -0.0191  0.2075  0.5007
15630TIP3    H168305   3.035   5.130   4.417 -2.8602 -1.7726 -1.6118
15630TIP3    H268306   2.916   5.224   4.419 -0.1023  1.9526 -0.0460
15631TIP3   OH268307   0.633   3.587   2.826 -0.2331  0.2180 -0.0442
15631TIP3    H168308   0.583   3.508   2.846 -1.1479  0.8667  0.3064
15631TIP3    H268309   0.681   3.606   2.906 -1.5883  1.1331  0.5988
15632TIP3   OH268310   3.886   4.380   2.420  0.5206 -0.2839  0.1366
15632TIP3    H168311   3.797   4.355   2.446 -0.1698  1.7012 -0.1432
15632TIP3    H268312   3.902   4.463   2.465  1.6724  0.1186 -0.9543
15633TIP3   OH268313   6.013   1.308  10.316  0.1003  0.1743 -0.5152
15633TIP3    H168314   6.063   1.267  10.245  1.5944  1.6889 -0.3979
15633TIP3    H268315   6.057   1.280  10.396 -0.1232  0.3623 -0.3247
15634TIP3   OH268316   1.907   5.219  13.046 -0.0697  0.5402  0.2509
15634TIP3    H168317   1.946   5.206  12.960 -1.6613 -1.8191 -0.2077
15634TIP3    H268318   1.827   5.269  13.029  0.2417  1.1460  0.5411
15635TIP3   OH268319   1.408   0.716  15.827  0.1804  0.1800 -0.3738
15635TIP3    H168320   1.330   0.665  15.803  1.8410 -2.0510 -1.3692
15635TIP3    H268321   1.465   0.653  15.873  2.1079  1.2475 -1.1946
15636TIP3   OH268322   1.707   1.583  13.183 -0.6757 -0.2732 -0.5832
15636TIP3    H168323   1.730   1.490  13.191  0.6813 -0.0887 -1.9266
15636TIP3    H268324   1.749   1.624  13.258  0.8771 -0.4036 -1.3496
15637TIP3   OH268325   2.585   0.494   3.119  0.3413 -0.5106  0.2672
15637TIP3    H168326   2.632   0.504   3.202  2.0017 -0.0313 -0.6784
15637TIP3    H268327   2.640   0.433   3.068  0.1548  0.3626 -1.0192
15638TIP3   OH268328   3.536   1.347   3.590 -0.2714 -0.7054  0.0912
15638TIP3    H168329   3.600   1.320   3.524  0.7198  2.1812 -0.2727
15638TIP3    H268330   3.455   1.360   3.542  0.0505 -0.0766 -0.2890
15639TIP3   OH268331   5.610   3.947  12.662 -0.1426 -0.4511  0.3170
15639TIP3    H168332   5.552   3.912  12.729 -0.2247 -1.0102 -0.0454
15639TIP3    H268333   5.644   3.870  12.616 -0.1560 -0.0699 -0.3418
15640TIP3   OH268334   0.008   5.759   3.465  0.2208 -0.7953 -0.2761
15640TIP3    H168335  -0.007   5.728   3.376 -2.6775  1.3941 -0.7340
15640TIP3    H268336   0.056   5.842   3.453 -1.9450  0.5719 -0.0962
15641TIP3   OH268337   5.324   2.597  12.031 -0.5227  0.0499 -0.1940
15641TIP3    H168338   5.367   2.659  11.972 -0.0840  0.1993  0.2733
15641TIP3    H268339   5.233   2.626  12.034 -0.5095  0.1540 -0.6437
15642TIP3   OH268340   3.659   1.727   4.097  0.7887 -0.4953 -0.4536
15642TIP3    H168341   3.679   1.767   4.012  0.7508 -1.5510 -0.9786
15642TIP3    H268342   3.586   1.779   4.131  2.8931  2.0676  0.5071
15643TIP3   OH268343   2.925   4.278   0.490  0.1419  0.4667  0.5162
15643TIP3    H168344   2.909   4.278   0.584 -2.9773  0.0290  0.1114
15643TIP3    H268345   2.865   4.345   0.456  0.3643 -0.1746 -1.2531
15644TIP3   OH268346   4.333   2.739  15.965  0.4770 -0.0487  0.1554
15644TIP3    H168347   4.327   2.675  15.894  1.0926 -0.9020  0.8488
15644TIP3    H268348   4.427   2.746  15.983  0.3953  0.8648  0.2577
15645TIP3   OH268349   5.216   1.719  15.094  0.2935  0.3941  0.2685
15645TIP3    H168350   5.188   1.753  15.009 -2.7948  0.0224  0.9990
15645TIP3    H268351   5.216   1.795  15.152  0.9665  0.3989  0.2735
15646TIP3   OH268352   3.711   3.181  12.502 -0.5232  0.6642 -0.5933
15646TIP3    H168353   3.803   3.167  12.482  0.0237 -0.8218  2.3155
15646TIP3    H268354   3.664   3.136  12.432  1.0705 -1.1686 -0.5669
15647TIP3   OH268355   0.495   4.304  14.487 -0.1778 -0.3194  0.2491
15647TIP3    H168356   0.462   4.284  14.575  3.0669  2.9899  2.5483
15647TIP3    H268357   0.571   4.247  14.477  1.5015  1.6046  1.2624
15648TIP3   OH268358   2.088   5.711   5.137 -0.0815  0.3314  0.3461
15648TIP3    H168359   2.098   5.747   5.225  1.3803  0.2367  0.2569
15648TIP3    H268360   1.994   5.705   5.124 -0.3763  2.5049  1.0182
15649TIP3   OH268361   0.348   5.232   2.546  0.2824  1.0778  0.0375
15649TIP3    H168362   0.322   5.261   2.458 -1.0696  0.0720  0.0647
15649TIP3    H268363   0.434   5.193   2.534  0.3052  1.3547 -0.7627
15650TIP3   OH268364   2.039   5.834  13.519 -0.3360 -0.0693 -0.1894
15650TIP3    H168365   2.051   5.885  13.599 -1.4310  1.5903 -1.0323
15650TIP3    H268366   2.121   5.845  13.471  0.1798 -0.7627  0.5010
15651TIP3   OH268367   0.185   5.276   3.726  0.4084 -0.6058 -0.4045
15651TIP3    H168368   0.184   5.201   3.667  0.8876  0.5695 -1.9522
15651TIP3    H268369   0.252   5.254   3.791  1.1722 -1.1196 -1.3569
15652TIP3   OH268370   5.153   5.293   3.964  0.1736 -0.0293  0.0089
15652TIP3    H168371   5.149   5.199   3.981 -0.0022 -0.1538 -0.6674
15652TIP3    H268372   5.117   5.303   3.875 -2.7998  1.0365  1.2022
15653TIP3   OH268373   5.750   3.791   4.546 -0.1087  0.2927 -0.3330
15653TIP3    H168374   5.804   3.867   4.569 -0.5919  0.1959  1.2212
15653TIP3    H268375   5.763   3.730   4.619 -2.6651  0.4698  0.3572
15654TIP3   OH268376   4.435   1.303   1.821  0.0577 -0.4932 -0.2494
15654TIP3    H168377   4.418   1.397   1.817  1.7626 -0.1710 -1.9918
15654TIP3    H268378   4.377   1.265   1.755  1.0445 -0.2866 -1.2871
15655TIP3   OH268379   0.324   4.258   2.351  0.0309  0.1700  0.0550
15655TIP3    H168380   0.336   4.244   2.445 -0.1877 -3.1666 -0.3012
15655TIP3    H268381   0.245   4.209   2.330  1.3690 -1.1637 -2.2150
15656TIP3   OH268382   0.230   2.504  13.931 -0.2027 -0.2221  0.6075
15656TIP3    H168383   0.210   2.411  13.918 -1.7935  0.0226  1.0395
15656TIP3    H268384   0.325   2.507  13.943 -0.0931 -1.7545  0.3406
15657TIP3   OH268385   3.319   3.913  13.372 -0.5294  0.2942 -0.3430
15657TIP3    H168386   3.294   3.905  13.280  1.4827  1.4637 -1.0638
15657TIP3    H268387   3.324   4.008  13.387 -1.8849  0.1559  1.3326
15658TIP3   OH268388   2.376   3.102  14.510  0.2910 -0.5244  0.2762
15658TIP3    H168389   2.300   3.050  14.482  0.6252 -1.6930  1.4424
15658TIP3    H268390   2.351   3.137  14.595  0.9815 -0.7232  0.5609
15659TIP3   OH268391   2.780   1.097   6.565  0.5236  0.1805 -0.1168
15659TIP3    H168392   2.690   1.072   6.547  0.2774  2.2580 -2.3426
15659TIP3    H268393   2.809   1.037   6.634 -1.4353 -2.8274 -1.6830
15660TIP3   OH268394   0.823   5.230   0.750  0.2931  0.2947  0.7164
15660TIP3    H168395   0.887   5.161   0.764 -0.5511 -0.4517  0.9906
15660TIP3    H268396   0.873   5.303   0.714  0.9019 -1.1356 -1.5210
15661TIP3   OH268397   5.524   1.150  13.785  0.1212 -0.0615  0.1867
15661TIP3    H168398   5.478   1.181  13.863  0.4506  0.9824 -0.0133
15661TIP3    H268399   5.569   1.071  13.814  1.5732  1.1820  1.5636
15662TIP3   OH268400   3.237   2.592   5.777 -0.1611 -0.4025 -1.0293
15662TIP3    H168401   3.150   2.550   5.774  0.4468 -1.9503  0.7907
15662TIP3    H268402   3.234   2.646   5.855  0.0124  0.8273 -1.8536
15663TIP3   OH268403   0.218   0.338  16.495 -0.1894 -0.2713 -0.1813
15663TIP3    H168404   0.263   0.337  16.411  0.6514 -2.1890  0.2541
15663TIP3    H268405   0.143   0.279  16.483  0.8401 -1.8536  0.8487
15664TIP3   OH268406   0.461   0.109  17.121 -0.0630  0.3140 -0.6010
15664TIP3    H168407   0.483   0.172  17.190 -2.3541  1.8461 -1.1785
15664TIP3    H268408   0.492   0.150  17.040  0.3577 -0.3239 -0.7708
15665TIP3   OH268409   3.641   2.928   1.019  0.2225  0.0345 -0.0496
15665TIP3    H168410   3.604   3.007   0.979  1.0174  0.6412  0.3673
15665TIP3    H268411   3.594   2.856   0.979  1.1856  0.5783 -2.3374
15666TIP3   OH268412   6.331   2.629   2.069 -0.4513  0.3249 -0.6024
15666TIP3    H168413   6.241   2.610   2.095  0.0074 -1.0257  0.1065
15666TIP3    H268414   6.383   2.562   2.112  0.9126  1.1065 -0.9649
15667TIP3   OH268415   5.986   5.969   5.799  0.7647  0.3936  0.2209
15667TIP3    H168416   6.061   6.028   5.807  0.4933  0.8718 -0.6458
15667TIP3    H268417   5.910   6.024   5.817  0.6196 -0.1788  1.5066
15668TIP3   OH268418   6.034   2.342   1.223  0.0181  0.3484 -0.0514
15668TIP3    H168419   6.038   2.247   1.230  1.0968  0.3754 -0.1460
15668TIP3    H268420   5.995   2.370   1.306 -1.0530 -0.2074 -0.3463
15669TIP3   OH268421   0.236   4.460  10.799 -0.1093  0.5427  0.5695
15669TIP3    H168422   0.281   4.528  10.750 -0.3678  0.0869 -0.3441
15669TIP3    H268423   0.144   4.470  10.775 -0.1479 -0.1326  0.3940
15670TIP3   OH268424   4.816   2.378  13.258  0.2500  0.4839 -0.7611
15670TIP3    H168425   4.889   2.384  13.320  0.9047 -0.8679 -1.3769
15670TIP3    H268426   4.834   2.447  13.193 -0.0114  1.3579  0.0607
15671TIP3   OH268427   0.045   4.669  13.203  0.2168  0.0900  0.4092
15671TIP3    H168428   0.092   4.741  13.160  1.3303 -1.7840 -1.6832
15671TIP3    H268429   0.102   4.643  13.275  0.2034  0.7094  0.6557
15672TIP3   OH268430   2.970   1.328   0.743  0.2579  0.0693  0.0587
15672TIP3    H168431   2.956   1.316   0.837 -0.3706  0.1273 -0.0272
15672TIP3    H268432   2.897   1.382   0.714 -0.5384 -1.3762 -0.7771
15673TIP3   OH268433   5.012   1.965   0.594  0.4086  0.2101  0.2888
15673TIP3    H168434   4.970   1.898   0.540 -0.6563  0.3334  0.9171
15673TIP3    H268435   5.099   1.976   0.557 -0.1835  0.0863 -1.2130
15674TIP3   OH268436   0.362   0.648  16.762 -0.0515 -0.4673 -0.1832
15674TIP3    H168437   0.300   0.641  16.690  1.1562  0.0042 -1.3157
15674TIP3    H268438   0.414   0.725  16.741 -2.0016  2.0332  3.0973
15675TIP3   OH268439   1.086   0.560   4.889  0.4347 -0.1151 -0.4752
15675TIP3    H168440   1.085   0.465   4.873  0.2760  0.0023 -1.1978
15675TIP3    H268441   1.060   0.569   4.980 -2.2655 -0.6242 -1.1129
15676TIP3   OH268442   1.246   5.510   4.044  0.2560  0.1337 -0.1969
15676TIP3    H168443   1.259   5.556   4.126  0.2953 -0.7682  0.3109
15676TIP3    H268444   1.285   5.567   3.978  0.9368  0.4953  0.5097
15677TIP3   OH268445   4.694   0.082   4.657  0.7678 -0.5811 -0.0496
15677TIP3    H168446   4.701   0.147   4.728  2.1682 -1.1331  0.3413
15677TIP3    H268447   4.659   0.132   4.583  1.0506  0.4353  0.4775
15678TIP3   OH268448   1.799   6.318   6.281 -0.0664  0.2117  0.6896
15678TIP3    H168449   1.853   6.344   6.356  1.7245 -2.2336  0.3907
15678TIP3    H268450   1.718   6.286   6.320  0.9774 -1.3743  1.7162
15679TIP3   OH268451   5.237   2.990  11.924 -0.0919  0.0728  0.0734
15679TIP3    H168452   5.310   3.019  11.869 -0.7291 -0.8460 -1.3224
15679TIP3    H268453   5.243   2.894  11.923 -0.7846  0.0142  0.7025
15680TIP3   OH268454   1.849   0.196  17.113 -0.4298 -0.5030 -0.1948
15680TIP3    H168455   1.783   0.207  17.044 -1.9753  0.7671  1.3795
15680TIP3    H268456   1.837   0.107  17.145 -0.8650 -0.5431 -0.4629
15681TIP3   OH268457   6.493   2.434  11.909  0.0258 -0.8193  0.4971
15681TIP3    H168458   6.528   2.362  11.855  0.8010  0.1724 -0.3614
15681TIP3    H268459   6.407   2.403  11.937 -0.1701 -1.6009 -0.8738
15682TIP3   OH268460   2.517   5.549  12.631 -0.0021  0.1513  0.6135
15682TIP3    H168461   2.436   5.555  12.682  0.0206 -0.0591  0.6764
15682TIP3    H268462   2.557   5.635  12.640  0.7688 -0.3261  2.2515
15683TIP3   OH268463   3.398   3.643   4.524  0.2526  0.0749  0.2476
15683TIP3    H168464   3.484   3.638   4.565  1.3377  0.8067 -1.7995
15683TIP3    H268465   3.406   3.589   4.445 -1.5711 -0.8329  0.6295
15684TIP3   OH268466   1.308   3.486  13.042 -0.2565 -0.1849  0.2815
15684TIP3    H168467   1.306   3.443  13.128 -0.1585  0.0999  0.4290
15684TIP3    H268468   1.243   3.556  13.049 -1.4615 -1.2055 -0.4468
15685TIP3   OH268469   2.878   1.435  14.527  0.5706 -0.3798 -0.0579
15685TIP3    H168470   2.807   1.498  14.520 -1.5538 -2.6888 -0.7130
15685TIP3    H268471   2.902   1.437  14.620 -0.8754 -0.0481  0.3341
15686TIP3   OH268472   1.895   0.218   0.753 -0.1551 -0.2256  0.5579
15686TIP3    H168473   1.878   0.211   0.847 -0.4910 -0.9210  0.4454
15686TIP3    H268474   1.986   0.247   0.748 -0.3491  0.5357  1.1066
15687TIP3   OH268475   5.016   2.884  13.444 -0.4461 -0.7149  0.4513
15687TIP3    H168476   4.957   2.815  13.415 -1.8494  0.0607  1.3358
15687TIP3    H268477   5.052   2.920  13.363  0.6884 -2.7290 -0.0236
15688TIP3   OH268478   0.689   2.455   5.924  0.8426  0.5295  0.5873
15688TIP3    H168479   0.705   2.446   5.830  1.0670  1.2846  0.5490
15688TIP3    H268480   0.646   2.539   5.934 -1.2758 -0.5157  0.9322
15689TIP3   OH268481   3.459   6.687  16.405  0.1128 -0.4026 -0.6533
15689TIP3    H168482   3.534   6.690  16.463 -0.2562 -0.1322 -0.1860
15689TIP3    H268483   3.497   6.687  16.317  0.6683 -0.7568 -0.4186
15690TIP3   OH268484   3.294   2.488  14.869 -0.0504 -0.6366 -0.8199
15690TIP3    H168485   3.379   2.461  14.833  0.5707  0.3586 -0.1216
15690TIP3    H268486   3.313   2.519  14.957 -0.5185  3.0405 -1.8780
15691TIP3   OH268487   6.051   1.592  10.684 -0.1382  0.0805 -0.0478
15691TIP3    H168488   6.097   1.676  10.692 -3.0404  1.7562  0.5608
15691TIP3    H268489   5.961   1.612  10.707 -1.1665 -3.0648 -0.8449
15692TIP3   OH268490   5.263   1.089  14.153  0.3975  0.0348 -0.5159
15692TIP3    H168491   5.266   1.172  14.105  1.3066  0.6414  0.5398
15692TIP3    H268492   5.170   1.074  14.169  0.2170  0.8154 -0.7808
15693TIP3   OH268493   0.851   6.268   6.561 -0.0633 -0.2256 -0.7876
15693TIP3    H168494   0.935   6.314   6.566 -0.6814  1.1012 -1.7765
15693TIP3    H268495   0.789   6.327   6.605 -0.6809 -0.5996 -1.1349
15694TIP3   OH268496   3.226   0.849  13.337 -0.1267  0.2904 -0.2573
15694TIP3    H168497   3.232   0.929  13.285  1.0320 -0.0478 -0.6715
15694TIP3    H268498   3.294   0.858  13.404  2.0728 -1.5747 -2.0892
15695TIP3   OH268499   5.671   0.666   0.856 -0.1863 -0.3642  0.1265
15695TIP3    H168500   5.708   0.723   0.789 -0.0000  0.2725  0.7561
15695TIP3    H268501   5.577   0.683   0.854 -0.2936 -0.9700 -0.5351
15696TIP3   OH268502   3.415   4.533  12.123 -0.2677  0.1646  0.3753
15696TIP3    H168503   3.410   4.480  12.043 -0.4844  0.0627  0.4572
15696TIP3    H268504   3.487   4.594  12.106 -0.5036  0.3364 -0.0101
15697TIP3   OH268505   3.888   6.573   0.649  0.2840  0.6076  0.2475
15697TIP3    H168506   3.870   6.547   0.558  1.5332  1.1644 -0.1874
15697TIP3    H268507   3.816   6.536   0.699 -0.8476  0.9217 -1.0741
15698TIP3   OH268508   5.834   0.459  14.304  0.2091 -0.8925 -0.2809
15698TIP3    H168509   5.772   0.387  14.291  0.5497 -1.1917 -0.2466
15698TIP3    H268510   5.915   0.430  14.263  0.1760 -0.2748 -0.8011
15699TIP3   OH268511   2.845   3.887   0.185  0.0182 -0.1660 -0.1976
15699TIP3    H168512   2.930   3.928   0.170  0.2148 -0.3626  0.3420
15699TIP3    H268513   2.858   3.834   0.264 -0.1850 -1.3826 -0.9445
15700TIP3   OH268514   2.926   0.305  11.578  0.2734  0.2437  0.1153
15700TIP3    H168515   2.873   0.382  11.600  0.9208  1.0379 -1.0359
15700TIP3    H268516   2.863   0.238  11.556 -0.2831  1.1436 -1.1181
15701TIP3   OH268517   1.702   0.710   2.926  0.3620  0.2359  0.3997
15701TIP3    H168518   1.761   0.713   3.001  0.5392 -2.8019  0.5128
15701TIP3    H268519   1.632   0.651   2.953 -0.4174  0.3328 -1.2702
15702TIP3   OH268520   4.471   5.074  16.954  0.4018 -0.3800 -0.0408
15702TIP3    H168521   4.534   5.041  17.018 -0.5987 -1.6244  0.3408
15702TIP3    H268522   4.444   4.996  16.905 -1.2328  0.0146  0.1760
15703TIP3   OH268523   3.293   0.903   1.013  0.1168  0.2477  0.1560
15703TIP3    H168524   3.328   0.915   0.924 -0.1112  2.2064  0.2870
15703TIP3    H268525   3.310   0.986   1.057 -1.3438 -0.0687  1.4064
15704TIP3   OH268526   6.761   5.832  10.835  0.5192  0.1150 -0.5662
15704TIP3    H168527   6.755   5.782  10.916  0.5279 -0.2246 -0.7724
15704TIP3    H268528   6.769   5.923  10.863 -2.6239  0.3963 -0.1705
15705TIP3   OH268529   1.240   4.137  12.486  0.1362  0.0656  0.4217
15705TIP3    H168530   1.205   4.108  12.571  0.3482  0.8792  0.7930
15705TIP3    H268531   1.175   4.107  12.423  0.2270 -1.0071  0.8093
15706TIP3   OH268532   6.555   4.210  16.346  0.8451 -0.4827  0.4018
15706TIP3    H168533   6.561   4.173  16.258  0.2781 -3.5164  1.5304
15706TIP3    H268534   6.640   4.251  16.361  1.5491 -1.4009 -0.9437
15707TIP3   OH268535   2.108   2.267   0.366 -0.6926  0.3191 -0.1758
15707TIP3    H168536   2.187   2.217   0.384 -0.0476  0.5014 -2.2742
15707TIP3    H268537   2.040   2.200   0.352 -0.6996  0.1502  0.5779
15708TIP3   OH268538   6.035   3.936  13.440 -0.3108  0.0439  0.1832
15708TIP3    H168539   6.114   3.961  13.393  1.2489 -0.1520  2.5078
15708TIP3    H268540   5.967   3.994  13.406  1.3932  1.9368 -0.1736
15709TIP3   OH268541   4.711   6.593  11.497 -0.3260  0.8954 -0.4080
15709TIP3    H168542   4.662   6.637  11.428  0.8319  2.1364 -0.4761
15709TIP3    H268543   4.771   6.660  11.530  0.1362 -0.0959  0.8221
15710TIP3   OH268544   1.936   3.281   2.241  0.7408  0.2971  0.0426
15710TIP3    H168545   1.967   3.229   2.315  1.2376 -0.0842 -0.4213
15710TIP3    H268546   2.008   3.276   2.177  0.9306  1.8058  0.1065
15711TIP3   OH268547   1.911   4.574  13.103  0.2969  0.2068  0.1311
15711TIP3    H168548   1.868   4.508  13.157  1.2022  1.2027  2.1807
15711TIP3    H268549   1.966   4.623  13.164  0.6225  2.0568 -1.5399
15712TIP3   OH268550   1.294   2.600   4.856  0.7366 -0.2474  0.3440
15712TIP3    H168551   1.215   2.639   4.893  0.3434 -0.4747 -0.2398
15712TIP3    H268552   1.348   2.580   4.931  0.0395 -0.5159  0.7848
15713TIP3   OH268553   2.962   0.412   3.880 -0.3702 -0.0724  0.5600
15713TIP3    H168554   3.002   0.496   3.903 -1.6835  0.6946  0.1857
15713TIP3    H268555   2.890   0.402   3.943 -0.2358 -0.9175  0.5887
15714TIP3   OH268556   4.396   0.865  15.948 -0.4985 -0.5354 -0.5692
15714TIP3    H168557   4.459   0.833  15.882 -1.8419 -1.3253 -1.5116
15714TIP3    H268558   4.311   0.856  15.906 -1.2887  0.2329  0.8024
15715TIP3   OH268559   6.006   2.543   4.474  0.7601 -0.1419  0.0340
15715TIP3    H168560   5.991   2.466   4.528 -0.5127 -0.6209 -0.9614
15715TIP3    H268561   6.073   2.592   4.521  1.9885 -2.0877  0.4518
15716TIP3   OH268562   1.363   4.842   3.914 -0.0525 -0.3174 -0.1945
15716TIP3    H168563   1.277   4.883   3.901  0.6160  0.9228 -0.9185
15716TIP3    H268564   1.423   4.896   3.863  2.1291  2.1836  4.3742
15717TIP3   OH268565   2.593   1.535  11.537  0.1100 -0.7468  0.6085
15717TIP3    H168566   2.551   1.610  11.495  0.5019 -0.8357  0.0438
15717TIP3    H268567   2.664   1.511  11.477  1.7817  0.1715  2.1062
15718TIP3   OH268568   3.428   0.422   4.786  0.8360  0.1117 -0.2675
15718TIP3    H168569   3.448   0.423   4.879 -2.6094 -1.1337  0.6318
15718TIP3    H268570   3.391   0.508   4.767  1.3281  0.2840 -0.4978
15719TIP3   OH268571   6.274   4.376   1.112 -0.4748  0.1573  0.3468
15719TIP3    H168572   6.337   4.436   1.072 -0.9044  0.2955 -0.1323
15719TIP3    H268573   6.283   4.392   1.206  0.7402 -0.3687  0.3442
15720TIP3   OH268574   2.165   2.036   4.112 -0.2425 -0.9062 -0.7299
15720TIP3    H168575   2.096   1.977   4.083  0.8991 -2.4516 -0.4595
15720TIP3    H268576   2.121   2.120   4.126 -1.5216 -1.0328 -3.3645
15721TIP3   OH268577   6.338   3.982   2.973 -0.1085  0.0092 -0.2187
15721TIP3    H168578   6.381   4.015   2.894 -1.2328  0.6068 -0.5941
15721TIP3    H268579   6.409   3.943   3.024  1.5462  3.8125  0.7323
15722TIP3   OH268580   1.256   3.328  15.757 -0.3398  0.0358  0.9070
15722TIP3    H168581   1.171   3.363  15.732  0.0719 -0.2635 -1.0566
15722TIP3    H268582   1.252   3.235  15.733  0.3340 -0.1098  1.3379
15723TIP3   OH268583   2.712   0.494  11.834 -0.1551  0.5167 -0.2828
15723TIP3    H168584   2.737   0.401  11.829  0.0732  0.6460 -1.7519
15723TIP3    H268585   2.698   0.509  11.928  0.2822 -0.8730  0.0330
15724TIP3   OH268586   6.603   4.471  13.493 -0.7477  0.0650 -0.1758
15724TIP3    H168587   6.677   4.489  13.551 -0.1996  0.3896 -0.9549
15724TIP3    H268588   6.562   4.557  13.479  0.0021  0.2479 -1.4168
15725TIP3   OH268589   0.298   5.294   4.061  0.0528  0.0164 -0.9657
15725TIP3    H168590   0.316   5.258   4.148  2.5882  1.2037 -0.9238
15725TIP3    H268591   0.318   5.222   4.001 -0.3343 -0.3611 -0.6560
15726TIP3   OH268592   5.492   0.314   5.880  0.1491  0.4792  0.2045
15726TIP3    H168593   5.426   0.290   5.816 -0.0243  1.5061 -0.0082
15726TIP3    H268594   5.563   0.252   5.865 -0.2341  0.1867 -0.4240
15727TIP3   OH268595   1.851   4.846   1.795  0.4362 -0.1827  0.0126
15727TIP3    H168596   1.804   4.894   1.727  2.4360  0.7664 -0.7809
15727TIP3    H268597   1.901   4.779   1.747 -0.6616 -1.7023  0.9040
15728TIP3   OH268598   5.476   3.945  12.155 -0.0296  0.1145 -0.0244
15728TIP3    H168599   5.566   3.919  12.174  0.3185  0.2623 -1.3332
15728TIP3    H268600   5.482   4.039  12.135  0.1373 -0.4867 -3.3125
15729TIP3   OH268601   1.617   0.824  15.689 -0.3570 -0.2160  0.0976
15729TIP3    H168602   1.549   0.802  15.753  1.4013 -0.9189  1.8417
15729TIP3    H268603   1.649   0.740  15.658  1.6897 -0.0362  1.5615
15730TIP3   OH268604   6.323   5.441  13.050 -0.0159 -0.3115  0.0713
15730TIP3    H168605   6.330   5.414  13.142 -0.4241 -0.0693  0.1757
15730TIP3    H268606   6.338   5.361  13.001  1.0893 -0.2845  0.3201
15731TIP3   OH268607   1.126   0.629   5.244 -0.0400  0.4114 -0.1776
15731TIP3    H168608   1.167   0.562   5.299 -0.8245  0.6894  0.7801
15731TIP3    H268609   1.194   0.694   5.229  0.3508  0.0401 -0.0320
15732TIP3   OH268610   1.212   3.351   5.835  0.1809  0.6677 -0.6532
15732TIP3    H168611   1.192   3.359   5.741 -1.4738  1.9308 -0.2587
15732TIP3    H268612   1.167   3.271   5.862 -0.0247  0.7344 -0.7923
15733TIP3   OH268613   0.091   6.710   0.737  0.0925 -0.0956 -0.1324
15733TIP3    H168614   0.063   6.619   0.747  0.2569 -0.0090  1.3207
15733TIP3    H268615   0.042   6.758   0.803 -0.0991  0.9178 -0.9678
15734TIP3   OH268616   0.157   6.458   1.775  0.3990 -0.1100 -0.0259
15734TIP3    H168617   0.114   6.393   1.830  0.4112 -0.0261  0.0829
15734TIP3    H268618   0.192   6.407   1.701  2.0515 -0.5302  0.9943
15735TIP3   OH268619   3.551   1.447   4.561  0.5691 -0.4989 -0.2326
15735TIP3    H168620   3.568   1.450   4.655  1.0913 -1.2319 -0.2939
15735TIP3    H268621   3.620   1.502   4.523  0.2751 -0.0910 -0.1809
15736TIP3   OH268622   1.972   3.637   2.785  0.0639  0.1571 -0.1849
15736TIP3    H168623   2.035   3.695   2.828  0.0901  0.1762 -0.2484
15736TIP3    H268624   2.016   3.552   2.782 -0.9797 -0.5244  2.2436
15737TIP3   OH268625   3.307   2.174   6.216  0.0616  0.3224  0.1636
15737TIP3    H168626   3.256   2.228   6.276 -0.1115  0.5183 -0.1596
15737TIP3    H268627   3.289   2.084   6.243 -2.4992  0.2355 -1.5517
15738TIP3   OH268628   0.094   2.524   5.638 -1.0152 -0.3490  0.1531
15738TIP3    H168629   0.071   2.449   5.692 -0.3568 -0.4542  0.2886
15738TIP3    H268630   0.160   2.571   5.688 -0.4714 -0.3899 -0.5060
15739TIP3   OH268631   0.827   5.529  16.770  0.0927 -0.4153 -0.9597
15739TIP3    H168632   0.902   5.589  16.768  0.0232 -0.2574  0.1533
15739TIP3    H268633   0.751   5.586  16.775  0.0374 -0.5653  0.3648
15740TIP3   OH268634   2.592   4.977   5.916  0.3432  0.1091 -0.8139
15740TIP3    H168635   2.611   5.012   5.829  0.4220  1.0479 -0.4333
15740TIP3    H268636   2.519   4.918   5.903  0.1249  0.5147 -1.4725
15741TIP3   OH268637   0.680   5.222   2.529  0.2298  0.0408 -0.0047
15741TIP3    H168638   0.758   5.181   2.566  0.4200 -0.9700 -1.4239
15741TIP3    H268639   0.709   5.310   2.503  0.2170  0.5800  1.7044
15742TIP3   OH268640   4.183   2.163   3.255  0.2909  0.1598 -0.4773
15742TIP3    H168641   4.198   2.233   3.190 -0.4206 -1.5859 -2.6458
15742TIP3    H268642   4.224   2.196   3.335  0.1124  2.9816 -1.4337
15743TIP3   OH268643   0.665   0.755  16.306 -0.5638  0.5303  0.4077
15743TIP3    H168644   0.710   0.827  16.351 -1.5658  0.4039  1.7003
15743TIP3    H268645   0.652   0.689  16.374  0.6396 -1.0604 -0.8347
15744TIP3   OH268646   4.145   3.333  12.068 -0.5496  0.5655 -0.1513
15744TIP3    H168647   4.103   3.258  12.111 -1.7482  0.7074 -1.0182
15744TIP3    H268648   4.126   3.407  12.125  0.0568  0.3283  0.3640
15745TIP3   OH268649   2.169   2.376  13.717  0.0933 -0.4911 -0.0040
15745TIP3    H168650   2.166   2.468  13.743  0.9878 -0.5169  0.2317
15745TIP3    H268651   2.194   2.329  13.796 -2.3149 -1.2137  0.4204
15746TIP3   OH268652   0.280   5.110  15.464 -0.4347  0.2139  0.4201
15746TIP3    H168653   0.212   5.132  15.528 -1.6072 -0.2873 -0.6118
15746TIP3    H268654   0.286   5.187  15.408 -0.0448  0.3040  0.5790
15747TIP3   OH268655   6.578   1.925  15.078  0.2573  0.3533 -0.4952
15747TIP3    H168656   6.483   1.915  15.070  0.4249 -2.3078  0.0872
15747TIP3    H268657   6.602   1.869  15.152  2.6699 -1.8892 -2.7757
15748TIP3   OH268658   0.586   2.740   5.721 -0.1868 -0.3118 -0.1578
15748TIP3    H168659   0.674   2.773   5.702 -0.6282  1.1346  0.1423
15748TIP3    H268660   0.584   2.728   5.816 -0.2907 -0.3954 -0.1702
15749TIP3   OH268661   0.913   2.201  11.914  0.1519 -0.0676 -0.3730
15749TIP3    H168662   0.930   2.294  11.896 -1.1520 -0.0936 -2.0351
15749TIP3    H268663   0.946   2.155  11.837  0.8344 -1.0165  0.4600
15750TIP3   OH268664   4.249   1.287  14.733 -0.4025  1.2105 -0.1003
15750TIP3    H168665   4.228   1.302  14.641 -1.2396  0.0127 -0.1199
15750TIP3    H268666   4.179   1.230  14.765 -0.0545  1.4981  1.2505
15751TIP3   OH268667   6.723   5.466  15.475  0.8308  0.3138  0.2350
15751TIP3    H168668   6.739   5.383  15.429 -0.3008 -0.6401  1.4780
15751TIP3    H268669   6.807   5.485  15.518  0.9637 -0.4931  0.3618
15752TIP3   OH268670   3.677   2.381   5.839  0.0322 -1.2951 -0.2747
15752TIP3    H168671   3.715   2.294   5.853 -0.8892 -1.4814  1.4066
15752TIP3    H268672   3.584   2.363   5.824 -0.2720 -0.5957  0.6538
15753TIP3   OH268673   3.237   4.453   2.800 -0.0258 -0.5458 -0.1885
15753TIP3    H168674   3.187   4.460   2.718 -0.5399 -3.2026 -0.1759
15753TIP3    H268675   3.195   4.381   2.847  2.5166 -1.4959  0.7701
15754TIP3   OH268676   3.920   6.121   0.503  0.4637  0.5628 -0.0909
15754TIP3    H168677   4.007   6.158   0.515  0.2619  0.8008  0.7112
15754TIP3    H268678   3.865   6.168   0.567 -0.1140 -0.0432 -0.1342
15755TIP3   OH268679   1.784   4.376  13.287 -0.2111  0.3476 -0.7147
15755TIP3    H168680   1.771   4.287  13.257 -0.6553  0.3965 -0.6639
15755TIP3    H268681   1.702   4.400  13.329  0.4542  0.2272  0.6915
15756TIP3   OH268682   0.165   2.453  16.649  0.3885 -0.1963 -0.1244
15756TIP3    H168683   0.151   2.544  16.675 -0.8148  0.0360 -1.4104
15756TIP3    H268684   0.140   2.402  16.726 -0.6507  0.5245  0.0479
15757TIP3   OH268685   0.554   5.455   2.686  0.1511  0.1566 -0.1151
15757TIP3    H168686   0.624   5.462   2.622 -1.3106  1.0167 -1.6933
15757TIP3    H268687   0.538   5.361   2.694 -0.0168  0.0532 -1.4580
15758TIP3   OH268688   0.619   4.335   4.660 -0.0608  0.0767  0.9369
15758TIP3    H168689   0.687   4.325   4.593 -0.2878  1.7338  0.4130
15758TIP3    H268690   0.628   4.257   4.716  1.0680 -0.6232 -0.1743
15759TIP3   OH268691   4.923   3.995   5.168  0.0477  0.1037 -0.2380
15759TIP3    H168692   4.873   4.016   5.247  1.7970 -1.6048  1.4170
15759TIP3    H268693   4.888   3.910   5.140  0.0529  0.2829 -0.7970
15760TIP3   OH268694   2.116   1.482  12.347  0.1309  0.2995  0.1567
15760TIP3    H168695   2.134   1.516  12.260  1.2271 -1.1968 -0.2476
15760TIP3    H268696   2.202   1.466  12.385 -0.3046 -1.1874  0.6090
15761TIP3   OH268697   5.020   1.294   0.364 -0.3072 -0.0153  0.2405
15761TIP3    H168698   4.988   1.325   0.448  1.1663  1.7825  0.2171
15761TIP3    H268699   5.087   1.359   0.339 -0.5093 -0.6486 -2.1683
15762TIP3   OH268700   3.845   5.481  11.034  0.1890 -0.3616  0.6117
15762TIP3    H168701   3.921   5.490  10.975 -1.7123  0.2701 -1.9038
15762TIP3    H268702   3.836   5.387  11.047  1.4211 -0.4426  0.9936
15763TIP3   OH268703   2.717   1.789  11.691 -0.0517 -0.5485 -0.0444
15763TIP3    H168704   2.711   1.793  11.596 -1.7371  1.3045  0.0837
15763TIP3    H268705   2.714   1.880  11.720 -0.2460 -1.1002  1.8297
15764TIP3   OH268706   4.041   4.647  11.793  0.5583  0.2770 -0.2461
15764TIP3    H168707   4.023   4.553  11.801  0.2578  0.3881  0.5278
15764TIP3    H268708   3.983   4.687  11.858 -0.0347  1.0915 -1.2596
15765TIP3   OH268709   1.760   3.934  15.741  0.3352  0.2411  0.3044
15765TIP3    H168710   1.683   3.929  15.683  0.3556  2.0903  0.0737
15765TIP3    H268711   1.723   3.944  15.828  0.3201 -0.5767  0.4000
15766TIP3   OH268712   3.757   1.741  16.555 -0.4937  0.3343 -0.1115
15766TIP3    H168713   3.687   1.797  16.589 -0.5532  0.4606 -0.4335
15766TIP3    H268714   3.828   1.749  16.618  0.7409  3.2594 -1.6808
15767TIP3   OH268715   1.567   2.139   2.344 -0.1001 -0.1051  0.1250
15767TIP3    H168716   1.592   2.122   2.435  0.4912  0.0583 -0.0068
15767TIP3    H268717   1.630   2.089   2.292 -0.4859 -0.2611 -0.2006
15768TIP3   OH268718   4.406   5.229   1.521  0.1320  0.2135 -0.2526
15768TIP3    H168719   4.384   5.297   1.457  1.0144  0.3258 -0.4372
15768TIP3    H268720   4.466   5.171   1.476  1.3425  0.6891  0.6745
15769TIP3   OH268721   5.635   0.060   5.883 -0.1930 -0.4924 -0.0865
15769TIP3    H168722   5.600   0.058   5.972 -0.4613  0.0152 -0.1795
15769TIP3    H268723   5.728   0.043   5.893 -0.5457 -2.6420  0.1127
15770TIP3   OH268724   3.558   3.002   2.955 -0.6051  0.3050  0.6404
15770TIP3    H168725   3.507   2.945   2.897 -1.9211 -0.0599  2.0739
15770TIP3    H268726   3.512   2.998   3.038 -0.5172  3.1750  0.9285
15771TIP3   OH268727   1.380   6.371  12.885 -0.2969 -0.1046  0.4647
15771TIP3    H168728   1.312   6.309  12.859  0.3718 -0.5834 -0.1818
15771TIP3    H268729   1.414   6.337  12.968 -1.1407  0.3809  1.0189
15772TIP3   OH268730   5.127   0.218  10.827 -0.3742 -0.3452 -0.2672
15772TIP3    H168731   5.102   0.127  10.843 -1.5873 -0.2682 -1.4661
15772TIP3    H268732   5.045   0.267  10.835  0.0391  0.4590 -0.8292
15773TIP3   OH268733   2.668   3.969   3.309 -0.3998  0.0625 -0.7422
15773TIP3    H168734   2.583   3.946   3.271 -1.9158  1.5346  1.5070
15773TIP3    H268735   2.656   3.958   3.403  0.9657  3.0109 -0.1027
15774TIP3   OH268736   3.705   4.646   4.570  0.2959  0.0630  0.3368
15774TIP3    H168737   3.729   4.673   4.659 -0.4546  1.9988  0.0041
15774TIP3    H268738   3.754   4.704   4.513 -0.4063 -0.1110 -0.4644
15775TIP3   OH268739   2.272   6.190   4.921  0.2108  0.0275 -0.0246
15775TIP3    H168740   2.279   6.242   5.000 -2.4278 -1.4757  1.3428
15775TIP3    H268741   2.215   6.240   4.863 -0.3850 -0.2464  0.3178
15776TIP3   OH268742   5.171   2.054  13.930  0.1957 -0.0578  0.3375
15776TIP3    H168743   5.213   2.140  13.924  0.8836 -0.3921  0.2046
15776TIP3    H268744   5.222   2.007  13.997  0.1734 -0.5466  0.0191
15777TIP3   OH268745   0.659   3.253  13.932  0.1658 -0.2623 -0.3661
15777TIP3    H168746   0.625   3.252  13.843 -2.1126  1.1767  0.3939
15777TIP3    H268747   0.682   3.344  13.948 -2.1150  0.0809  1.3781
15778TIP3   OH268748   3.626   0.712  12.904  0.2522  0.1229  0.0464
15778TIP3    H168749   3.580   0.795  12.893  0.2665  0.2018  0.5634
15778TIP3    H268750   3.563   0.655  12.949  0.4539  0.0475  0.2366
15779TIP3   OH268751   3.617   4.890   5.293 -0.5679 -0.3144  0.3698
15779TIP3    H168752   3.541   4.945   5.275 -0.4350  0.0375  0.8589
15779TIP3    H268753   3.670   4.941   5.354  0.0389 -0.5756  0.0759
15780TIP3   OH268754   3.471   1.480  12.563 -0.3533 -0.4278  0.2108
15780TIP3    H168755   3.408   1.435  12.506  0.6255 -1.8377  0.1821
15780TIP3    H268756   3.548   1.493  12.508  0.4441 -1.4080  1.0380
15781TIP3   OH268757   1.112   1.999   4.341  0.0118  0.0126  0.0129
15781TIP3    H168758   1.196   2.041   4.361  0.4237 -1.6401  2.2748
15781TIP3    H268759   1.048   2.069   4.345  0.8642  0.7490  1.9624
15782TIP3   OH268760   6.348   2.648   1.796 -0.3742 -0.2214  0.4113
15782TIP3    H168761   6.364   2.647   1.891  0.7931  0.7763  0.2519
15782TIP3    H268762   6.338   2.741   1.775 -0.1011 -0.3946 -0.5145
15783TIP3   OH268763   3.596   0.078   2.381  0.3786  0.5592 -0.0109
15783TIP3    H168764   3.572   0.098   2.290  2.0328  1.5921 -0.2672
15783TIP3    H268765   3.687   0.107   2.388  0.9208 -1.3258  1.4290
15784TIP3   OH268766   1.287   3.575   2.513  0.1408 -0.0996 -0.5731
15784TIP3    H168767   1.248   3.488   2.527 -0.6578  0.1896 -0.9224
15784TIP3    H268768   1.349   3.562   2.442  1.4404 -0.7744  0.6328
15785TIP3   OH268769   0.406   1.754  12.571 -0.2795 -0.2288  0.3938
15785TIP3    H168770   0.399   1.756  12.667 -0.4746 -3.6470  0.5682
15785TIP3    H268771   0.316   1.740  12.542 -0.0565 -0.3694 -0.2264
15786TIP3   OH268772   2.908   5.597  13.818  0.2815 -0.2826 -0.0267
15786TIP3    H168773   2.848   5.604  13.892  1.7516 -0.2371  1.2137
15786TIP3    H268774   2.856   5.623  13.742 -1.7237 -1.8186  0.7211
15787TIP3   OH268775   5.771   0.978  12.283 -0.0054  0.1898  0.0124
15787TIP3    H168776   5.682   0.943  12.284 -0.0093  0.2043  0.8996
15787TIP3    H268777   5.822   0.915  12.334  0.2783  0.7214  0.3985
15788TIP3   OH268778   4.633   1.078   5.124 -0.0693  0.2126  0.8451
15788TIP3    H168779   4.592   1.076   5.037  0.9580 -0.8025  0.3579
15788TIP3    H268780   4.562   1.057   5.184 -0.5948 -0.0564  0.1468
15789TIP3   OH268781   0.300   4.626  12.743  0.1506  0.1852  0.1836
15789TIP3    H168782   0.251   4.593  12.819 -0.0826  2.0067  0.8672
15789TIP3    H268783   0.279   4.719  12.739  1.7714  0.5500 -0.8948
15790TIP3   OH268784   0.379   2.272  13.353  0.2681 -0.0315  0.0857
15790TIP3    H168785   0.361   2.256  13.446  0.0089 -0.8787 -0.1054
15790TIP3    H268786   0.463   2.318  13.353 -0.6853  1.8479  0.8476
15791TIP3   OH268787   2.814   6.480  14.762 -0.1444  0.0317 -0.0701
15791TIP3    H168788   2.726   6.495  14.796  0.5975  0.1137  1.9605
15791TIP3    H268789   2.837   6.562  14.719 -0.6716  0.3862  0.3101
15792TIP3   OH268790   2.908   5.991  15.951 -0.4428  0.3909  0.1973
15792TIP3    H168791   2.977   5.942  15.906 -0.3743 -0.3489  1.0782
15792TIP3    H268792   2.831   5.982  15.894 -0.2132 -0.0743 -0.0448
15793TIP3   OH268793   2.384   1.537   3.187 -0.4817  0.0089 -0.7936
15793TIP3    H168794   2.299   1.569   3.158 -0.6547  0.7100  0.4258
15793TIP3    H268795   2.427   1.507   3.107 -0.8427  2.0969 -1.8443
15794TIP3   OH268796   3.646   1.087   1.405  1.2707 -0.0263  0.0325
15794TIP3    H168797   3.610   0.999   1.396  3.1839 -0.9219  0.7151
15794TIP3    H268798   3.609   1.135   1.330 -0.9866 -0.9325  0.4824
15795TIP3   OH268799   1.188   1.490  11.459 -0.3386 -0.4737  0.2814
15795TIP3    H168800   1.148   1.530  11.537 -3.3240 -3.0410  0.2807
15795TIP3    H268801   1.150   1.539  11.386 -1.2337 -1.0067  0.3706
15796TIP3   OH268802   0.600   0.617  12.198 -0.2939 -0.4965  0.0783
15796TIP3    H168803   0.577   0.615  12.105  0.5978  1.0012 -0.2149
15796TIP3    H268804   0.522   0.651  12.240 -0.3923 -0.3064 -0.2493
15797TIP3   OH268805   1.501   1.244   6.630 -0.3095 -0.1327 -0.0217
15797TIP3    H168806   1.587   1.286   6.623  0.1287 -0.7252  1.3633
15797TIP3    H268807   1.519   1.151   6.622 -1.0740 -0.1763 -1.5037
15798TIP3   OH268808   1.730   5.078  16.624  1.1146  0.5999 -0.5052
15798TIP3    H168809   1.734   5.128  16.706 -1.8545 -0.4019  0.3996
15798TIP3    H268810   1.673   5.129  16.567  0.7245 -0.1334 -0.7913
15799TIP3   OH268811   6.003   0.563   2.198 -0.0634 -0.0734 -0.3253
15799TIP3    H168812   5.963   0.629   2.255  0.5291 -0.9477  1.1714
15799TIP3    H268813   6.069   0.611   2.149 -1.2619  0.9018 -1.0342
15800TIP3   OH268814   2.790   5.835   5.535 -0.4045 -1.1908  0.2312
15800TIP3    H168815   2.754   5.872   5.454  1.2987 -3.2629 -1.5970
15800TIP3    H268816   2.852   5.768   5.506  0.2315 -2.1013  3.2800
15801TIP3   OH268817   0.613   5.562   3.418  0.3682  0.6775 -0.5676
15801TIP3    H168818   0.701   5.598   3.410  0.6893 -0.0538 -0.3903
15801TIP3    H268819   0.612   5.488   3.357  0.5481 -0.5703  0.8765
15802TIP3   OH268820   5.776   6.160  16.489  0.0881  0.8819 -0.3640
15802TIP3    H168821   5.712   6.224  16.458  2.1714  3.6181  0.5447
15802TIP3    H268822   5.847   6.164  16.425  1.1003  0.9839  0.7141
15803TIP3   OH268823   6.288   3.168  15.085  0.1721 -0.0143 -0.3319
15803TIP3    H168824   6.198   3.139  15.098 -0.2303  0.3069 -2.0976
15803TIP3    H268825   6.290   3.257  15.120 -0.4180  0.2435 -0.9214
15804TIP3   OH268826   3.631   5.822   1.095 -0.1167 -0.3086 -0.1721
15804TIP3    H168827   3.632   5.794   1.186  0.1783 -0.6347 -0.2746
15804TIP3    H268828   3.672   5.909   1.096  1.0340 -0.8314 -0.1580
15805TIP3   OH268829   5.217   4.877  16.362  0.0598 -0.2752 -0.5249
15805TIP3    H168830   5.287   4.941  16.351 -1.8734  1.7951 -1.4824
15805TIP3    H268831   5.182   4.895  16.450  0.2999 -0.8812 -0.2985
15806TIP3   OH268832   0.956   3.563  16.662  0.0764 -0.1071 -0.0483
15806TIP3    H168833   0.939   3.474  16.633 -1.1292  0.4593 -1.2172
15806TIP3    H268834   0.921   3.568  16.751 -0.9311 -0.4851 -0.4150
15807TIP3   OH268835   0.058   6.334  16.032  0.4082  0.0383 -0.2560
15807TIP3    H168836  -0.011   6.372  16.087  0.5662  1.7276 -1.1392
15807TIP3    H268837   0.135   6.331  16.088  0.1557  0.2041  0.1018
15808TIP3   OH268838   0.429   6.224   5.246  0.1474  0.3260 -0.4681
15808TIP3    H168839   0.345   6.239   5.289  0.2037  1.1372 -0.6338
15808TIP3    H268840   0.493   6.269   5.301  0.2585  1.1111 -1.2291
15809TIP3   OH268841   4.521   6.422  15.450  0.1416 -0.0545  0.3251
15809TIP3    H168842   4.545   6.492  15.391 -1.0195 -0.4880 -0.6992
15809TIP3    H268843   4.428   6.435  15.468  0.2202 -0.5534  1.2003
15810TIP3   OH268844   2.537   4.675  15.445 -0.3830 -0.8176  0.5226
15810TIP3    H168845   2.507   4.598  15.493  0.4759 -1.4592  0.0514
15810TIP3    H268846   2.632   4.666  15.442 -0.1324  0.9852  1.6583
15811TIP3   OH268847   6.577   3.872  10.981  0.8540 -0.0279  0.1939
15811TIP3    H168848   6.596   3.946  11.039  0.2563  0.0586  0.2829
15811TIP3    H268849   6.483   3.859  10.989  0.6745  0.3216 -1.1604
15812TIP3   OH268850   4.115   5.569  15.318  0.3795  0.2486  0.2437
15812TIP3    H168851   4.073   5.630  15.257 -1.8692 -0.1060  1.3245
15812TIP3    H268852   4.123   5.619  15.399  2.5354  0.4348 -0.0454
15813TIP3   OH268853   2.671   6.759  14.468 -0.5920 -0.0313  0.1201
15813TIP3    H168854   2.718   6.830  14.422 -0.7686  0.4854  0.7266
15813TIP3    H268855   2.585   6.757  14.426 -0.4702 -0.1299 -0.1333
15814TIP3   OH268856   1.813   0.615  12.211  0.0211 -0.3187 -0.2928
15814TIP3    H168857   1.857   0.639  12.129  0.9972 -0.2526  0.2318
15814TIP3    H268858   1.814   0.519  12.212  0.3069 -0.3144 -0.2005
15815TIP3   OH268859   6.191   0.175  15.418  0.0685 -0.3817  0.3364
15815TIP3    H168860   6.189   0.174  15.514  0.5744  0.1694  0.3584
15815TIP3    H268861   6.220   0.087  15.394 -2.1943 -1.2815  0.6025
15816TIP3   OH268862   3.992   4.289  16.663 -0.1148  0.7952  0.4102
15816TIP3    H168863   3.974   4.197  16.646 -1.1441  0.8113  1.3321
15816TIP3    H268864   3.990   4.330  16.577  1.3607 -0.1764 -0.1408
15817TIP3   OH268865   4.418   0.376   2.396  0.0820 -0.2864 -0.7483
15817TIP3    H168866   4.361   0.452   2.403  0.1456 -0.0576 -2.3942
15817TIP3    H268867   4.407   0.344   2.307  2.1173 -0.5470 -0.9757
15818TIP3   OH268868   5.633   4.070  13.863  0.4056  0.0331  0.3378
15818TIP3    H168869   5.652   3.989  13.816  0.2224  0.2017 -0.0410
15818TIP3    H268870   5.546   4.055  13.902  1.1677 -0.6418  1.8509
15819TIP3   OH268871   1.067   1.596  14.048 -0.6391 -0.2594 -0.2092
15819TIP3    H168872   1.109   1.513  14.070 -0.0869 -0.8910 -3.2198
15819TIP3    H268873   1.133   1.644  13.998 -2.2253  0.3005 -1.8537
15820TIP3   OH268874   0.785   5.132  16.591 -0.8142  0.0985  0.1287
15820TIP3    H168875   0.832   5.062  16.635 -1.2003  0.5494  1.2954
15820TIP3    H268876   0.853   5.182  16.546 -0.0868  0.9217  2.0445
15821TIP3   OH268877   6.657   6.454  16.251  0.4478 -0.0020 -0.2776
15821TIP3    H168878   6.685   6.525  16.309 -0.4403  1.2320 -1.2886
15821TIP3    H268879   6.669   6.374  16.302  5.0823  0.4000 -0.3345
15822TIP3   OH268880   4.912   1.672   0.086 -0.1479 -0.3163  0.1906
15822TIP3    H168881   4.916   1.718   0.002  0.3049 -0.3143  0.2121
15822TIP3    H268882   4.982   1.607   0.081  0.8124  0.6047  1.1106
15823TIP3   OH268883   3.805   3.174  15.321  0.5417 -0.0587  0.6492
15823TIP3    H168884   3.798   3.262  15.357  0.3017 -0.2338  1.0353
15823TIP3    H268885   3.723   3.131  15.345 -0.1889  0.2167 -1.1960
15824TIP3   OH268886   2.065   1.062   5.689 -0.1813 -0.1219  0.5458
15824TIP3    H168887   2.103   1.131   5.634 -0.8765  0.3870  0.6880
15824TIP3    H268888   2.140   1.011   5.719  0.2737  0.1081 -0.1949
15825TIP3   OH268889   3.322   0.258  16.052  0.2456  0.0731 -0.1938
15825TIP3    H168890   3.246   0.205  16.073  0.5934 -0.0351  0.8463
15825TIP3    H268891   3.318   0.270  15.957 -0.1053 -1.3925 -0.3821
15826TIP3   OH268892   3.923   5.997   4.674  0.1278  0.1971  0.3071
15826TIP3    H168893   3.867   5.934   4.627 -0.0998  1.1011 -0.6738
15826TIP3    H268894   3.955   5.948   4.750 -0.5403 -0.9092 -0.0921
15827TIP3   OH268895   3.511   0.192  13.703 -0.2946 -0.1899  0.0915
15827TIP3    H168896   3.531   0.252  13.774  0.7170  0.0489 -0.3680
15827TIP3    H268897   3.570   0.218  13.632 -0.2258 -1.3684 -0.3114
15828TIP3   OH268898   1.717   6.482   0.792  0.4730 -0.3044 -0.9021
15828TIP3    H168899   1.730   6.551   0.856 -1.8229 -0.8705  0.2759
15828TIP3    H268900   1.642   6.511   0.740 -0.8829 -2.0491 -0.0404
15829TIP3   OH268901   0.677   6.192  13.190 -0.1099 -0.3453 -0.6996
15829TIP3    H168902   0.612   6.245  13.144 -0.4070 -1.6433 -1.8485
15829TIP3    H268903   0.760   6.212  13.146  0.1193  0.6023  0.1448
15830TIP3   OH268904   6.406   5.729  16.784 -0.0781 -0.3075  0.3535
15830TIP3    H168905   6.348   5.736  16.860  0.4200 -1.3522  0.8611
15830TIP3    H268906   6.385   5.643  16.747  2.1542 -1.4135  1.4586
15831TIP3   OH268907   3.527   6.060   0.175 -0.1542  0.2630  0.3686
15831TIP3    H168908   3.575   6.050   0.093 -1.1952  0.7756 -0.3264
15831TIP3    H268909   3.481   6.143   0.166 -3.9975 -1.7152 -0.5457
15832TIP3   OH268910   0.710   3.857   2.067 -0.4904  0.5543 -0.3563
15832TIP3    H168911   0.770   3.816   2.004 -0.7191 -1.1049  0.4563
15832TIP3    H268912   0.625   3.816   2.049 -1.0549  1.7225 -0.4394
15833TIP3   OH268913   0.317   1.778   4.317 -0.5827  0.6852 -0.2885
15833TIP3    H168914   0.245   1.715   4.314  0.6392 -0.7566 -0.7600
15833TIP3    H268915   0.287   1.846   4.377 -2.4260  0.2718 -0.6620
15834TIP3   OH268916   4.124   1.067   0.814 -0.0113  0.3253  0.4825
15834TIP3    H168917   4.082   1.153   0.818 -1.3813 -0.3232  1.0363
15834TIP3    H268918   4.135   1.049   0.721 -2.4936 -0.1242  0.1965
15835TIP3   OH268919   1.798   3.055   5.774 -0.3632 -0.1419 -0.4160
15835TIP3    H168920   1.883   3.037   5.813 -0.4512 -1.9581 -0.9785
15835TIP3    H268921   1.735   3.038   5.845 -0.4083 -1.5377 -0.7772
15836TIP3   OH268922   1.647   1.572   2.226 -0.3411 -0.0812 -0.5339
15836TIP3    H168923   1.599   1.561   2.144  0.6468  0.5015 -1.2050
15836TIP3    H268924   1.726   1.520   2.214  0.5086  1.1698 -0.5491
15837TIP3   OH268925   4.529   2.411  15.687 -0.0095 -0.6864  0.3282
15837TIP3    H168926   4.551   2.324  15.653  1.6992 -0.2210  0.1741
15837TIP3    H268927   4.610   2.461  15.679 -0.9673  0.9317  0.4284
15838TIP3   OH268928   2.415   3.079   4.127 -0.1076  0.3801  0.0925
15838TIP3    H168929   2.448   3.002   4.173 -0.6189  1.3993  2.2979
15838TIP3    H268930   2.321   3.079   4.144 -0.3296  0.7821 -1.0165
15839TIP3   OH268931   1.937   3.861  11.005 -0.5322  0.5533  0.5635
15839TIP3    H168932   1.887   3.930  10.961  1.5901  0.5495 -2.1623
15839TIP3    H268933   1.875   3.789  11.014 -1.3967  0.9408 -1.6380
15840TIP3   OH268934   4.449   4.746   5.098 -0.3210 -0.3947  0.3664
15840TIP3    H168935   4.367   4.783   5.065 -0.9692 -1.9716  0.1239
15840TIP3    H268936   4.437   4.742   5.193  0.0760  0.7204  0.4773
15841TIP3   OH268937   0.043   4.987  16.395  0.5411 -0.3621 -0.4562
15841TIP3    H168938  -0.038   5.019  16.356  0.1859 -1.3808 -0.5951
15841TIP3    H268939   0.111   5.048  16.365 -0.4352  1.7504  1.3350
15842TIP3   OH268940   0.367   4.819  14.344 -0.1672 -0.2513 -0.1313
15842TIP3    H168941   0.406   4.732  14.339 -0.1378 -0.2775  0.5475
15842TIP3    H268942   0.300   4.811  14.411 -1.8887 -0.4121 -1.7812
15843TIP3   OH268943   6.146   3.279   2.836 -0.0756 -0.5959 -0.0191
15843TIP3    H168944   6.120   3.188   2.827  0.3174 -0.6213 -0.9529
15843TIP3    H268945   6.115   3.321   2.755  0.1145  0.0077  0.2170
15844TIP3   OH268946   5.790   2.410   3.525 -0.0045  0.0429  0.2973
15844TIP3    H168947   5.795   2.421   3.620 -1.8596  0.0149  0.4407
15844TIP3    H268948   5.738   2.485   3.495 -2.5449 -1.7719 -0.1947
15845TIP3   OH268949   6.120   1.199   0.482  0.3507  0.1501 -0.4543
15845TIP3    H168950   6.097   1.291   0.491  1.7980  0.5084 -0.2613
15845TIP3    H268951   6.212   1.199   0.456  0.4268 -1.2415 -0.2669
15846TIP3   OH268952   1.029   5.633   0.883  0.2224 -0.3868  0.0261
15846TIP3    H168953   1.001   5.576   0.955  1.2733 -1.4581 -0.3867
15846TIP3    H268954   1.094   5.691   0.922 -1.3616  1.0783  0.6199
15847TIP3   OH268955   0.341   4.986   4.924 -0.1146 -1.0333 -0.4805
15847TIP3    H168956   0.318   5.010   4.834 -1.8724 -0.4238  0.0926
15847TIP3    H268957   0.281   4.916   4.946 -0.0612 -0.8126  0.4036
15848TIP3   OH268958   6.636   1.338  13.572  0.3249 -0.2442 -0.0478
15848TIP3    H168959   6.555   1.299  13.540 -0.1561  0.4856  0.2612
15848TIP3    H268960   6.670   1.274  13.635 -1.2193  0.4368  1.5611
15849TIP3   OH268961   3.938   3.821   1.753 -0.1678 -0.0443 -0.2599
15849TIP3    H168962   4.006   3.888   1.749 -1.0617  0.9229  0.3221
15849TIP3    H268963   3.886   3.834   1.674  0.2286 -0.6967 -0.6363
15850TIP3   OH268964   6.169   5.023  14.304 -0.3383 -0.3088  0.0759
15850TIP3    H168965   6.084   4.981  14.289  0.5307 -1.1833 -3.2258
15850TIP3    H268966   6.172   5.094  14.241  2.5472 -2.3152 -2.3625
15851TIP3   OH268967   1.975   2.014  13.368 -0.1426 -0.2035  0.3907
15851TIP3    H168968   2.038   1.978  13.432  1.1498 -1.4735 -1.4825
15851TIP3    H268969   1.911   1.944  13.356 -0.0507 -0.2027 -0.1142
15852TIP3   OH268970   3.428   4.799   1.375  0.0207 -0.1637  0.0242
15852TIP3    H168971   3.434   4.857   1.299 -0.8980  0.1940  0.2172
15852TIP3    H268972   3.337   4.805   1.403  0.2999 -0.4692  1.0230
15853TIP3   OH268973   4.147   6.316  17.130 -0.0556  0.0004 -0.4602
15853TIP3    H168974   4.158   6.405  17.096 -1.5356 -1.0106 -3.9114
15853TIP3    H268975   4.059   6.316  17.169  0.0986  0.1441 -0.1101
15854TIP3   OH268976   4.795   4.380  13.681 -0.1518  0.0313 -0.2151
15854TIP3    H168977   4.791   4.449  13.747  0.5568 -0.7465  0.6726
15854TIP3    H268978   4.887   4.375  13.656  0.0484 -1.4512  0.6985
15855TIP3   OH268979   0.032   0.865  15.212 -0.2908  0.5172  0.0120
15855TIP3    H168980  -0.052   0.909  15.227 -0.5621  0.0868 -0.2011
15855TIP3    H268981   0.085   0.886  15.288 -0.5889  0.8036  0.1430
15856TIP3   OH268982   3.677   1.566   1.061  0.1570  0.0655 -0.4514
15856TIP3    H168983   3.644   1.579   0.972  2.2816 -1.2535 -1.5061
15856TIP3    H268984   3.607   1.518   1.106 -1.1212  1.1274 -1.2304
15857TIP3   OH268985   0.065   6.597   1.239  0.6484 -0.1809 -0.4831
15857TIP3    H168986   0.107   6.590   1.325  1.1275  0.6577 -0.6468
15857TIP3    H268987   0.131   6.566   1.177  0.5812 -0.0367 -0.6276
15858TIP3   OH268988   0.316   0.674   5.004  0.1320 -0.3810  0.4027
15858TIP3    H168989   0.376   0.614   5.048  0.9392  1.7621  2.4564
15858TIP3    H268990   0.370   0.748   4.978 -0.8786 -0.3311 -1.8191
15859TIP3   OH268991   2.137   3.236   1.063 -0.2175 -0.1367  0.1669
15859TIP3    H168992   2.223   3.212   1.098  0.6506  0.4899 -1.3957
15859TIP3    H268993   2.082   3.249   1.140  1.8088  2.1362  1.3679
15860TIP3   OH268994   1.157   5.357  17.171  0.6638 -1.0448  0.3379
15860TIP3    H168995   1.066   5.358  17.202  0.2388  0.0800 -0.8451
15860TIP3    H268996   1.202   5.295  17.229 -0.9991 -2.1388  0.5067
15861TIP3   OH268997   3.454   5.264  15.009 -0.1027 -0.4077 -0.0205
15861TIP3    H168998   3.379   5.319  14.986 -1.2197 -1.6936  0.3848
15861TIP3    H268999   3.445   5.249  15.103 -1.5073 -3.5232 -0.5191
15862TIP3   OH269000   5.391   0.455   1.083 -0.1378 -0.2203 -0.5077
15862TIP3    H169001   5.404   0.452   1.178  1.4351 -0.8194 -0.6994
15862TIP3    H269002   5.471   0.415   1.047 -0.6030  0.1974 -2.0897
15863TIP3   OH269003   4.368   2.745  16.277  0.1438 -0.5729  0.8035
15863TIP3    H169004   4.457   2.725  16.304  1.6789  1.4010 -2.1312
15863TIP3    H269005   4.350   2.831  16.314  0.3289 -0.0606 -0.2361
15864TIP3   OH269006   3.426   2.196  11.202  0.3809 -0.1977 -0.2343
15864TIP3    H169007   3.507   2.235  11.233 -0.8990  1.0878  1.7827
15864TIP3    H269008   3.419   2.222  11.110  1.6060  0.7739 -0.0730
15865TIP3   OH269009   3.966   0.755  13.301  0.0931  0.3894 -0.3119
15865TIP3    H169010   3.915   0.733  13.223 -1.0345  1.3235  0.1399
15865TIP3    H269011   4.018   0.831  13.275 -1.5978  1.8323  0.3158
15866TIP3   OH269012   5.502   1.873  13.529  0.2307  0.0550  0.2241
15866TIP3    H169013   5.496   1.939  13.460  0.0260 -0.9006 -0.6843
15866TIP3    H269014   5.596   1.861  13.543  0.2865 -0.3224 -0.4518
15867TIP3   OH269015   1.538   3.241  16.484  0.9031 -0.0567  0.1640
15867TIP3    H169016   1.555   3.158  16.439  2.8870  0.2986  0.1565
15867TIP3    H269017   1.445   3.238  16.506  0.5312 -1.5034 -1.3819
15868TIP3   OH269018   5.100   5.637   0.650 -0.8404 -0.3420  0.4971
15868TIP3    H169019   5.166   5.652   0.718 -0.6001  0.9131  0.0153
15868TIP3    H269020   5.119   5.549   0.617  0.0790 -0.3187  0.9298
15869TIP3   OH269021   5.042   5.080   6.155  0.1513 -0.3070  0.2918
15869TIP3    H169022   4.966   5.035   6.117  1.3920 -2.8599  0.6589
15869TIP3    H269023   5.096   5.102   6.079  0.1580 -0.6423  0.1967
15870TIP3   OH269024   5.033   0.495  13.236 -0.2556 -0.5372 -0.1905
15870TIP3    H169025   5.045   0.432  13.165  0.2756 -0.9369  0.2383
15870TIP3    H269026   5.109   0.552  13.230 -0.1755 -0.6128  0.0895
15871TIP3   OH269027   3.077   6.298   2.610  0.1825 -0.5392  0.0888
15871TIP3    H169028   2.985   6.271   2.614 -0.6860  2.1950  3.1617
15871TIP3    H269029   3.081   6.361   2.539  0.0333 -1.6350 -0.9167
15872TIP3   OH269030   2.179   0.067   0.059  0.0635 -0.5814  0.0006
15872TIP3    H169031   2.193   0.152   0.017 -0.2966 -0.8494 -0.6903
15872TIP3    H269032   2.266   0.041   0.089 -0.0032  0.5690  1.3157
15873TIP3   OH269033   6.390   3.585  16.765  0.0322  0.1866  0.5376
15873TIP3    H169034   6.466   3.620  16.811  1.0408  0.9084 -1.5515
15873TIP3    H269035   6.410   3.493  16.751  1.1448  0.6290 -1.0586
15874TIP3   OH269036   6.309   5.138   5.318 -0.0872 -0.1681  0.2973
15874TIP3    H169037   6.241   5.188   5.363 -0.2703 -1.3246  1.3672
15874TIP3    H269038   6.339   5.074   5.383  0.1510 -1.4384 -1.0093
15875TIP3   OH269039   0.200   2.082  16.842  0.1893 -0.7171  0.0201
15875TIP3    H169040   0.282   2.129  16.856 -0.1902  0.5582 -1.6256
15875TIP3    H269041   0.224   2.009  16.785  0.3641 -1.0559  0.5224
15876TIP3   OH269042   2.191   0.966  13.738  0.5399 -0.3474  0.1402
15876TIP3    H169043   2.271   0.970  13.685  1.6980 -3.3918  1.4415
15876TIP3    H269044   2.212   1.018  13.816  0.8932 -0.3393  0.0428
15877TIP3   OH269045   1.679   1.519   4.768  0.3818 -0.0662  0.8271
15877TIP3    H169046   1.764   1.546   4.802 -0.0801  0.5409  1.5260
15877TIP3    H269047   1.651   1.449   4.827  0.4086 -0.2900  0.5767
15878TIP3   OH269048   4.714   6.733  12.885  0.4177 -0.1219 -0.1821
15878TIP3    H169049   4.704   6.799  12.954 -0.4042  0.7047 -1.0714
15878TIP3    H269050   4.626   6.722  12.849  1.1379  1.0022 -2.4706
15879TIP3   OH269051   6.737   2.067  17.262 -1.0493 -0.5350 -0.7617
15879TIP3    H169052   6.802   2.002  17.289 -0.3647  0.4700  0.0688
15879TIP3    H269053   6.767   2.097  17.176 -0.6835 -0.4233 -0.5947
15880TIP3   OH269054   3.889   1.331   2.017 -0.0575  0.3276  0.3662
15880TIP3    H169055   3.836   1.270   1.966  0.8495  0.6712 -1.0240
15880TIP3    H269056   3.967   1.346   1.964 -0.5844  3.2674  0.2577
15881TIP3   OH269057   4.699   1.282   4.823 -0.1685  0.1014 -0.2532
15881TIP3    H169058   4.749   1.209   4.787 -2.3003 -1.1651 -0.8495
15881TIP3    H269059   4.763   1.334   4.871  1.5778 -1.7312 -0.4676
15882TIP3   OH269060   3.487   2.720   0.915 -0.4218  0.4315 -0.0201
15882TIP3    H169061   3.468   2.708   0.822  0.1880  1.9230 -0.3689
15882TIP3    H269062   3.518   2.635   0.945 -2.5977 -0.6717 -0.6527
15883TIP3   OH269063   1.918   3.617   4.751  0.8042  0.3012 -0.1942
15883TIP3    H169064   2.007   3.651   4.746  0.2672  1.7270 -0.8569
15883TIP3    H269065   1.872   3.660   4.679 -0.4978 -0.1516  0.3317
15884TIP3   OH269066   2.297   4.361  13.140 -0.0846  0.0669  0.0654
15884TIP3    H169067   2.389   4.335  13.142 -0.0303  0.1870 -0.8140
15884TIP3    H269068   2.280   4.385  13.049 -0.6151  1.3993  0.4901
15885TIP3   OH269069   3.399   5.321   1.050  0.4995 -0.5720 -0.0792
15885TIP3    H169070   3.420   5.278   0.967  0.3662 -0.7923 -0.0010
15885TIP3    H269071   3.473   5.380   1.067  0.2110 -0.0303 -0.6887
15886TIP3   OH269072   4.135   1.003  15.127  0.7818  0.6619 -0.5074
15886TIP3    H169073   4.226   1.022  15.150  0.8006  0.8379 -0.7327
15886TIP3    H269074   4.110   1.072  15.066 -0.0611  1.6462  0.8814
15887TIP3   OH269075   2.673   1.726   6.225 -0.2781 -0.2032 -0.3568
15887TIP3    H169076   2.665   1.783   6.149 -1.3809  0.0607 -0.0591
15887TIP3    H269077   2.729   1.775   6.286  0.6720 -0.4523 -1.0088
15888TIP3   OH269078   1.790   4.253  15.755 -0.0447 -0.5500 -0.2773
15888TIP3    H169079   1.784   4.164  15.719  2.5690 -0.8568 -0.1334
15888TIP3    H269080   1.818   4.240  15.845 -2.9320  0.3751  0.8794
15889TIP3   OH269081   5.496   1.752  16.732 -0.2449 -0.8387 -0.2465
15889TIP3    H169082   5.483   1.791  16.818  0.2488 -0.6717 -0.2441
15889TIP3    H269083   5.468   1.661  16.743  0.5880 -1.0397  0.3176
15890TIP3   OH269084   4.292   6.530  11.467 -0.6215  0.3582  0.3872
15890TIP3    H169085   4.213   6.502  11.513  1.0899 -2.6409  1.8190
15890TIP3    H269086   4.321   6.452  11.420 -0.7969  2.5492 -3.8542
15891TIP3   OH269087   3.787   3.230  10.818  0.1824 -0.3111 -0.1615
15891TIP3    H169088   3.740   3.227  10.735 -0.6268  0.3912  0.2557
15891TIP3    H269089   3.878   3.244  10.793  0.4317 -2.8839 -1.0422
15892TIP3   OH269090   2.990   1.961   1.258 -0.0545  0.2425 -0.2252
15892TIP3    H169091   2.995   2.040   1.312  0.7876  0.2790 -0.3381
15892TIP3    H269092   2.934   1.902   1.308 -0.8087  0.9515 -0.2024
15893TIP3   OH269093   5.562   6.567   4.377 -0.0965  0.9721  0.7868
15893TIP3    H169094   5.522   6.549   4.291  0.1161  0.7463  0.7337
15893TIP3    H269095   5.494   6.542   4.440 -0.4344  1.5896  0.6815
15894TIP3   OH269096   1.781   0.209  11.883 -0.4127 -0.0660  0.1965
15894TIP3    H169097   1.791   0.238  11.793 -2.0626 -1.5821 -0.5302
15894TIP3    H269098   1.781   0.114  11.878 -1.3467 -0.1777  1.6806
15895TIP3   OH269099   5.924   0.491  13.597  0.3150  0.4448  0.4369
15895TIP3    H169100   5.938   0.403  13.562 -0.3529  1.0458 -1.4867
15895TIP3    H269101   6.007   0.535  13.584  0.3838  0.3629  0.5933
15896TIP3   OH269102   5.612   0.003  13.971  0.1815 -0.3557  0.0439
15896TIP3    H169103   5.662  -0.036  14.043  1.5675  2.0027  0.4635
15896TIP3    H269104   5.550   0.062  14.015  1.6781  1.8310 -0.6239
15897TIP3   OH269105   2.661   4.352   5.131  0.2160 -0.0089 -0.0405
15897TIP3    H169106   2.658   4.391   5.218 -0.7944 -0.0272 -0.0540
15897TIP3    H269107   2.752   4.358   5.105  0.1950  1.8384  0.1755
15898TIP3   OH269108   6.213   0.193   1.160  0.0064  0.1871 -0.5072
15898TIP3    H169109   6.179   0.274   1.123 -0.7317 -0.1362 -0.5504
15898TIP3    H269110   6.245   0.144   1.084 -0.9092 -0.1944 -0.6603
15899TIP3   OH269111   3.230   5.385   6.071 -0.0774  0.0283  0.2463
15899TIP3    H169112   3.277   5.466   6.091  0.2392 -0.1295  0.1352
15899TIP3    H269113   3.159   5.413   6.013 -0.1787  0.2795  0.4880
15900TIP3   OH269114   5.251   5.800  15.485 -0.8278 -0.5391  0.0480
15900TIP3    H169115   5.197   5.830  15.558  1.4601  1.0271  1.2072
15900TIP3    H269116   5.251   5.872  15.423 -0.2287 -0.5924 -0.0227
15901TIP3   OH269117   6.764   2.133  11.997 -0.0261 -0.0926  0.0162
15901TIP3    H169118   6.816   2.213  11.987  0.0963 -0.1452  0.2242
15901TIP3    H269119   6.805   2.070  11.937  0.9064 -0.5064  1.0568
15902TIP3   OH269120   3.762   4.244   4.499 -0.5876 -0.2167 -0.0634
15902TIP3    H169121   3.839   4.276   4.452 -1.1279 -0.0528 -0.8443
15902TIP3    H269122   3.795   4.226   4.588  0.6411 -1.2682 -0.6778
15903TIP3   OH269123   2.313   4.386   1.535 -0.6633 -0.0103  0.0190
15903TIP3    H169124   2.265   4.467   1.520 -1.9016 -0.4769  1.1740
15903TIP3    H269125   2.316   4.378   1.631  2.4825  0.3961  0.0607
15904TIP3   OH269126   3.767   6.397   2.147  0.1700  0.1659  0.3099
15904TIP3    H169127   3.686   6.443   2.124 -0.3676 -0.9437 -0.1028
15904TIP3    H269128   3.738   6.325   2.203  0.5158 -1.7794 -1.8828
15905TIP3   OH269129   4.867   5.624   1.211  0.4043  0.0239  0.0783
15905TIP3    H169130   4.930   5.595   1.277  0.6716  2.4589  1.0434
15905TIP3    H269131   4.913   5.618   1.128  1.8489  1.4059  0.7258
15906TIP3   OH269132   5.155   1.827  12.539  0.5884 -0.7566  0.2162
15906TIP3    H169133   5.222   1.858  12.477  0.8133  2.0971  1.7314
15906TIP3    H269134   5.191   1.847  12.625 -3.2774  3.8771  1.1223
15907TIP3   OH269135   4.038   3.879  15.815 -0.2151 -0.1613  0.0838
15907TIP3    H169136   4.116   3.835  15.850  0.3869  1.8407  1.4445
15907TIP3    H269137   4.060   3.898  15.724  1.0491  0.6511  0.5319
15908TIP3   OH269138   5.870   5.290   0.808 -0.1620 -0.0047 -0.1569
15908TIP3    H169139   5.906   5.317   0.724  0.7042 -1.8034 -0.4218
15908TIP3    H269140   5.946   5.260   0.858 -0.7508  0.4271  1.0338
15909TIP3   OH269141   0.056   3.890  12.636  0.4263 -0.1735  0.3366
15909TIP3    H169142   0.099   3.956  12.691  1.6072  1.9061 -2.7882
15909TIP3    H269143  -0.025   3.932  12.607  0.2889 -0.8436 -0.2656
15910TIP3   OH269144   3.190   1.032   0.423  0.1709  0.5801 -0.1488
15910TIP3    H169145   3.157   1.079   0.347  1.5905  2.1340  0.1515
15910TIP3    H269146   3.239   1.097   0.473  1.5600 -1.0411  0.7099
15911TIP3   OH269147   0.296   0.932   2.302 -0.1768  0.4550 -0.5805
15911TIP3    H169148   0.326   0.865   2.240  2.7054  1.2761 -0.2054
15911TIP3    H269149   0.318   0.897   2.388 -2.8695 -0.0444  0.0154
15912TIP3   OH269150   0.284   6.345  11.997  0.1394 -0.2449  0.0105
15912TIP3    H169151   0.192   6.320  11.997  0.0363  0.1230  0.4280
15912TIP3    H269152   0.325   6.287  11.933 -0.2164 -1.0208  0.4652
15913TIP3   OH269153   1.234   4.507   2.806 -0.0978  0.1572  0.0151
15913TIP3    H169154   1.200   4.437   2.863  0.9096  0.2954  0.8137
15913TIP3    H269155   1.170   4.514   2.736 -0.2117 -1.5782 -0.0814
15914TIP3   OH269156   1.553   6.574   5.345 -0.1227  0.0284 -0.1317
15914TIP3    H169157   1.597   6.617   5.419 -1.4142  1.3221 -0.0746
15914TIP3    H269158   1.620   6.517   5.307  1.1830  0.9102  0.7687
15915TIP3   OH269159   6.756   4.567   2.706  0.6772 -0.1760 -0.3225
15915TIP3    H169160   6.697   4.492   2.710  1.4469 -0.7836 -0.1744
15915TIP3    H269161   6.735   4.610   2.623  0.2578 -0.5683 -0.4245
15916TIP3   OH269162   3.310   4.733  15.319 -0.6230 -0.3384 -0.0431
15916TIP3    H169163   3.385   4.717  15.263 -1.6540 -0.6853 -1.3709
15916TIP3    H269164   3.276   4.818  15.290 -0.7993 -0.2271  0.4820
15917TIP3   OH269165   0.564   0.281  15.889  0.1571 -0.0623 -0.3541
15917TIP3    H169166   0.562   0.350  15.822  0.1595 -0.3087 -0.6136
15917TIP3    H269167   0.594   0.325  15.968 -0.2780  0.3303 -0.4027
15918TIP3   OH269168   1.676   1.388   5.256  0.2551  0.5053 -0.2850
15918TIP3    H169169   1.625   1.320   5.300  0.9343 -0.8825 -1.5300
15918TIP3    H269170   1.654   1.469   5.302 -1.7483 -0.3067  0.2990
15919TIP3   OH269171   1.297   6.594   2.470  0.4198 -0.4365 -0.3817
15919TIP3    H169172   1.319   6.502   2.454 -0.9775 -0.9852  0.6123
15919TIP3    H269173   1.353   6.620   2.543  0.1668 -0.7930 -0.0551
15920TIP3   OH269174   1.143   5.669  11.311 -0.5091  0.9257  0.5343
15920TIP3    H169175   1.236   5.672  11.287 -0.3620  0.1228  0.9783
15920TIP3    H269176   1.098   5.644  11.230 -0.3253  1.1346  0.3649
15921TIP3   OH269177   6.533   4.370  15.416 -0.6379 -0.0940 -0.3697
15921TIP3    H169178   6.460   4.431  15.416  0.5399  1.3743 -0.2322
15921TIP3    H269179   6.572   4.378  15.503  0.4746  0.1782 -0.8645
15922TIP3   OH269180   5.236   2.725   0.598 -0.1994  0.2187 -0.3926
15922TIP3    H169181   5.242   2.819   0.617  1.2616 -0.0201  0.5102
15922TIP3    H269182   5.311   2.687   0.644 -1.3892 -1.5519  0.1881
15923TIP3   OH269183   4.055   4.157   2.165 -0.8114  0.3938  0.0320
15923TIP3    H169184   3.963   4.130   2.158  0.1531 -3.0156 -3.7709
15923TIP3    H269185   4.085   4.122   2.248 -2.1660 -1.7224 -0.3078
15924TIP3   OH269186   5.479   6.457   0.674  0.4892 -0.7119 -0.3083
15924TIP3    H169187   5.537   6.438   0.747 -1.3883 -0.9570  1.1902
15924TIP3    H269188   5.452   6.548   0.687 -0.0715 -0.8411 -0.5133
15925TIP3   OH269189   5.966   0.827   2.066 -0.0960 -0.5072  0.3807
15925TIP3    H169190   5.984   0.906   2.118 -2.6526 -0.0906  0.7455
15925TIP3    H269191   5.965   0.858   1.975  0.3343 -0.4296  0.3977
15926TIP3   OH269192   4.510   6.260  17.060  0.2200  0.1416 -0.4016
15926TIP3    H169193   4.464   6.314  16.995  1.6009 -0.3904 -1.9060
15926TIP3    H269194   4.443   6.200  17.093 -0.0008 -1.4954 -3.4721
15927TIP3   OH269195   1.439   4.771   2.268 -0.0949  0.4693  0.4289
15927TIP3    H169196   1.367   4.709   2.278  0.8488 -0.7337 -0.0675
15927TIP3    H269197   1.516   4.717   2.253  0.8126  1.7549  0.2900
15928TIP3   OH269198   5.227   4.697  14.890  0.4233  0.4907  0.5305
15928TIP3    H169199   5.205   4.745  14.970  0.2393  0.8934  0.2443
15928TIP3    H269200   5.316   4.665  14.904 -0.3143 -1.1868  1.7297
15929TIP3   OH269201   0.936   3.092  12.644  0.2258 -0.0414  0.3916
15929TIP3    H169202   1.005   3.102  12.579 -0.8346  0.2200 -0.7410
15929TIP3    H269203   0.897   3.179  12.651  0.2299 -0.1087  1.2665
15930TIP3   OH269204   4.546   1.159  14.363  0.6953 -0.8611  0.1944
15930TIP3    H169205   4.534   1.225  14.432  2.2369 -0.6471  0.2885
15930TIP3    H269206   4.562   1.211  14.284  0.2549 -1.1216 -0.0691
15931TIP3   OH269207   0.603   2.995   0.033  0.0145 -0.2327  0.2474
15931TIP3    H169208   0.643   2.999  -0.054  1.7840 -1.8942  0.9099
15931TIP3    H269209   0.675   3.016   0.093 -1.0191  0.2172  1.3702
15932TIP3   OH269210   2.167   5.796   0.831 -0.7429  0.2758 -0.5922
15932TIP3    H169211   2.138   5.791   0.922  0.4740 -1.5958 -0.2401
15932TIP3    H269212   2.208   5.882   0.824  0.4319 -0.0953  1.0721
15933TIP3   OH269213   5.061   1.079   0.722  0.5510 -0.4132  0.1671
15933TIP3    H169214   5.136   1.130   0.753  1.2257 -1.9647  1.2598
15933TIP3    H269215   5.100   1.002   0.681 -0.4267 -0.9436  0.2054
15934TIP3   OH269216   3.479   0.415   5.053 -0.6714  0.0413 -0.1140
15934TIP3    H169217   3.455   0.323   5.057  1.0810 -0.4327  0.2793
15934TIP3    H269218   3.567   0.419   5.092 -0.1982  1.6785 -1.2302
15935TIP3   OH269219   3.211   5.356  12.693 -0.0383  0.1112 -0.2799
15935TIP3    H169220   3.152   5.371  12.767  2.0799  0.4043  1.4797
15935TIP3    H269221   3.218   5.260  12.687 -1.0308  0.0683 -0.8033
15936TIP3   OH269222   3.295   6.146  13.106 -0.0091  0.3633  0.1273
15936TIP3    H169223   3.325   6.118  13.192 -0.1026 -1.0395 -0.2816
15936TIP3    H269224   3.376   6.161  13.056  0.0408  0.7211  0.3137
15937TIP3   OH269225   1.120   4.536   0.475 -0.4336  0.9914  0.1115
15937TIP3    H169226   1.041   4.508   0.429  0.2688  2.1640 -1.9505
15937TIP3    H269227   1.192   4.493   0.429  0.2079  0.3465  1.6339
15938TIP3   OH269228   2.237   6.074  10.678 -0.1766  0.3150 -0.4773
15938TIP3    H169229   2.237   6.123  10.595 -0.4446 -0.3681 -0.8958
15938TIP3    H269230   2.161   6.016  10.671  0.7737 -0.9763 -0.5042
15939TIP3   OH269231   5.511   4.654  16.813 -0.0383  0.5739  0.5840
15939TIP3    H169232   5.463   4.701  16.745  0.4213  0.3820  0.1235
15939TIP3    H269233   5.601   4.687  16.808  0.2448 -0.1922  0.3949
15940TIP3   OH269234   5.770   4.026  13.398 -0.2694 -0.1446 -0.7240
15940TIP3    H169235   5.724   4.028  13.314  1.5177  0.5833 -1.7467
15940TIP3    H269236   5.756   4.113  13.434  1.2203  0.5079 -1.6139
15941TIP3   OH269237   4.279   1.398  15.185 -0.3365 -0.1643 -0.1670
15941TIP3    H169238   4.258   1.362  15.271 -1.3917  0.5332 -0.1224
15941TIP3    H269239   4.302   1.489  15.202 -0.0993 -0.1419 -0.5794
15942TIP3   OH269240   4.522   6.044   2.560 -0.6062 -0.3917  0.2919
15942TIP3    H169241   4.437   6.082   2.536 -0.4818  0.6608  1.4063
15942TIP3    H269242   4.584   6.116   2.550 -0.1296 -0.6762  1.0867
15943TIP3   OH269243   6.595   6.099  13.523  0.3556  0.4365 -0.0532
15943TIP3    H169244   6.658   6.169  13.508 -1.3598  2.3163  1.0447
15943TIP3    H269245   6.624   6.058  13.604  0.4584  0.9735  0.1886
15944TIP3   OH269246   1.296   5.071   4.549 -0.8239 -0.2521  0.1092
15944TIP3    H169247   1.202   5.053   4.546 -1.1491  1.3508 -0.0614
15944TIP3    H269248   1.325   5.037   4.633 -1.2506 -2.0591 -0.4258
15945TIP3   OH269249   1.862   1.205  17.144  0.0135  0.7711  0.3631
15945TIP3    H169250   1.839   1.259  17.068  1.1228 -0.3823 -0.8595
15945TIP3    H269251   1.957   1.215  17.152 -0.1816  1.4586  2.0877
15946TIP3   OH269252   3.295   1.908  12.264  0.1140 -0.2759 -0.4089
15946TIP3    H169253   3.379   1.951  12.250  0.0026 -0.2514 -1.0754
15946TIP3    H269254   3.239   1.976  12.303  0.4808 -0.3790  0.3113
15947TIP3   OH269255   1.019   2.622  16.013  0.4734  0.6021 -0.1473
15947TIP3    H169256   1.077   2.677  16.066  0.9165 -0.8439  0.9386
15947TIP3    H269257   1.000   2.547  16.069  0.1632 -0.5182 -1.7015
15948TIP3   OH269258   4.004   5.605   0.079 -0.6243  0.5932 -0.2271
15948TIP3    H169259   4.072   5.584   0.015 -0.8527  0.2658 -0.3635
15948TIP3    H269260   4.050   5.654   0.148 -0.0123 -0.6181  0.2589
15949TIP3   OH269261   6.154   5.150   5.772  0.2681 -0.7574  0.5709
15949TIP3    H169262   6.205   5.213   5.822 -1.9958  1.1369  0.7148
15949TIP3    H269263   6.084   5.122   5.831 -1.0517 -0.3206 -0.7037
15950TIP3   OH269264   3.552   4.176  13.494 -0.1586  0.3324  0.0049
15950TIP3    H169265   3.505   4.218  13.422  1.9041  1.1781 -0.9230
15950TIP3    H269266   3.593   4.099  13.454 -1.0841 -0.6751  0.9129
15951TIP3   OH269267   5.622   1.239  13.262 -0.3795  0.3092  0.5649
15951TIP3    H169268   5.598   1.250  13.354 -1.0283  0.1453  0.4176
15951TIP3    H269269   5.619   1.144  13.247  1.3702  0.1814  0.8057
15952TIP3   OH269270   0.957   3.779   1.057 -0.1479 -0.3392  0.0971
15952TIP3    H169271   1.021   3.722   1.098  0.8179  0.6554  0.0055
15952TIP3    H269272   0.958   3.858   1.110  0.0003  0.3691 -0.9375
15953TIP3   OH269273   1.048   0.367   2.401  0.1979  0.1580  0.2695
15953TIP3    H169274   0.953   0.366   2.384  0.3932 -1.0506 -0.9143
15953TIP3    H269275   1.060   0.295   2.464  0.2264  0.9097  1.1389
15954TIP3   OH269276   4.298   4.493  12.655  0.1372 -0.2235  0.2849
15954TIP3    H169277   4.374   4.527  12.702 -1.1619  2.3177  0.6946
15954TIP3    H269278   4.328   4.484  12.565  0.6683  1.8234  0.2112
15955TIP3   OH269279   6.046   0.363  15.695  0.5220  0.0410  0.1995
15955TIP3    H169280   5.986   0.304  15.650  0.0203 -0.4279  1.4512
15955TIP3    H269281   6.123   0.309  15.713  2.1764  1.0681 -2.9391
15956TIP3   OH269282   6.509   3.906   5.834  0.0715 -0.2474  0.6386
15956TIP3    H169283   6.593   3.920   5.879 -0.3201 -0.8650  1.5934
15956TIP3    H269284   6.533   3.870   5.749  0.8041  0.2203  0.6376
15957TIP3   OH269285   1.769   4.214   6.779  0.1898 -0.2253  0.1518
15957TIP3    H169286   1.711   4.195   6.852 -0.2390 -0.9410 -0.3583
15957TIP3    H269287   1.711   4.217   6.703  0.6013  0.6873 -0.1467
15958TIP3   OH269288   6.041   2.014   5.744  0.0799  0.2725 -0.1791
15958TIP3    H169289   6.105   2.042   5.678 -0.6359  2.3571 -0.0537
15958TIP3    H269290   5.965   2.070   5.730 -0.5804 -0.0946  1.6024
15959TIP3   OH269291   4.681   1.431  14.660 -0.3197 -0.0125  0.3644
15959TIP3    H169292   4.611   1.462  14.601  0.9020  1.5322 -0.3460
15959TIP3    H269293   4.635   1.380  14.726 -1.8617 -1.1079 -1.4386
15960TIP3   OH269294   4.014   5.695   3.958  0.4612 -0.1596 -0.0347
15960TIP3    H169295   3.988   5.605   3.976 -0.5805  0.0317 -0.5189
15960TIP3    H269296   3.987   5.744   4.035  2.5288 -0.4954  0.9752
15961TIP3   OH269297   4.445   2.754  12.784 -0.3184 -0.3125 -0.1129
15961TIP3    H169298   4.535   2.726  12.802 -0.3861  0.1060  0.9638
15961TIP3    H269299   4.391   2.703  12.846 -0.7618 -0.1528 -0.3643
15962TIP3   OH269300   5.363   5.360  15.620 -0.3009 -0.0129  0.2012
15962TIP3    H169301   5.396   5.351  15.531  0.0766  0.5709  0.2722
15962TIP3    H269302   5.436   5.398  15.669 -0.7424  0.3572  0.5915
15963TIP3   OH269303   3.941   5.232  14.546  0.4281  0.1612  0.1776
15963TIP3    H169304   3.881   5.186  14.488  0.1788  2.5299 -1.6049
15963TIP3    H269305   3.997   5.283  14.487  0.3117  2.5382  1.9689
15964TIP3   OH269306   3.089   5.115   3.811  0.3884  0.6780  0.2023
15964TIP3    H169307   3.071   5.127   3.717 -1.9515 -0.1044  0.4896
15964TIP3    H269308   3.179   5.081   3.814  0.5938  0.9153 -1.7189
15965TIP3   OH269309   3.249   6.033   3.196  0.1110 -0.3414  0.3472
15965TIP3    H169310   3.335   6.071   3.178 -1.6871  2.6998 -3.2890
15965TIP3    H269311   3.230   5.981   3.118 -2.0748  0.6839  0.1426
15966TIP3   OH269312   5.892   5.833  16.503 -0.0746  0.0086 -0.3873
15966TIP3    H169313   5.968   5.829  16.561  0.6480  2.3793 -1.0548
15966TIP3    H269314   5.817   5.817  16.560  0.8140 -1.2928  0.4792
15967TIP3   OH269315   5.782   2.884   2.597  0.3968  0.4291 -0.2395
15967TIP3    H169316   5.805   2.894   2.504 -2.0272  1.4017 -0.8062
15967TIP3    H269317   5.710   2.822   2.597  1.3576 -0.7606  1.2116
15968TIP3   OH269318   0.182   1.291   0.373  0.4029 -0.4694  0.7742
15968TIP3    H169319   0.180   1.384   0.398  0.9949 -0.6909  1.6804
15968TIP3    H269320   0.133   1.288   0.291  0.2138  0.6182  0.8257
15969TIP3   OH269321   6.050   6.368   5.831  0.3057  0.7042 -0.0778
15969TIP3    H169322   6.124   6.308   5.833 -0.7739 -0.6550  0.2553
15969TIP3    H269323   6.004   6.347   5.751 -0.0301  1.1669 -0.0092
15970TIP3   OH269324   4.672   5.428   3.060  0.0726 -0.2906 -0.7337
15970TIP3    H169325   4.599   5.452   3.003  0.4142  0.8377 -0.7198
15970TIP3    H269326   4.648   5.463   3.146  0.3253 -0.5100 -0.5731
15971TIP3   OH269327   0.219   4.692   2.734  0.0384 -0.9659  0.3799
15971TIP3    H169328   0.141   4.636   2.736 -0.2369 -0.5914  0.3325
15971TIP3    H269329   0.230   4.714   2.642 -0.0563 -0.6665  0.4394
15972TIP3   OH269330   6.304   4.015  14.723 -0.0746  0.3469 -0.0564
15972TIP3    H169331   6.226   4.065  14.700  0.3109  1.1401  0.3281
15972TIP3    H269332   6.311   4.023  14.818  0.8232  0.8081 -0.1548
15973TIP3   OH269333   4.394   1.257   4.056 -0.3233 -0.4903  0.3754
15973TIP3    H169334   4.366   1.182   4.109 -0.6807  0.3165  1.3449
15973TIP3    H269335   4.482   1.233   4.027  0.6549 -0.2070  2.8610
15974TIP3   OH269336   3.626   4.061  11.155 -0.4472 -0.6113  0.1166
15974TIP3    H169337   3.553   4.019  11.109 -0.6502 -0.3111  0.1605
15974TIP3    H269338   3.588   4.094  11.236 -0.6340  0.9130 -0.5553
15975TIP3   OH269339   4.511   4.142  14.581 -1.1650 -0.1293  0.0408
15975TIP3    H169340   4.483   4.115  14.669  1.1658 -0.3109  0.7818
15975TIP3    H269341   4.549   4.229  14.594 -0.2657 -0.4070 -0.6585
15976TIP3   OH269342   4.089   6.499  16.664 -0.1074  0.0495  0.4730
15976TIP3    H169343   4.053   6.549  16.738 -0.2389  0.5683  0.0679
15976TIP3    H269344   4.096   6.409  16.696  0.1922  0.3416  1.2391
15977TIP3   OH269345   5.717   2.608  14.435 -0.0510  0.0397 -0.7966
15977TIP3    H169346   5.811   2.606  14.453 -0.3221 -0.8752  0.7601
15977TIP3    H269347   5.710   2.604  14.340  1.4828 -1.3272 -0.8949
15978TIP3   OH269348   3.437   1.345   3.279 -0.2332 -0.0753  0.0477
15978TIP3    H169349   3.519   1.354   3.229  1.4296 -1.2072  2.3992
15978TIP3    H269350   3.402   1.260   3.253  0.1536 -0.2659  0.1367
15979TIP3   OH269351   3.219   5.077   3.298 -0.0653  0.5710 -0.0975
15979TIP3    H169352   3.160   5.043   3.231 -1.3304 -0.3529  1.3970
15979TIP3    H269353   3.292   5.015   3.299  0.0614  0.7044 -0.7494
15980TIP3   OH269354   5.239   0.471   6.439  0.3746  0.0846  0.7714
15980TIP3    H169355   5.263   0.559   6.468  0.5915  0.8129 -1.4754
15980TIP3    H269356   5.159   0.450   6.488  0.4570  1.4109  1.5059
15981TIP3   OH269357   0.589   2.437   3.290 -0.3288 -0.1508 -0.5545
15981TIP3    H169358   0.625   2.350   3.274 -1.3225 -1.0501  1.6239
15981TIP3    H269359   0.665   2.493   3.305  0.2793 -1.0551 -0.1995
15982TIP3   OH269360   0.452   3.309  15.885  0.6616 -0.0076  0.3358
15982TIP3    H169361   0.411   3.225  15.905  2.6847 -1.8139 -2.3726
15982TIP3    H269362   0.388   3.355  15.831 -0.1706 -0.0524  1.2448
15983TIP3   OH269363   2.867   0.805   3.386  0.1585 -0.1987  0.7282
15983TIP3    H169364   2.829   0.868   3.326 -0.0254 -0.3915  0.6423
15983TIP3    H269365   2.802   0.796   3.456 -0.3328 -1.1617  0.1545
15984TIP3   OH269366   5.287   3.367   0.186 -0.1525  0.6621  0.4871
15984TIP3    H169367   5.289   3.462   0.193 -0.6383  0.8625 -1.5032
15984TIP3    H269368   5.238   3.350   0.106 -2.2195 -1.3418  2.0523
15985TIP3   OH269369   1.149   5.959  16.631  0.1708  0.0603  0.4771
15985TIP3    H169370   1.191   5.986  16.549  0.4239  2.7229  1.3763
15985TIP3    H269371   1.093   6.033  16.654  0.2570 -0.5283  2.8005
15986TIP3   OH269372   6.542   2.810  15.943  0.0094 -0.2376 -0.0397
15986TIP3    H169373   6.480   2.831  16.013 -1.2052 -0.1719 -1.0894
15986TIP3    H269374   6.516   2.723  15.914  1.8145 -1.1379  0.9310
15987TIP3   OH269375   0.076   6.439   4.764  0.6988  0.6565  0.1808
15987TIP3    H169376   0.136   6.371   4.734  1.9476  2.1008 -0.7555
15987TIP3    H269377   0.133   6.506   4.802 -0.5130  1.0580  1.3681
15988TIP3   OH269378   6.425   0.488   0.376 -1.1196 -0.0490  0.4283
15988TIP3    H169379   6.466   0.548   0.437 -1.0871  0.4596 -0.0859
15988TIP3    H269380   6.484   0.412   0.373 -0.8230  0.1740  0.5816
15989TIP3   OH269381   1.291   2.435   0.014  0.2504 -0.2229 -0.2364
15989TIP3    H169382   1.339   2.430   0.096 -0.7246 -1.1771  0.3027
15989TIP3    H269383   1.274   2.344  -0.010 -0.2226  0.0664 -1.0541
15990TIP3   OH269384   2.436   1.899  12.090 -0.0736 -0.1728  0.0762
15990TIP3    H169385   2.506   1.834  12.095  0.1585  0.1142  0.7603
15990TIP3    H269386   2.470   1.968  12.033  0.5773  0.3912  1.1114
15991TIP3   OH269387   5.281   6.376  12.295 -0.0286 -0.5061  0.2575
15991TIP3    H169388   5.274   6.451  12.354 -2.2110 -0.2868 -0.2082
15991TIP3    H269389   5.278   6.299  12.352 -1.0775 -0.2798  0.5119
15992TIP3   OH269390   3.396   1.729  13.663  0.2550 -0.8190 -0.3368
15992TIP3    H169391   3.395   1.729  13.567 -2.3437 -0.6167 -0.3829
15992TIP3    H269392   3.305   1.744  13.687  1.1510  1.0887  2.1898
15993TIP3   OH269393   4.055   3.107  15.648  0.6571 -0.3090 -0.5759
15993TIP3    H169394   4.052   3.128  15.742 -2.3280 -0.3440 -0.5426
15993TIP3    H269395   4.035   3.190  15.605 -1.9639 -1.0149 -0.8995
15994TIP3   OH269396   4.130   4.402  15.689  0.0347 -0.4923 -0.1434
15994TIP3    H169397   4.193   4.330  15.694 -0.2466 -0.6859  1.0718
15994TIP3    H269398   4.184   4.481  15.693  0.1967 -0.6538  1.5851
15995TIP3   OH269399   0.059   6.443   0.824  0.2510  0.3664 -0.6936
15995TIP3    H169400   0.068   6.350   0.803 -0.1132  0.2171 -0.2108
15995TIP3    H269401   0.105   6.453   0.907 -0.3431  0.4611 -0.3676
15996TIP3   OH269402   2.984   5.052   5.500 -0.2353  0.2826 -0.1709
15996TIP3    H169403   3.032   4.985   5.549  0.2660  0.3559 -0.5504
15996TIP3    H269404   2.924   5.003   5.444  1.7510  0.0022 -2.1752
15997TIP3   OH269405   1.964   4.982  14.886 -0.5163  0.4886 -0.7496
15997TIP3    H169406   1.949   4.914  14.951  2.6924  0.2279 -0.1336
15997TIP3    H269407   1.889   4.976  14.827 -1.0728 -2.5682  0.1228
15998TIP3   OH269408   4.782   2.925   3.673 -0.6106  0.6466 -0.3842
15998TIP3    H169409   4.777   2.983   3.597  2.2371  1.8485  0.1917
15998TIP3    H269410   4.802   2.839   3.636 -0.9670  0.8410 -1.0563
15999TIP3   OH269411   0.723   5.041   5.896  0.0351  0.5439 -0.2266
15999TIP3    H169412   0.710   5.002   5.982 -0.7122  0.3050 -0.4385
15999TIP3    H269413   0.659   4.997   5.840  0.8224  0.3609 -1.0123
16000TIP3   OH269414   0.716   4.114  16.086 -0.5151  0.2379 -1.1533
16000TIP3    H169415   0.719   4.061  16.007 -1.8605 -1.4826 -0.1212
16000TIP3    H269416   0.633   4.161  16.081 -0.6576  0.0403 -0.7210
16001TIP3   OH269417   2.274   2.266   0.977 -0.2203 -0.1602 -0.3883
16001TIP3    H169418   2.223   2.346   0.983 -0.3890 -0.2597 -0.4935
16001TIP3    H269419   2.258   2.233   0.888  0.7385  0.2831 -0.7347
16002TIP3   OH269420   5.235   1.279   0.778 -0.3825  0.3342  0.6554
16002TIP3    H169421   5.247   1.374   0.780  2.4229  0.0570  0.7497
16002TIP3    H269422   5.319   1.245   0.747 -1.4932 -2.1150  0.1351
16003TIP3   OH269423   4.656   0.603  11.189  0.0021  0.2610 -0.1290
16003TIP3    H169424   4.591   0.550  11.236  1.1301 -1.3322 -0.2827
16003TIP3    H269425   4.686   0.547  11.118  0.7010  1.4096 -0.7752
16004TIP3   OH269426   4.830   1.852   2.205 -0.3278  0.2945 -0.1015
16004TIP3    H169427   4.796   1.820   2.288  2.3664  0.3423  1.1544
16004TIP3    H269428   4.852   1.944   2.222 -0.1943  0.4467 -1.0237
16005TIP3   OH269429   6.703   5.126  12.651 -0.0721 -0.0652  0.3813
16005TIP3    H169430   6.735   5.204  12.696 -0.8153 -0.3869  1.5067
16005TIP3    H269431   6.781   5.087  12.614  0.2718  1.3927 -0.5148
16006TIP3   OH269432   0.018   1.168   3.138 -0.1220  0.4541 -0.1531
16006TIP3    H169433   0.105   1.129   3.142  0.1028  1.0604  1.3257
16006TIP3    H269434   0.005   1.206   3.224 -1.8991  0.2868 -0.3147
16007TIP3   OH269435   6.440   2.107   1.134  0.0625  0.1839 -0.2309
16007TIP3    H169436   6.434   2.112   1.229 -0.1045  0.7476 -0.2673
16007TIP3    H269437   6.350   2.093   1.104  0.1563 -0.3236 -0.2934
16008TIP3   OH269438   2.846   5.566   0.819  0.0518 -0.5106 -0.6094
16008TIP3    H169439   2.827   5.527   0.904 -2.0887 -0.3293 -0.9446
16008TIP3    H269440   2.863   5.491   0.761  0.3277 -0.6951 -0.2933
16009TIP3   OH269441   3.100   3.071   0.018  0.7062 -0.0310  0.1236
16009TIP3    H169442   3.024   3.127   0.031 -0.2494 -0.8840 -1.5425
16009TIP3    H269443   3.068   2.982   0.032  1.0695 -0.4967 -1.7270
16010TIP3   OH269444   3.123   1.482   4.257 -0.3906  0.1739  0.0540
16010TIP3    H169445   3.071   1.517   4.329 -1.5166  0.7453 -1.0143
16010TIP3    H269446   3.136   1.389   4.280 -1.5986  0.1025  0.5036
16011TIP3   OH269447   1.290   2.590   1.124 -0.3829  0.1113  0.4221
16011TIP3    H169448   1.201   2.621   1.145 -0.6988 -1.5785  1.7741
16011TIP3    H269449   1.296   2.505   1.166  0.5153 -1.6735 -2.9711
16012TIP3   OH269450   2.722   1.947  12.670 -0.2138  0.2428  0.7429
16012TIP3    H169451   2.710   1.871  12.727 -2.3919  0.2832  0.4216
16012TIP3    H269452   2.806   1.931  12.627  0.0196 -1.3059  1.6623
16013TIP3   OH269453   2.292   3.290  14.718 -0.5765  0.3562 -0.4396
16013TIP3    H169454   2.237   3.323  14.647 -0.9007  1.1069  0.1402
16013TIP3    H269455   2.235   3.292  14.795 -0.6422 -1.7005 -0.3818
16014TIP3   OH269456   3.345   1.670   5.282 -0.1510 -0.2757 -0.6593
16014TIP3    H169457   3.432   1.635   5.301 -0.3203 -0.1174  0.4647
16014TIP3    H269458   3.286   1.622   5.340 -0.7259  0.0807 -0.9380
16015TIP3   OH269459   1.464   5.009   3.248 -0.0595 -0.1838  0.0255
16015TIP3    H169460   1.498   5.098   3.237 -1.0687  0.0517 -1.5342
16015TIP3    H269461   1.389   5.019   3.306 -0.3800  0.0573 -0.4203
16016TIP3   OH269462   4.301   1.114  12.385 -0.9255  0.0778  0.2880
16016TIP3    H169463   4.350   1.128  12.304 -3.8332  1.5261 -1.3846
16016TIP3    H269464   4.232   1.052  12.361 -2.2871  1.0915  1.4252
16017TIP3   OH269465   3.955   3.604   1.096 -0.1046 -0.1276 -0.4884
16017TIP3    H169466   3.877   3.627   1.046 -0.3062  1.6480  0.5981
16017TIP3    H269467   3.927   3.604   1.187  0.7808 -1.1501 -0.1900
16018TIP3   OH269468   2.349   1.165  12.346 -0.4313 -0.4211 -0.0113
16018TIP3    H169469   2.371   1.219  12.270  1.4403 -0.1624  0.6601
16018TIP3    H269470   2.302   1.090  12.310 -1.2013  0.5955 -1.1999
16019TIP3   OH269471   1.657   0.799   5.201  0.1057 -0.5450  0.3596
16019TIP3    H169472   1.714   0.783   5.276  1.1466  0.5748 -0.1471
16019TIP3    H269473   1.643   0.894   5.202  1.3196 -0.2835 -1.6451
16020TIP3   OH269474   1.690   5.262  14.940 -0.1243 -0.1832 -0.2079
16020TIP3    H169475   1.601   5.271  14.974  0.2565  1.3407  0.4852
16020TIP3    H269476   1.730   5.194  14.995 -0.2774  0.5242  0.8198
16021TIP3   OH269477   3.862   3.810  12.412  0.2162  0.3191  0.1984
16021TIP3    H169478   3.781   3.809  12.362  1.6411  1.2684 -2.3156
16021TIP3    H269479   3.871   3.720  12.444 -1.7009  0.1544  0.3645
16022TIP3   OH269480   3.419   0.322   2.451  0.5788 -0.0491  0.0220
16022TIP3    H169481   3.334   0.313   2.408  0.5712  1.7516 -0.4432
16022TIP3    H269482   3.463   0.239   2.437 -1.1068 -1.0260  0.2874
16023TIP3   OH269483   3.226   1.298  14.705 -0.1833  0.3431 -0.2178
16023TIP3    H169484   3.167   1.274  14.634  0.4646 -0.0703 -0.6222
16023TIP3    H269485   3.295   1.232  14.703 -0.6389 -0.2453  1.4136
16024TIP3   OH269486   3.801   3.992   2.120 -0.2867 -0.1151 -0.3237
16024TIP3    H169487   3.805   3.910   2.070 -0.5080  0.2522 -0.9477
16024TIP3    H269488   3.725   4.038   2.086  0.1945  0.6372 -0.4063
16025TIP3   OH269489   0.651   2.789  13.180 -0.3218  0.3303  0.0348
16025TIP3    H169490   0.576   2.730  13.165 -0.6744  0.5473  0.9079
16025TIP3    H269491   0.717   2.733  13.222 -0.3256  0.3562  0.0742
16026TIP3   OH269492   3.074   2.089   2.201  0.0335 -0.4386  0.3013
16026TIP3    H169493   3.127   2.078   2.122 -0.1806 -1.6806  0.3113
16026TIP3    H269494   3.082   2.005   2.247  0.3074  0.3208  1.7028
16027TIP3   OH269495   4.143   3.664   0.812  0.3541 -0.2991  0.1941
16027TIP3    H169496   4.139   3.716   0.892  0.9922 -0.3222  0.2500
16027TIP3    H269497   4.053   3.638   0.795  0.3389 -1.2054  1.5104
16028TIP3   OH269498   4.188   0.394  14.674  0.1815 -0.3365 -0.8275
16028TIP3    H169499   4.134   0.370  14.749  0.6596  0.2232 -0.2828
16028TIP3    H269500   4.273   0.352  14.691  0.2591 -0.2919 -1.1008
16029TIP3   OH269501   5.876   0.324   3.807 -0.2941  0.4793 -0.1738
16029TIP3    H169502   5.858   0.400   3.751  1.1574 -0.2595 -1.7218
16029TIP3    H269503   5.969   0.330   3.827 -0.4749 -0.1056  0.9311
16030TIP3   OH269504   4.570   1.785  16.753 -0.3362  0.2728  0.0963
16030TIP3    H169505   4.494   1.744  16.794 -0.7482  0.9857  0.0714
16030TIP3    H269506   4.579   1.740  16.669  0.0900 -0.7238  0.6622
16031TIP3   OH269507   1.372   6.654   1.201 -0.3239 -0.0115 -0.4482
16031TIP3    H169508   1.383   6.650   1.296 -2.4181  0.4061 -0.1300
16031TIP3    H269509   1.403   6.741   1.177 -0.7342  0.2733  0.0274
16032TIP3   OH269510   1.975   1.668   0.725  0.5345  0.4714 -0.1695
16032TIP3    H169511   2.011   1.697   0.642 -0.4571 -0.8398 -1.1025
16032TIP3    H269512   2.049   1.629   0.772  0.7914 -0.1898 -1.1045
16033TIP3   OH269513   0.269   4.552  16.837 -0.3859 -0.2868  0.2466
16033TIP3    H169514   0.345   4.610  16.837 -0.6304  0.0329  0.7190
16033TIP3    H269515   0.278   4.501  16.756  0.6555 -0.6731  0.5837
16034TIP3   OH269516   0.184   1.337  15.093  0.2617 -0.3462 -0.0247
16034TIP3    H169517   0.251   1.377  15.149  1.1199 -1.1150 -0.4675
16034TIP3    H269518   0.141   1.274  15.151 -0.4121  0.4840  0.3920
16035TIP3   OH269519   1.072   2.829  10.794  0.0522 -0.6094  0.2165
16035TIP3    H169520   1.021   2.838  10.714  0.8680 -0.8494 -0.3431
16035TIP3    H269521   1.088   2.919  10.822  0.6446 -0.4958 -0.4656
16036TIP3   OH269522   5.751   6.624  14.856 -0.0219 -0.1363  0.0835
16036TIP3    H169523   5.739   6.535  14.886 -1.7353  0.6569  1.9362
16036TIP3    H269524   5.670   6.647  14.811 -0.0431  0.8307  0.5761
16037TIP3   OH269525   1.014   0.271  13.065  0.8267  0.0969  0.3745
16037TIP3    H169526   0.930   0.287  13.021  1.6814  2.1521 -0.6394
16037TIP3    H269527   1.054   0.201  13.015 -0.5164 -1.3906  1.2730
16038TIP3   OH269528   4.695   5.227  12.460  0.0255 -0.0272 -0.0631
16038TIP3    H169529   4.659   5.239  12.372 -0.0434 -0.7936 -0.1463
16038TIP3    H269530   4.789   5.241  12.449 -0.1330  1.2968  0.0253
16039TIP3   OH269531   5.768   4.410  16.581  0.6487 -0.0721 -0.4893
16039TIP3    H169532   5.841   4.390  16.522  1.4946  1.3473  0.0437
16039TIP3    H269533   5.739   4.497  16.555 -0.3550 -0.2974 -0.1658
16040TIP3   OH269534   3.742   2.155  14.332  0.5178 -0.0874  0.0598
16040TIP3    H169535   3.831   2.122  14.344  0.6577 -0.4670 -1.7091
16040TIP3    H269536   3.732   2.223  14.399  2.8621  1.3924 -0.9607
16041TIP3   OH269537   1.231   0.947  16.022  0.3153  0.6654 -0.2614
16041TIP3    H169538   1.247   0.869  16.075  1.4678  1.0681  0.0235
16041TIP3    H269539   1.246   0.919  15.932 -1.2371  0.0812 -0.3566
16042TIP3   OH269540   1.907   4.079  12.993  0.0800 -0.4940 -0.3975
16042TIP3    H169541   1.938   4.136  12.923  1.0690 -0.0944  0.3460
16042TIP3    H269542   1.985   4.058  13.044 -0.7447 -0.0009  1.1496
16043TIP3   OH269543   2.064   3.955   4.369  0.1412  0.0199  0.2206
16043TIP3    H169544   1.969   3.953   4.363  0.1537 -0.1142  0.0538
16043TIP3    H269545   2.094   3.966   4.278  0.2994 -0.5041  0.2075
16044TIP3   OH269546   5.370   0.587   5.243  0.0759 -0.1700  0.1851
16044TIP3    H169547   5.312   0.645   5.292  1.2746  1.9844 -0.7889
16044TIP3    H269548   5.312   0.537   5.186 -1.0281 -0.0916  1.2166
16045TIP3   OH269549   1.335   1.191   2.594 -0.3196 -0.0604 -0.0505
16045TIP3    H169550   1.351   1.285   2.588  0.3666 -0.2132 -0.9241
16045TIP3    H269551   1.392   1.153   2.527 -0.2190 -1.1394  0.6214
16046TIP3   OH269552   6.723   0.752   2.456 -0.4063 -1.2418  0.4819
16046TIP3    H169553   6.672   0.775   2.379 -0.2781  0.2168  0.8145
16046TIP3    H269554   6.812   0.738   2.423 -0.4819 -1.2455  0.2791
16047TIP3   OH269555   4.569   1.953  11.451  0.5437 -0.0025 -0.9770
16047TIP3    H169556   4.570   1.923  11.542 -0.1527  1.7081 -0.3483
16047TIP3    H269557   4.480   1.985  11.437  1.1360  1.5080 -1.6124
16048TIP3   OH269558   0.329   3.823   0.609  0.4914 -0.3429  0.2892
16048TIP3    H169559   0.331   3.752   0.544  1.2020  0.1121 -0.2048
16048TIP3    H269560   0.264   3.795   0.673  1.4672 -1.9141  0.6469
16049TIP3   OH269561   0.322   1.828   5.857 -0.0552  0.2215 -0.5598
16049TIP3    H169562   0.314   1.773   5.935  0.2383 -0.4632 -1.0009
16049TIP3    H269563   0.286   1.912   5.883 -1.1862 -0.3925 -0.0919
16050TIP3   OH269564   4.477   6.372   1.846 -0.3283  0.0763 -0.2092
16050TIP3    H169565   4.502   6.286   1.812 -0.8396  0.0601 -0.5593
16050TIP3    H269566   4.415   6.406   1.782 -0.0100  0.7783 -0.1531
16051TIP3   OH269567   0.010   4.890  16.634  0.5092  0.2420  0.7134
16051TIP3    H169568  -0.001   4.804  16.595  0.0282  0.1062  1.1379
16051TIP3    H269569   0.025   4.949  16.559 -0.8040  0.0547  0.2825
16052TIP3   OH269570   3.252   6.329  14.311 -0.1309  0.0948 -0.0831
16052TIP3    H169571   3.198   6.285  14.377 -0.5600  0.6587 -0.0523
16052TIP3    H269572   3.288   6.405  14.356 -1.8397  1.4794 -0.9582
16053TIP3   OH269573   0.763   5.104  11.485  0.2924 -0.4019 -0.5311
16053TIP3    H169574   0.709   5.170  11.440  1.2595 -0.6786 -2.1976
16053TIP3    H269575   0.850   5.143  11.489  0.0799 -0.0409  1.9585
16054TIP3   OH269576   2.858   1.451   2.831 -0.3961 -0.0655  0.0166
16054TIP3    H169577   2.882   1.446   2.923 -1.1379 -0.2828  0.2119
16054TIP3    H269578   2.937   1.480   2.786 -0.3880  1.3178  0.8732
16055TIP3   OH269579   1.288   3.510   4.320  0.3312 -0.4278 -0.0832
16055TIP3    H169580   1.268   3.594   4.278 -0.0514 -0.0097  0.9015
16055TIP3    H269581   1.354   3.470   4.264  2.1060  1.4615  0.5343
16056TIP3   OH269582   1.723   6.311  17.294  0.1902 -0.2647  0.0892
16056TIP3    H169583   1.676   6.228  17.303 -1.2569  0.2458 -1.8576
16056TIP3    H269584   1.795   6.292  17.235 -0.9827  0.0953 -1.5273
16057TIP3   OH269585   3.294   1.759  12.013  0.0734 -0.2656  0.0398
16057TIP3    H169586   3.323   1.850  12.011 -0.5702 -0.0559  0.0202
16057TIP3    H269587   3.344   1.716  11.943  1.8358 -0.3911  1.2948
16058TIP3   OH269588   0.739   5.646   4.783 -0.3936  0.4136  0.0349
16058TIP3    H169589   0.830   5.662   4.806  0.0554  0.7156 -1.8102
16058TIP3    H269590   0.716   5.567   4.830  0.4483  0.9749  1.4473
16059TIP3   OH269591   2.555   6.140   4.626  0.0077 -0.1903 -0.6627
16059TIP3    H169592   2.634   6.149   4.680 -0.3360  0.9501 -0.3117
16059TIP3    H269593   2.486   6.180   4.678 -1.0676 -2.1611 -0.4880
16060TIP3   OH269594   3.604   6.384  14.762  0.1958 -1.0246  0.4919
16060TIP3    H169595   3.655   6.446  14.813  0.7535 -0.0725 -1.1368
16060TIP3    H269596   3.651   6.301  14.769  1.2328 -0.4845  0.1237
16061TIP3   OH269597   1.003   1.832  14.968  0.0950  0.4573  0.0554
16061TIP3    H169598   1.025   1.866  14.881 -1.4345  1.6101  0.0732
16061TIP3    H269599   0.908   1.842  14.973  0.0018 -0.8670  1.3494
16062TIP3   OH269600   0.246   1.881  11.929  0.7220 -0.2458 -0.0472
16062TIP3    H169601   0.261   1.932  12.008  2.5097  0.3034 -0.6925
16062TIP3    H269602   0.320   1.903  11.872 -0.0489 -1.3034 -1.5180
16063TIP3   OH269603   3.284   1.830  15.518 -0.2096 -0.1492  0.2366
16063TIP3    H169604   3.210   1.813  15.460 -0.2419 -2.2615  0.8381
16063TIP3    H269605   3.277   1.765  15.588  2.6496 -0.9846 -0.1021
16064TIP3   OH269606   1.466   4.979  15.109 -0.2654  0.1467 -0.7143
16064TIP3    H169607   1.426   4.907  15.158  0.0201  1.4062  1.4666
16064TIP3    H269608   1.392   5.023  15.067 -0.8954  0.6831  0.8782
16065TIP3   OH269609   3.138   0.133   2.997 -0.2004  0.3817  0.2040
16065TIP3    H169610   3.163   0.051   3.041 -0.0765 -0.6240 -1.6439
16065TIP3    H269611   3.214   0.155   2.943  0.0757  2.1762  1.2461
16066TIP3   OH269612   5.734   2.161  11.569 -0.4087 -0.2611  0.4818
16066TIP3    H169613   5.790   2.163  11.492 -0.8439 -2.9192 -0.0231
16066TIP3    H269614   5.686   2.243  11.567  0.0638  0.0096 -1.7296
16067TIP3   OH269615   3.941   3.429   3.310  0.9842 -0.7935  0.0217
16067TIP3    H169616   3.909   3.339   3.323  2.1218 -1.5638 -1.9736
16067TIP3    H269617   3.885   3.464   3.242 -1.2478  1.1077  2.6237
16068TIP3   OH269618   4.695   1.732  12.130 -0.0120  0.4018 -0.0475
16068TIP3    H169619   4.654   1.819  12.134 -0.5714  0.1897 -0.8685
16068TIP3    H269620   4.741   1.732  12.046  0.9817  0.3252  0.4902
16069TIP3   OH269621   3.519   3.473   3.292  0.2821 -0.5217  0.2563
16069TIP3    H169622   3.557   3.403   3.239 -0.2700 -0.3056 -0.4546
16069TIP3    H269623   3.425   3.471   3.270  0.1962  0.1774  0.5183
16070TIP3   OH269624   3.851   3.242  13.022 -0.1700  0.3735 -0.2292
16070TIP3    H169625   3.887   3.185  12.953 -0.5278  0.0860 -0.1836
16070TIP3    H269626   3.756   3.235  13.011 -0.2412  2.7812 -1.7165
16071TIP3   OH269627   5.819   5.704  17.262 -0.5308 -0.4614  0.3889
16071TIP3    H169628   5.727   5.678  17.262 -0.3469 -1.1435 -0.0389
16071TIP3    H269629   5.824   5.774  17.197 -1.2567  1.5958  2.4050
16072TIP3   OH269630   3.854   0.056  13.963 -0.4784 -0.2239  0.0624
16072TIP3    H169631   3.917   0.044  14.034 -1.3726 -0.3357  0.8689
16072TIP3    H269632   3.782  -0.004  13.984 -1.8077  1.3835  0.3380
16073TIP3   OH269633   2.474   6.762  11.303  0.1005  0.2173 -0.0152
16073TIP3    H169634   2.406   6.762  11.237  0.3018  0.8873 -0.2295
16073TIP3    H269635   2.546   6.713  11.263 -0.1322 -0.2149  0.0885
16074TIP3   OH269636   2.153   5.623  14.941  0.3391  0.1991 -0.7317
16074TIP3    H169637   2.231   5.570  14.957  0.2945 -0.3695 -2.2563
16074TIP3    H269638   2.080   5.563  14.953  0.2217  0.2860 -0.9943
16075TIP3   OH269639   1.562   3.339   1.684 -0.3319 -0.1943 -0.0914
16075TIP3    H169640   1.629   3.395   1.646 -0.5708 -0.8119 -1.4650
16075TIP3    H269641   1.606   3.298   1.759 -0.4742  2.5743  1.6156
16076TIP3   OH269642   6.271   0.939  14.108  0.4419  0.1616 -0.0800
16076TIP3    H169643   6.202   0.919  14.045 -0.8405  1.4547  0.8522
16076TIP3    H269644   6.352   0.918  14.062 -0.4384  1.1709 -2.2331
16077TIP3   OH269645   4.572   1.155   3.117  0.2689 -0.4446 -0.1116
16077TIP3    H169646   4.595   1.126   3.029  0.3504  2.3831 -1.1321
16077TIP3    H269647   4.612   1.241   3.125 -1.9828  0.5423  1.6597
16078TIP3   OH269648   1.733   3.143  15.316  0.2722 -0.1474 -0.6731
16078TIP3    H169649   1.650   3.164  15.274 -0.3822 -1.8562 -0.3382
16078TIP3    H269650   1.797   3.146  15.245  0.1751  2.2404 -0.7466
16079TIP3   OH269651   3.870   3.542   5.349 -0.1131 -0.5820 -0.3688
16079TIP3    H169652   3.828   3.618   5.307 -0.4384 -0.1101  0.7749
16079TIP3    H269653   3.963   3.556   5.334 -0.0962  0.5580  0.6168
16080TIP3   OH269654   2.670   3.929  11.924  0.0276  0.1644  0.0706
16080TIP3    H169655   2.607   3.867  11.962  0.4835  0.0657  0.6765
16080TIP3    H269656   2.626   4.014  11.932 -0.4538 -0.0231 -0.4493
16081TIP3   OH269657   2.280   1.826  16.039 -0.3524 -0.2601 -0.3165
16081TIP3    H169658   2.285   1.910  16.084  0.3787  0.1468 -1.1191
16081TIP3    H269659   2.227   1.844  15.961 -0.5173 -0.6357 -0.2921
16082TIP3   OH269660   1.380   4.739   5.289  0.6863  0.0423  0.1867
16082TIP3    H169661   1.300   4.762   5.336  0.8335 -0.4328  0.6841
16082TIP3    H269662   1.446   4.801   5.321  0.6436  0.0955  0.1699
16083TIP3   OH269663   0.227   1.936   1.326  0.0370 -0.2317 -0.9390
16083TIP3    H169664   0.161   1.867   1.337  0.1017 -0.0512  0.8939
16083TIP3    H269665   0.311   1.891   1.337  0.0483  0.2915  1.6703
16084TIP3   OH269666   2.396   5.747   0.006  0.4460 -0.2267  0.0583
16084TIP3    H169667   2.461   5.749  -0.065  2.5979  0.3318  1.9160
16084TIP3    H269668   2.332   5.814  -0.019  3.0351  2.5558  0.2146
16085TIP3   OH269669   6.296   5.272   0.958 -0.1150  0.3536 -0.0731
16085TIP3    H169670   6.252   5.341   1.007  0.6240  0.5940  0.2581
16085TIP3    H269671   6.381   5.309   0.934 -0.4309  0.2116 -1.4875
16086TIP3   OH269672   3.574   4.425  15.448 -0.2782  0.1309 -0.1121
16086TIP3    H169673   3.484   4.457  15.438 -0.7138 -0.8083  0.6447
16086TIP3    H269674   3.570   4.362  15.521  0.4907 -1.7661 -1.6156
16087TIP3   OH269675   4.835   5.510  14.884  0.3587  0.5583 -0.2316
16087TIP3    H169676   4.807   5.599  14.907  1.8339  1.1989 -0.7992
16087TIP3    H269677   4.896   5.486  14.954  0.1221  0.0609 -0.1941
16088TIP3   OH269678   4.642   1.085   1.760  0.2902 -0.3910 -0.5680
16088TIP3    H169679   4.561   1.120   1.798  0.2967 -1.1417  0.1797
16088TIP3    H269680   4.617   0.997   1.729  1.0949 -1.1757  0.8749
16089TIP3   OH269681   5.705   4.346  13.720  0.0993  0.0878 -0.1056
16089TIP3    H169682   5.759   4.414  13.680  0.9551  0.1080  1.0494
16089TIP3    H269683   5.658   4.306  13.646  0.7604  0.8834 -0.9765
16090TIP3   OH269684   1.963   2.822  13.995 -0.1236 -0.0747 -0.2176
16090TIP3    H169685   1.884   2.777  14.024  0.4373 -1.7266 -1.1469
16090TIP3    H269686   2.035   2.772  14.033  0.5197  1.3511  0.5443
16091TIP3   OH269687   2.064   4.514  12.663 -0.3040  0.8333  0.0112
16091TIP3    H169688   2.056   4.535  12.570  2.6591  0.8739 -0.3397
16091TIP3    H269689   2.005   4.575  12.707  1.1651  3.6154 -1.6208
16092TIP3   OH269690   3.059   5.258  13.156  0.0163  0.0069  0.1539
16092TIP3    H169691   2.999   5.232  13.226  0.2761 -2.9325 -0.6118
16092TIP3    H269692   3.146   5.252  13.195  0.0346  1.4575  0.4171
16093TIP3   OH269693   2.012   0.725   3.841 -0.3151 -0.1619 -0.1538
16093TIP3    H169694   2.083   0.671   3.875 -1.0326 -1.6292 -0.8790
16093TIP3    H269695   1.942   0.716   3.905  0.4701  2.2079  1.1579
16094TIP3   OH269696   3.382   4.676  15.950 -0.6416  0.3996 -0.7369
16094TIP3    H169697   3.444   4.606  15.968 -2.4044 -1.8214 -2.6325
16094TIP3    H269698   3.420   4.754  15.991  1.3580 -1.6485  1.6144
16095TIP3   OH269699   0.004   1.980   4.904  0.3131  0.2132  0.2861
16095TIP3    H169700  -0.052   1.922   4.852 -2.2085  1.2849  1.5991
16095TIP3    H269701  -0.014   2.068   4.870  0.4913  0.6643  1.3132
16096TIP3   OH269702   4.151   2.427  15.607 -0.0199 -0.7871  0.0957
16096TIP3    H169703   4.179   2.378  15.685 -0.7400 -0.7938  0.3565
16096TIP3    H269704   4.188   2.514  15.620  0.9254 -1.1350 -0.1746
16097TIP3   OH269705   3.521   0.350   4.527 -0.4266 -0.2900  0.2972
16097TIP3    H169706   3.487   0.370   4.615  2.1643 -0.2568  1.3894
16097TIP3    H269707   3.580   0.423   4.508  2.9694 -2.6511  0.8300
16098TIP3   OH269708   5.289   5.470  13.073  0.0130  0.7933 -0.2881
16098TIP3    H169709   5.360   5.523  13.110  1.5136  0.4206 -2.4400
16098TIP3    H269710   5.318   5.379  13.086 -0.1896  0.6338 -0.9211
16099TIP3   OH269711   5.995   5.318  12.015  0.4424 -0.4183 -0.0985
16099TIP3    H169712   5.989   5.323  12.110  0.9606 -1.4230  0.0108
16099TIP3    H269713   5.925   5.374  11.982  0.8686  0.6934  0.8645
16100TIP3   OH269714   0.839   1.288  15.824  0.2627  0.4642  0.0958
16100TIP3    H169715   0.776   1.243  15.879 -0.2104  1.2729  0.2365
16100TIP3    H269716   0.924   1.249  15.847  0.0568  0.7122  1.3201
16101TIP3   OH269717   1.574   5.575  12.572  0.5821 -0.5594  0.1850
16101TIP3    H169718   1.633   5.500  12.571  3.6861  1.6931 -1.4232
16101TIP3    H269719   1.585   5.616  12.486 -2.0188  1.0560  0.4882
16102TIP3   OH269720   3.455   0.127   4.349 -0.0001 -0.1802 -0.1141
16102TIP3    H169721   3.497   0.197   4.398 -0.5536  0.6157 -0.7429
16102TIP3    H269722   3.525   0.088   4.297 -0.0208  1.1605 -1.1918
16103TIP3   OH269723   3.781   4.753   3.509 -0.4134 -0.0499  0.0175
16103TIP3    H169724   3.788   4.708   3.425  1.0638 -2.1236  1.1649
16103TIP3    H269725   3.706   4.811   3.499 -0.7548 -0.8196 -2.4544
16104TIP3   OH269726   5.953   5.080   3.361  0.8490  0.2479 -0.2257
16104TIP3    H169727   5.896   5.156   3.374 -0.1698  0.1350 -3.1403
16104TIP3    H269728   6.023   5.112   3.305  0.7561 -0.7874 -0.9570
16105TIP3   OH269729   4.691   4.523  11.839 -0.1688  0.5135 -0.4218
16105TIP3    H169730   4.650   4.565  11.763  2.5692 -0.3955 -2.5560
16105TIP3    H269731   4.764   4.580  11.862 -0.7100  0.5645  1.3524
16106TIP3   OH269732   3.265   5.413  17.236 -0.0575  0.3398 -0.4589
16106TIP3    H169733   3.274   5.350  17.308 -0.0803 -1.1173 -1.6834
16106TIP3    H269734   3.354   5.441  17.218 -0.0077  0.3910 -0.1437
16107TIP3   OH269735   0.712   4.094  15.347  0.8892  0.0277  0.6068
16107TIP3    H169736   0.664   4.162  15.300  0.5572 -0.6633 -0.0781
16107TIP3    H269737   0.704   4.119  15.439 -0.6798  0.0182  0.5120
16108TIP3   OH269738   2.589   5.956   2.241 -0.0857  0.1929  0.2405
16108TIP3    H169739   2.596   6.051   2.252  0.8472  0.0579  0.9809
16108TIP3    H269740   2.495   5.939   2.234 -0.3933  1.0172  1.8211
16109TIP3   OH269741   0.270   0.329  14.470 -0.1691 -0.0608  0.2220
16109TIP3    H169742   0.251   0.368  14.555  1.3572 -0.9495  1.0211
16109TIP3    H269743   0.297   0.239  14.491  2.0827  0.2587 -0.9804
16110TIP3   OH269744   4.562   6.735  14.844 -0.3109  0.2603 -0.3952
16110TIP3    H169745   4.639   6.747  14.899 -1.9062  1.9079  1.6397
16110TIP3    H269746   4.539   6.642  14.854 -0.8551  0.5998  2.2505
16111TIP3   OH269747   1.837   3.636  12.801 -0.2052  0.5865  0.3893
16111TIP3    H169748   1.789   3.645  12.719  0.8916  0.8355 -0.2431
16111TIP3    H269749   1.875   3.723  12.818 -0.6465  0.6157  1.3120
16112TIP3   OH269750   4.367   0.209  16.425 -0.0167  0.3590  0.3693
16112TIP3    H169751   4.285   0.209  16.375 -0.0293 -0.0289  0.3897
16112TIP3    H269752   4.395   0.118  16.426  0.2052  0.4277  0.7092
16113TIP3   OH269753   3.299   4.325   3.969  0.1675 -0.0440 -0.2567
16113TIP3    H169754   3.257   4.354   4.049  0.5694  0.1338 -0.1085
16113TIP3    H269755   3.326   4.235   3.986  2.0493  0.6161  0.5457
16114TIP3   OH269756   5.627   6.256   1.737  0.3846 -0.2532  0.1012
16114TIP3    H169757   5.656   6.241   1.827 -0.3324  0.6538  0.4849
16114TIP3    H269758   5.608   6.349   1.732 -0.0411 -0.3760 -0.8631
16115TIP3   OH269759   3.034   0.625   4.020  0.4436 -0.0471 -1.0837
16115TIP3    H169760   3.117   0.672   4.010  0.1907  0.2769 -1.7170
16115TIP3    H269761   3.029   0.606   4.113  1.3873 -0.3572 -1.0808
16116TIP3   OH269762   5.345   4.933  13.145  0.8116 -0.0407  0.0644
16116TIP3    H169763   5.406   4.862  13.163  0.6671 -0.3607 -0.6656
16116TIP3    H269764   5.307   4.911  13.060  1.6653  1.5099 -0.7831
16117TIP3   OH269765   0.809   0.933   1.455  0.8496 -0.2042 -0.0160
16117TIP3    H169766   0.889   0.982   1.476  0.1678  0.8909  0.1574
16117TIP3    H269767   0.838   0.844   1.440  2.0755  0.1272  0.2734
16118TIP3   OH269768   0.372   6.144   6.267 -0.3938  0.1125 -0.1173
16118TIP3    H169769   0.367   6.145   6.363 -0.1005 -0.2492 -0.0938
16118TIP3    H269770   0.430   6.217   6.245 -1.0571  0.6606 -0.0643
16119TIP3   OH269771   6.142   3.696   1.621 -0.6491 -0.0084  0.4658
16119TIP3    H169772   6.114   3.782   1.591  1.1972 -0.1055 -1.8438
16119TIP3    H269773   6.078   3.635   1.584 -0.9288  0.2162  0.5756
16120TIP3   OH269774   4.201   3.327  12.505 -0.7689 -0.5154 -0.2021
16120TIP3    H169775   4.282   3.308  12.457 -0.4892  0.9374 -0.3612
16120TIP3    H269776   4.173   3.412  12.471 -0.5331  0.6137  2.2272
16121TIP3   OH269777   0.141   5.816   4.583  0.1278  0.3072  0.6492
16121TIP3    H169778   0.116   5.901   4.620 -1.3331  0.2881 -0.2128
16121TIP3    H269779   0.137   5.756   4.657 -3.3407  0.1479  0.5104
16122TIP3   OH269780   4.648   5.369  12.722  0.0900 -0.2826 -0.0665
16122TIP3    H169781   4.576   5.428  12.700  0.6186  0.6490  0.6379
16122TIP3    H269782   4.644   5.301  12.655  0.0822  1.0831 -1.5266
16123TIP3   OH269783   3.755   3.441  13.761  0.3990  0.2153  0.3098
16123TIP3    H169784   3.770   3.362  13.813 -1.8088  0.6732  1.8109
16123TIP3    H269785   3.660   3.442  13.746  0.3934  2.4669  0.1791
16124TIP3   OH269786   1.252   4.828  12.524  0.3856  0.1557 -0.7593
16124TIP3    H169787   1.187   4.773  12.479 -0.5340 -1.5603  2.3240
16124TIP3    H269788   1.335   4.784  12.509  0.4938  0.8833 -2.5408
16125TIP3   OH269789   3.498   2.991  13.465 -0.5912  0.6407 -0.2188
16125TIP3    H169790   3.409   3.000  13.497 -1.0930 -1.3531 -0.9134
16125TIP3    H269791   3.535   2.920  13.517 -0.0244  0.2303 -1.1474
16126TIP3   OH269792   0.134   3.197  12.131  0.1597 -0.4119 -0.2284
16126TIP3    H169793   0.182   3.268  12.175 -1.2873  1.0366 -0.8912
16126TIP3    H269794   0.123   3.131  12.200  2.6797 -0.6453  0.0582
16127TIP3   OH269795   1.230   2.416  11.818  0.5995 -0.2404 -0.2499
16127TIP3    H169796   1.195   2.369  11.893  1.9428 -0.4883  0.2485
16127TIP3    H269797   1.159   2.415  11.754  0.1547 -1.8427  0.2231
16128TIP3   OH269798   5.550   5.860   0.479  0.2029  0.4014 -0.2069
16128TIP3    H169799   5.641   5.857   0.448 -0.4822  1.3879 -2.5195
16128TIP3    H269800   5.528   5.768   0.495  1.5042  0.1200  0.1217
16129TIP3   OH269801   6.002   4.507  12.269  0.3624  0.0402 -0.2743
16129TIP3    H169802   6.060   4.434  12.246 -0.2643 -0.7831  0.6465
16129TIP3    H269803   6.004   4.510  12.364 -0.5802  0.4247 -0.2529
16130TIP3   OH269804   0.372   3.240   3.881  0.3530 -0.0946 -0.0100
16130TIP3    H169805   0.380   3.230   3.786  0.7829  0.7963 -0.0847
16130TIP3    H269806   0.423   3.319   3.900 -0.1938  0.0504  0.8860
16131TIP3   OH269807   3.271   3.408  15.208 -0.0121  0.1858 -0.6715
16131TIP3    H169808   3.254   3.387  15.116 -0.9334  1.4098 -0.8140
16131TIP3    H269809   3.211   3.481  15.227 -0.8216 -0.9080  1.2773
16132TIP3   OH269810   0.554   5.972  10.345 -0.0994 -0.1352 -0.4113
16132TIP3    H169811   0.588   5.912  10.412 -2.2247 -2.1182 -0.9417
16132TIP3    H269812   0.516   6.044  10.395 -0.2760 -0.8166  0.4795
16133TIP3   OH269813   5.365   0.085   2.634  0.2541  0.0925 -0.5127
16133TIP3    H169814   5.326   0.041   2.558 -2.2592  0.3390  0.5104
16133TIP3    H269815   5.335   0.175   2.628  0.3699  0.2170  0.5349
16134TIP3   OH269816   1.652   5.467   3.932  0.5418 -0.2430  0.0648
16134TIP3    H169817   1.608   5.527   3.992  0.7571 -1.9778  2.0685
16134TIP3    H269818   1.745   5.472   3.956  0.5426 -1.4663  0.3886
16135TIP3   OH269819   5.402   6.571   1.160 -0.0718 -0.6352  0.3859
16135TIP3    H169820   5.460   6.602   1.229  0.3583  0.8292 -0.5759
16135TIP3    H269821   5.445   6.493   1.126  0.9335 -0.0500  0.2534
16136TIP3   OH269822   5.529   0.049  15.006 -0.7130 -0.4080 -0.1851
16136TIP3    H169823   5.468   0.101  14.955  0.3118 -1.1258 -2.2605
16136TIP3    H269824   5.616   0.077  14.975 -0.0417 -0.8080  1.2595
16137TIP3   OH269825   5.942   2.320   4.592  0.3601 -0.6950  0.0267
16137TIP3    H169826   5.991   2.300   4.671  1.1962  1.7989  0.2416
16137TIP3    H269827   5.853   2.290   4.610  0.5208 -0.1395  1.9381
16138TIP3   OH269828   5.357   1.454   5.022  0.6076  0.4526  0.2086
16138TIP3    H169829   5.322   1.366   5.036 -1.9158  1.4468  0.7337
16138TIP3    H269830   5.366   1.491   5.110 -0.8104  1.5523 -0.0685
16139TIP3   OH269831   5.688   3.282  12.172 -0.5036  1.0783 -0.1028
16139TIP3    H169832   5.767   3.228  12.181 -0.6192  0.2204 -3.0614
16139TIP3    H269833   5.720   3.372  12.175  0.1471  0.8308  1.5910
16140TIP3   OH269834   1.034   2.963   3.699 -0.0660 -0.3240 -0.3118
16140TIP3    H169835   0.980   2.950   3.777  0.5212  0.1845  0.1826
16140TIP3    H269836   1.089   2.885   3.695  0.1846 -0.1665  0.0153
16141TIP3   OH269837   3.244   2.108   0.360 -0.5201  1.0732  0.4412
16141TIP3    H169838   3.337   2.109   0.384 -0.0934  0.3648 -1.0747
16141TIP3    H269839   3.215   2.198   0.375  0.4462  1.3461  0.7864
16142TIP3   OH269840   3.914   2.848  11.725 -0.1613 -0.5404 -0.1526
16142TIP3    H169841   3.884   2.930  11.764 -0.1795 -1.2090  1.2926
16142TIP3    H269842   3.969   2.875  11.651 -1.1522  0.7431 -0.4411
16143TIP3   OH269843   3.193   5.237  14.569 -0.5048  0.2493 -0.4161
16143TIP3    H169844   3.115   5.279  14.607 -0.8839 -0.3051 -0.5766
16143TIP3    H269845   3.256   5.234  14.642 -1.4829 -1.4878  0.4073
16144TIP3   OH269846   5.093   3.537  15.944  0.9343 -0.3035 -0.5944
16144TIP3    H169847   5.056   3.605  16.000  0.5361 -0.2187 -0.9611
16144TIP3    H269848   5.052   3.456  15.975  0.7078 -0.2554 -0.7639
16145TIP3   OH269849   0.720   5.167   4.068 -0.4980  0.4543  0.6804
16145TIP3    H169850   0.719   5.259   4.041  1.6108  0.5179  0.6202
16145TIP3    H269851   0.784   5.164   4.139 -0.3972 -1.0025  0.5570
16146TIP3   OH269852   0.313   3.008  11.198  0.9380 -0.0748  0.1232
16146TIP3    H169853   0.222   3.030  11.178  0.3620 -0.7241  1.7928
16146TIP3    H269854   0.335   2.937  11.138 -0.0456 -0.6666  0.4347
16147TIP3   OH269855   3.189   0.846   5.030 -0.0986  0.5764 -0.1289
16147TIP3    H169856   3.153   0.776   4.977  0.0035  1.6523 -1.6856
16147TIP3    H269857   3.264   0.807   5.075  0.6878 -0.0257 -1.9058
16148TIP3   OH269858   2.733   5.601   4.227  0.1696 -0.5150 -0.1803
16148TIP3    H169859   2.795   5.528   4.236  1.0210  0.2008 -0.1324
16148TIP3    H269860   2.752   5.657   4.302  0.8193  0.7054 -1.2253
16149TIP3   OH269861   6.519   4.721   0.702  0.0710 -0.3309 -0.3055
16149TIP3    H169862   6.468   4.692   0.626  0.1225  1.4362 -1.0667
16149TIP3    H269863   6.608   4.732   0.669  0.7896 -2.3896  0.7712
16150TIP3   OH269864   0.814   3.416  15.010  0.2583 -0.1960 -0.0479
16150TIP3    H169865   0.842   3.325  15.000  0.6679 -0.0853  0.0681
16150TIP3    H269866   0.720   3.414  14.990  0.2457 -0.6549  0.0281
16151TIP3   OH269867   4.187   4.869  16.067 -0.2107 -0.0837  0.4471
16151TIP3    H169868   4.265   4.820  16.094 -0.0459 -0.3982 -0.5752
16151TIP3    H269869   4.165   4.922  16.144  0.4050 -0.7454  1.1019
16152TIP3   OH269870   3.767   0.077   6.137  0.1298  0.1626  0.7129
16152TIP3    H169871   3.855   0.099   6.166  1.1076 -1.3430 -0.9037
16152TIP3    H269872   3.726   0.038   6.215  1.6364 -1.0231  0.9744
16153TIP3   OH269873   3.816   5.665  17.184 -0.4372 -0.1657  0.4873
16153TIP3    H169874   3.885   5.620  17.232 -1.1412 -1.6089  0.1917
16153TIP3    H269875   3.756   5.596  17.157 -1.7562  0.9910  0.3217
16154TIP3   OH269876   4.495   1.306   3.368  0.4001 -0.3709 -0.1298
16154TIP3    H169877   4.589   1.293   3.363  0.3630 -0.6120 -0.2092
16154TIP3    H269878   4.473   1.290   3.459  0.6010  0.8229  0.1469
16155TIP3   OH269879   2.037   1.352   2.742 -0.0669  0.3292  0.5304
16155TIP3    H169880   2.061   1.382   2.655 -0.8677  1.4757  0.6876
16155TIP3    H269881   1.964   1.408   2.768 -0.1110 -0.2636  1.7722
16156TIP3   OH269882   0.551   4.134  16.493  0.1026 -0.0054  0.6463
16156TIP3    H169883   0.611   4.087  16.435  0.1104 -1.1038  1.5079
16156TIP3    H269884   0.512   4.202  16.438  1.0775 -0.1896 -0.2924
16157TIP3   OH269885   4.275   3.663   2.773 -0.0910 -0.6551  0.1286
16157TIP3    H169886   4.339   3.731   2.751 -0.3827 -0.2381  0.5473
16157TIP3    H269887   4.233   3.642   2.690  0.4618 -0.8029 -0.1172
16158TIP3   OH269888   4.173   4.737   0.718  0.4447  0.1152 -0.4474
16158TIP3    H169889   4.169   4.703   0.628  0.1795 -0.8942 -0.0705
16158TIP3    H269890   4.231   4.812   0.713 -0.1007  0.4895 -1.5985
16159TIP3   OH269891   2.992   6.157  16.230 -0.1218 -0.8030  0.1776
16159TIP3    H169892   2.966   6.114  16.149 -1.5248  0.1989  0.0575
16159TIP3    H269893   3.085   6.175  16.220 -0.8238  2.2043 -2.6560
16160TIP3   OH269894   2.945   3.388  17.229  0.0621 -0.0579 -0.0684
16160TIP3    H169895   2.996   3.322  17.182  0.3286  0.3738 -0.4042
16160TIP3    H269896   2.899   3.340  17.297  1.0140 -0.4473  0.3219
16161TIP3   OH269897   2.452   0.660  12.573  0.4574 -0.2364  0.3285
16161TIP3    H169898   2.532   0.688  12.619  0.0245 -2.1766  2.4511
16161TIP3    H269899   2.409   0.741  12.548  1.4020  0.9341  2.2382
16162TIP3   OH269900   4.421   2.795  11.000 -0.6390  0.4122 -0.4913
16162TIP3    H169901   4.401   2.795  11.094 -0.3927  1.3683 -0.4303
16162TIP3    H269902   4.515   2.778  10.996 -1.1066 -2.7591 -0.7255
16163TIP3   OH269903   1.103   1.936   1.066  0.7053  0.0340  0.2375
16163TIP3    H169904   1.103   1.887   0.984 -0.7394 -1.8629  1.2903
16163TIP3    H269905   1.077   2.025   1.041 -0.6545 -0.7338 -1.2716
16164TIP3   OH269906   2.698   3.298   5.576 -0.0633 -0.2477 -0.0005
16164TIP3    H169907   2.613   3.312   5.616 -0.8909  0.7539 -1.9725
16164TIP3    H269908   2.687   3.326   5.485  2.0506 -1.1968 -0.6206
16165TIP3   OH269909   0.971   3.890   2.781 -0.2465 -0.2778  0.8922
16165TIP3    H169910   0.995   3.982   2.797  0.3525 -0.6076  2.0649
16165TIP3    H269911   1.038   3.858   2.720  0.1388 -0.1956  1.2657
16166TIP3   OH269912   4.820   6.730  17.129 -0.0344 -0.3200  0.2105
16166TIP3    H169913   4.725   6.722  17.135  0.0824 -1.4440  0.8604
16166TIP3    H269914   4.835   6.816  17.091 -1.3246 -0.3622 -0.4332
16167TIP3   OH269915   6.555   0.791   3.187 -0.5677  0.6540 -0.1316
16167TIP3    H169916   6.539   0.726   3.256 -0.8045  0.4220 -0.4029
16167TIP3    H269917   6.556   0.740   3.106  2.7892  0.4035 -0.1060
16168TIP3   OH269918   1.441   1.632  10.982  0.4850 -0.1980  0.3808
16168TIP3    H169919   1.512   1.644  10.919  0.1438  0.7433  0.1538
16168TIP3    H269920   1.369   1.683  10.946 -0.3136 -1.1465  0.6082
16169TIP3   OH269921   2.667   0.262  16.620  0.1487 -0.1976  0.8511
16169TIP3    H169922   2.627   0.177  16.638 -0.8517  0.3210  1.1683
16169TIP3    H269923   2.757   0.254  16.651 -0.4336 -0.5858  2.5426
16170TIP3   OH269924   6.273   0.246  16.704 -0.3639 -0.6265  0.1570
16170TIP3    H169925   6.245   0.184  16.637 -1.7544  0.5319 -0.3844
16170TIP3    H269926   6.200   0.249  16.766 -0.9975  1.5131 -0.6013
16171TIP3   OH269927   6.430   4.865   0.481  0.2540 -0.3577  0.6027
16171TIP3    H169928   6.344   4.908   0.483  1.0184  1.3612 -0.3494
16171TIP3    H269929   6.474   4.895   0.560  0.7688  0.6491 -0.0353
16172TIP3   OH269930   1.860   0.328  16.786 -0.1371 -0.0203  0.6554
16172TIP3    H169931   1.884   0.415  16.815  0.6624 -0.7169  2.1743
16172TIP3    H269932   1.897   0.321  16.698 -0.1120  1.1097  0.5584
16173TIP3   OH269933   5.438   4.388  16.983  0.2137  0.5064 -0.5013
16173TIP3    H169934   5.486   4.439  16.918 -0.2789  0.0007 -1.2738
16173TIP3    H269935   5.505   4.358  17.044  1.0188 -0.8470 -1.9994
16174TIP3   OH269936   2.801   1.672  15.336  0.1366  0.4812  0.0919
16174TIP3    H169937   2.731   1.685  15.271  0.8602  1.2502 -0.5511
16174TIP3    H269938   2.796   1.579  15.358 -1.6226  0.6582  0.6841
16175TIP3   OH269939   0.504   5.006   0.353  0.0388 -0.4766  0.1820
16175TIP3    H169940   0.503   4.979   0.262  1.3056 -0.2099  0.0606
16175TIP3    H269941   0.413   5.026   0.374 -0.3040 -0.8046 -0.9345
16176TIP3   OH269942   1.481   6.606  15.155 -0.2731 -0.5904  0.2834
16176TIP3    H169943   1.529   6.548  15.095  0.6259 -0.8595  1.2311
16176TIP3    H269944   1.480   6.691  15.111  0.7517 -0.6787  0.0543
16177TIP3   OH269945   2.609   6.675   4.552 -0.3293 -0.4815  0.1252
16177TIP3    H169946   2.683   6.644   4.499 -1.2745  1.1704 -2.3515
16177TIP3    H269947   2.627   6.642   4.640  2.4137 -1.6506 -0.7618
16178TIP3   OH269948   5.506   2.022   2.665 -0.6592 -0.6236  0.3718
16178TIP3    H169949   5.561   1.996   2.740  0.4663 -0.4823 -0.3787
16178TIP3    H269950   5.535   1.965   2.594 -1.3730 -0.4071 -0.0988
16179TIP3   OH269951   3.434   6.454   3.895  0.0176  1.1243 -0.3306
16179TIP3    H169952   3.358   6.461   3.952 -0.6724  0.4493 -1.1572
16179TIP3    H269953   3.509   6.457   3.955 -0.6681  1.0992  0.5476
16180TIP3   OH269954   5.547   2.030   5.595 -0.3766  0.2842 -0.0900
16180TIP3    H169955   5.498   1.949   5.610 -0.3319 -0.1877 -2.1437
16180TIP3    H269956   5.545   2.076   5.679  1.0562 -2.6034  1.6854
16181TIP3   OH269957   5.105   1.109  16.949 -0.0821 -0.0982 -0.8998
16181TIP3    H169958   5.104   1.188  17.002 -2.1921 -0.8874  0.3198
16181TIP3    H269959   5.186   1.116  16.898  0.6369  1.9977  0.4075
16182TIP3   OH269960   0.274   0.351   1.667 -0.1217 -0.5107  0.3487
16182TIP3    H169961   0.294   0.325   1.578  0.8378  0.8764  0.1241
16182TIP3    H269962   0.358   0.378   1.704 -0.5204 -0.9613  1.6368
16183TIP3   OH269963   5.322   0.837  15.767  0.3013  0.4817 -0.0415
16183TIP3    H169964   5.272   0.905  15.722  0.2833  0.9208  0.6160
16183TIP3    H269965   5.298   0.755  15.723  0.3469  0.8994 -0.8615
16184TIP3   OH269966   2.708   5.412   1.377 -0.1259 -0.2393 -0.2572
16184TIP3    H169967   2.682   5.388   1.466 -2.2993  0.9302 -0.5120
16184TIP3    H269968   2.778   5.476   1.390 -0.1972 -0.3146  0.5974
16185TIP3   OH269969   2.312   6.680   6.242 -0.1216  0.1114 -0.1565
16185TIP3    H169970   2.358   6.670   6.325  1.3467 -0.0745 -0.9578
16185TIP3    H269971   2.349   6.613   6.185 -0.3807  0.8742 -1.2641
16186TIP3   OH269972   0.111   3.087  14.298 -0.3356 -0.5803  0.4696
16186TIP3    H169973   0.068   3.061  14.379 -0.1526 -0.1218  0.7168
16186TIP3    H269974   0.098   3.012  14.239 -0.4008 -0.9461  0.9423
16187TIP3   OH269975   5.046   4.792  13.473 -0.0805 -0.1758 -0.0769
16187TIP3    H169976   5.045   4.817  13.381 -0.2956 -0.0358 -0.0367
16187TIP3    H269977   5.138   4.773  13.492  0.1795  1.0843  0.0252
16188TIP3   OH269978   5.866   0.328  15.267  0.1020 -0.9194 -0.7612
16188TIP3    H169979   5.929   0.366  15.206  0.7611  0.2112  0.5977
16188TIP3    H269980   5.895   0.237  15.277  0.7297 -0.7661 -1.1342
16189TIP3   OH269981   5.319   5.443   5.669 -0.0417  0.0760  0.1903
16189TIP3    H169982   5.228   5.434   5.696 -0.0838 -0.4871 -0.1125
16189TIP3    H269983   5.369   5.405   5.741 -0.2562 -3.7049 -1.4355
16190TIP3   OH269984   6.765   3.516   0.183 -0.5070 -0.5040 -0.0864
16190TIP3    H169985   6.736   3.473   0.102  0.7450 -1.6057  0.0120
16190TIP3    H269986   6.720   3.601   0.182 -2.0335 -1.2679 -0.9568
16191TIP3   OH269987   6.024   4.082  12.808  0.1644  0.3558  0.1446
16191TIP3    H169988   5.985   4.166  12.784 -1.1764 -0.1661  0.4302
16191TIP3    H269989   6.016   4.078  12.903 -0.4901 -0.4173  0.0668
16192TIP3   OH269990   4.332   1.201  16.013  0.4249 -0.1650  0.0323
16192TIP3    H169991   4.308   1.274  16.071 -2.2234 -1.2922  0.4822
16192TIP3    H269992   4.417   1.172  16.045  0.4297  1.2088  1.3688
16193TIP3   OH269993   6.713   5.830   2.120 -0.1783  0.2535  0.5873
16193TIP3    H169994   6.782   5.791   2.068 -0.2958  0.5690  0.1845
16193TIP3    H269995   6.741   5.921   2.134 -1.0705  0.7619 -0.6531
16194TIP3   OH269996   2.609   1.848  11.136 -0.0323 -0.4269  0.8152
16194TIP3    H169997   2.687   1.792  11.136  0.6221  0.3871 -1.4778
16194TIP3    H269998   2.628   1.917  11.200  0.8987 -0.5249  0.6459
16195TIP3   OH269999   5.287   6.180  13.130 -0.0315  0.2658  0.4698
16195TIP3    H170000   5.268   6.272  13.112 -1.3414  0.0846  0.8084
16195TIP3    H270001   5.202   6.142  13.152  0.4860 -1.0344  0.3208
16196TIP3   OH270002   2.600   6.357   5.014  0.1748  0.5635 -0.3962
16196TIP3    H170003   2.583   6.446   5.046 -0.9024  0.3954 -0.4820
16196TIP3    H270004   2.598   6.303   5.092  2.4746  0.7915 -0.0919
16197TIP3   OH270005   5.883   1.552   2.852  0.2753 -0.5221  0.2961
16197TIP3    H170006   5.836   1.488   2.905  1.2944  0.2265  2.2404
16197TIP3    H270007   5.974   1.545   2.882  0.5134  1.3639  0.1357
16198TIP3   OH270008   4.991   4.897  14.197 -0.0816 -0.1120  0.2455
16198TIP3    H170009   5.000   4.879  14.291  0.5077 -1.0384  0.0227
16198TIP3    H270010   4.997   4.993  14.191  2.7062 -0.1540  0.9014
16199TIP3   OH270011   1.649   3.782  12.017 -0.4145 -0.4279 -0.3222
16199TIP3    H170012   1.725   3.771  11.961 -2.1336  0.0035 -2.9380
16199TIP3    H270013   1.678   3.840  12.087  1.5775 -0.1292 -1.3401
16200TIP3   OH270014   0.399   1.079   3.614  0.3544 -0.9496  0.2856
16200TIP3    H170015   0.419   0.994   3.575  3.6160  0.5926 -1.9053
16200TIP3    H270016   0.357   1.128   3.543  0.4358 -0.1233  0.7992
16201TIP3   OH270017   4.803   5.599  12.075  0.3712  0.1300  0.0359
16201TIP3    H170018   4.883   5.632  12.034 -1.0278  2.2711 -1.1656
16201TIP3    H270019   4.794   5.510  12.041  2.5118 -0.3829  0.6680
16202TIP3   OH270020   5.223   4.185  16.995 -0.3161  0.1317 -0.0548
16202TIP3    H170021   5.259   4.183  17.084 -0.7436  0.5636  0.1287
16202TIP3    H270022   5.292   4.226  16.942  0.1324 -0.5516 -0.0180
16203TIP3   OH270023   2.126   1.766   2.608  0.7412  0.3067  0.0739
16203TIP3    H170024   2.204   1.741   2.657 -0.1901 -1.9923  0.5085
16203TIP3    H270025   2.149   1.750   2.517  0.5516 -1.1986  0.2605
16204TIP3   OH270026   4.341   1.189  15.370  0.3561  0.0035  0.1536
16204TIP3    H170027   4.364   1.161  15.281 -1.6366 -0.9284 -0.1098
16204TIP3    H270028   4.421   1.230  15.403  1.9051 -1.7886 -1.1790
16205TIP3   OH270029   2.425   1.951  12.600  0.0312 -0.3778  0.0913
16205TIP3    H170030   2.517   1.933  12.619  0.0698 -1.1957 -0.7576
16205TIP3    H270031   2.422   2.044  12.580  1.1028 -0.7221 -1.9740
16206TIP3   OH270032   4.725   1.779  12.713  0.5554  0.0250  0.2239
16206TIP3    H170033   4.673   1.704  12.684 -5.5826  3.4761  0.5247
16206TIP3    H270034   4.772   1.808  12.634 -0.9849 -1.2827 -1.2584
16207TIP3   OH270035   1.899   3.211  17.050 -0.2419  0.3685 -0.5090
16207TIP3    H170036   1.915   3.165  16.968 -2.1351  1.8099 -1.7567
16207TIP3    H270037   1.879   3.301  17.025 -2.9209  0.4141  1.2748
16208TIP3   OH270038   1.900   6.017   5.572 -0.0000 -0.9788 -0.5750
16208TIP3    H170039   1.825   5.957   5.566 -0.3031 -0.5263 -1.5958
16208TIP3    H270040   1.905   6.057   5.485 -0.6089  1.4232  0.4218
16209TIP3   OH270041   6.601   2.046   1.929 -0.1037  0.1202 -0.0369
16209TIP3    H170042   6.557   2.129   1.947  0.0782  0.5366 -1.3995
16209TIP3    H270043   6.557   1.983   1.987 -2.2935  0.5750 -1.0966
16210TIP3   OH270044   5.538   6.713  13.378 -0.0051 -0.2909  0.0418
16210TIP3    H170045   5.567   6.702  13.469 -0.1968  0.8451  0.2491
16210TIP3    H270046   5.612   6.755  13.334 -0.4959  0.5779  0.0432
16211TIP3   OH270047   6.096   2.229  10.907 -0.0695 -0.4438  0.7324
16211TIP3    H170048   6.164   2.252  10.969  0.3755  1.7757 -0.4782
16211TIP3    H270049   6.087   2.134  10.915  0.8139 -0.3776  3.2502
16212TIP3   OH270050   5.836   0.507   2.806 -0.0583  0.4445  0.4476
16212TIP3    H170051   5.924   0.544   2.803  0.5830 -1.0532 -0.6075
16212TIP3    H270052   5.825   0.464   2.721 -1.3587 -0.3845  0.9952
16213TIP3   OH270053   3.277   4.632  16.219 -0.4256  0.2497 -0.2586
16213TIP3    H170054   3.263   4.640  16.125  0.5480 -3.1061 -0.8385
16213TIP3    H270055   3.194   4.596  16.253  0.1822 -1.3422 -0.3920
16214TIP3   OH270056   0.713   5.305  15.342 -0.0512  0.0861  0.4879
16214TIP3    H170057   0.786   5.365  15.325  0.3904 -1.1265 -2.3365
16214TIP3    H270058   0.748   5.243  15.406  1.4059 -0.4170 -0.7493
16215TIP3   OH270059   2.255   1.472   4.121 -0.2766 -0.1773 -0.1446
16215TIP3    H170060   2.207   1.553   4.105  0.1162  0.1482  0.3168
16215TIP3    H270061   2.265   1.432   4.034  1.3279  1.2762 -0.6736
16216TIP3   OH270062   4.588   5.973   3.130 -0.4884 -0.9178 -0.6852
16216TIP3    H170063   4.645   6.050   3.134 -1.5936 -0.0646 -0.7240
16216TIP3    H270064   4.556   5.972   3.040  2.4311 -3.6721 -1.8550
16217TIP3   OH270065   0.221   1.686  14.521  0.9572  0.7923  0.5033
16217TIP3    H170066   0.186   1.603  14.551 -1.8024  0.8889 -1.9473
16217TIP3    H270067   0.151   1.749  14.538  1.7116  1.9522 -0.5074
16218TIP3   OH270068   6.385   0.768   0.617  0.4978  0.1429  0.6275
16218TIP3    H170069   6.423   0.847   0.578  1.5082  0.2568  1.7978
16218TIP3    H270070   6.449   0.699   0.598  0.2374 -0.1262  0.7206
16219TIP3   OH270071   1.595   5.771   6.025 -0.1963  0.5374  0.0183
16219TIP3    H170072   1.635   5.705   6.082 -2.0942 -0.0751  0.7346
16219TIP3    H270073   1.623   5.748   5.937  0.3528 -0.3536  0.4132
16220TIP3   OH270074   5.367   4.391   5.784  0.1878 -0.6399  0.1768
16220TIP3    H170075   5.338   4.300   5.784  0.6902 -0.8033 -0.2736
16220TIP3    H270076   5.405   4.404   5.697 -0.8659  0.3150 -0.1642
16221TIP3   OH270077   2.216   6.328   1.448 -0.5169  0.2515  0.2671
16221TIP3    H170078   2.211   6.397   1.513 -1.5091  0.0646  0.4072
16221TIP3    H270079   2.173   6.364   1.371 -1.2317 -0.2693  0.4094
16222TIP3   OH270080   1.626   4.297  13.994 -0.2020  0.2942 -0.4631
16222TIP3    H170081   1.643   4.214  13.948  2.7291 -0.4570  1.6583
16222TIP3    H270082   1.646   4.365  13.930 -0.1244 -0.6445 -1.4675
16223TIP3   OH270083   5.154   4.618  16.445  0.0150 -0.1583 -0.2243
16223TIP3    H170084   5.142   4.705  16.409 -0.1676 -0.3722 -0.6810
16223TIP3    H270085   5.180   4.563  16.371 -0.0360 -0.5285  0.0240
16224TIP3   OH270086   2.637   2.151   2.904  0.0965 -0.0700  0.6565
16224TIP3    H170087   2.661   2.067   2.941 -1.2931 -0.5559  0.5022
16224TIP3    H270088   2.719   2.201   2.902  0.5631 -0.6720  2.6448
16225TIP3   OH270089   1.035   6.122   0.082 -0.0040 -0.1884 -0.1628
16225TIP3    H170090   0.994   6.127  -0.004  0.8518 -1.1989 -0.6529
16225TIP3    H270091   0.981   6.060   0.131 -1.6133  1.7874  0.7243
16226TIP3   OH270092   6.675   1.603   0.567  0.1646  0.5462  0.1296
16226TIP3    H170093   6.753   1.652   0.542 -0.0169  0.0808 -1.5101
16226TIP3    H270094   6.708   1.520   0.600  0.4302 -0.5753 -2.6213
16227TIP3   OH270095   4.974   6.069  11.806  0.1446  0.4468  0.3150
16227TIP3    H170096   4.922   6.048  11.728  2.2925 -1.5960 -0.7084
16227TIP3    H270097   4.949   6.001  11.869 -1.8739  2.3202  1.6719
16228TIP3   OH270098   0.083   3.708  16.831 -0.2749  0.0867  0.0162
16228TIP3    H170099   0.118   3.797  16.826 -0.5025  0.1863  0.1545
16228TIP3    H270100   0.159   3.654  16.853  0.1402  0.0496 -1.3987
16229TIP3   OH270101   5.385   5.046   1.997 -0.2159 -0.2212  0.6800
16229TIP3    H170102   5.325   5.084   2.061 -3.0710 -1.4670 -1.0573
16229TIP3    H270103   5.379   5.104   1.921  1.1415 -0.1432  0.6162
16230TIP3   OH270104   0.647   6.004   0.020 -0.7827  0.3326  0.1280
16230TIP3    H170105   0.565   6.027  -0.023  0.2107  0.0940 -2.0434
16230TIP3    H270106   0.714   6.049  -0.031  0.4946 -0.0395  1.4149
16231TIP3   OH270107   5.726   0.213   2.823 -0.0960  0.2492  0.6703
16231TIP3    H170108   5.774   0.170   2.753 -1.4067 -1.5368  0.7877
16231TIP3    H270109   5.688   0.290   2.782 -0.3917 -0.4780 -0.4745
16232TIP3   OH270110   4.808   6.678  14.959  0.4084  0.9855 -0.0869
16232TIP3    H170111   4.848   6.667  14.872  2.2809  1.9451  0.5959
16232TIP3    H270112   4.876   6.720  15.011  0.3566 -1.8981  2.6118
16233TIP3   OH270113   5.418   5.241  17.016  0.0978  0.0350 -0.0915
16233TIP3    H170114   5.435   5.203  17.102 -0.0724  2.4795  1.0800
16233TIP3    H270115   5.326   5.266  17.018 -0.4784 -1.6788 -1.7801
16234TIP3   OH270116   3.423   3.874  12.277  0.1363 -0.1093  0.4228
16234TIP3    H170117   3.377   3.801  12.237  0.7289 -0.7886  0.9499
16234TIP3    H270118   3.395   3.873  12.368  0.9029 -0.3161  0.6674
16235TIP3   OH270119   5.636   3.436   2.530 -0.2780  0.6430  0.0761
16235TIP3    H170120   5.657   3.368   2.595 -0.5742  1.5103  1.1020
16235TIP3    H270121   5.720   3.458   2.490 -0.2401 -0.6511 -0.6162
16236TIP3   OH270122   4.595   3.144  14.463  0.0053 -0.7652 -0.0027
16236TIP3    H170123   4.502   3.137  14.441  0.0800 -1.8317 -0.0354
16236TIP3    H270124   4.625   3.221  14.415 -0.3795 -1.6474 -1.7773
16237TIP3   OH270125   4.786   2.500  15.733 -0.5500 -0.1406  0.3061
16237TIP3    H170126   4.847   2.431  15.759 -1.1927 -0.4867  0.9554
16237TIP3    H270127   4.804   2.515  15.641 -1.0862 -1.9175 -0.1178
16238TIP3   OH270128   6.015   3.553  11.781 -0.3037 -0.2427 -0.9096
16238TIP3    H170129   6.087   3.502  11.743 -0.0917 -0.9483  0.3732
16238TIP3    H270130   6.028   3.642  11.746  1.6888 -0.1530 -0.0916
16239TIP3   OH270131   6.196   6.153  12.437 -0.2147  0.0976  0.0392
16239TIP3    H170132   6.270   6.128  12.492  0.7729  0.0464 -1.2719
16239TIP3    H270133   6.207   6.102  12.357 -1.1899  0.7325 -0.5226
16240TIP3   OH270134   2.003   5.786  14.342 -0.0408  0.4122 -0.5221
16240TIP3    H170135   1.967   5.770  14.429 -2.7109  1.0166 -1.4299
16240TIP3    H270136   2.068   5.855  14.355  0.5518 -0.3883  1.1264
16241TIP3   OH270137   5.211   1.330  13.722 -0.1315 -0.0581 -0.3357
16241TIP3    H170138   5.252   1.415  13.705 -1.1275  0.2010 -1.6161
16241TIP3    H270139   5.118   1.350  13.729 -0.1694 -0.7312  1.7820
16242TIP3   OH270140   6.103   4.213  14.276 -0.7558  0.4831  0.0867
16242TIP3    H170141   6.027   4.232  14.331 -1.6786  0.7368 -1.2184
16242TIP3    H270142   6.073   4.142  14.218  0.5798 -0.6009  0.6844
16243TIP3   OH270143   5.530   2.383  14.939 -0.1522 -0.0534 -0.3440
16243TIP3    H170144   5.550   2.417  15.027  0.6425  1.7673 -1.1708
16243TIP3    H270145   5.515   2.462  14.886 -1.0247 -1.1265 -1.7667
16244TIP3   OH270146   5.617   0.671   6.228  0.4139 -0.5218 -0.5109
16244TIP3    H170147   5.569   0.628   6.158  2.0144  0.5802 -2.3643
16244TIP3    H270148   5.640   0.599   6.288 -3.2571 -1.1201  0.4493
16245TIP3   OH270149   6.351   3.373  13.884 -0.3531 -0.0505 -0.4365
16245TIP3    H170150   6.313   3.391  13.798 -2.0812 -1.5461 -0.0736
16245TIP3    H270151   6.433   3.327  13.865 -0.2031  0.5462 -1.2789
16246TIP3   OH270152   0.755   1.708  13.594 -0.3096  0.1072  0.6804
16246TIP3    H170153   0.740   1.615  13.609 -1.0474  0.5027  2.6344
16246TIP3    H270154   0.794   1.740  13.675 -1.1709  1.7384  0.4866
16247TIP3   OH270155   0.236   6.090   1.638 -0.3646  0.0230 -0.2298
16247TIP3    H170156   0.159   6.075   1.692 -0.7208  1.2551 -0.3709
16247TIP3    H270157   0.304   6.118   1.699  0.2822 -1.9098  0.0236
16248TIP3   OH270158   1.955   6.520   2.584 -0.2309  0.4733  0.3493
16248TIP3    H170159   2.013   6.448   2.606  0.0708  0.4514 -0.4806
16248TIP3    H270160   2.012   6.587   2.547 -0.6020  0.8608  0.4655
16249TIP3   OH270161   6.331   1.913   4.322  0.4836  0.8238  0.3206
16249TIP3    H170162   6.244   1.953   4.314  0.7328  1.4364  0.5658
16249TIP3    H270163   6.387   1.967   4.266  0.6771  0.3315  0.0338
16250TIP3   OH270164   4.336   2.007  12.035 -0.1564 -0.1261 -0.2394
16250TIP3    H170165   4.340   2.102  12.031 -0.6750 -0.1371 -2.0621
16250TIP3    H270166   4.412   1.977  11.984 -1.2395 -0.6421 -1.6042
16251TIP3   OH270167   4.109   0.182   0.295 -0.0457  0.0984  0.1410
16251TIP3    H170168   4.183   0.146   0.343 -0.1923 -0.2919  0.0740
16251TIP3    H270169   4.032   0.156   0.346 -0.4898 -3.0567 -1.9045
16252TIP3   OH270170   0.311   5.167   0.642 -0.8349  0.7142 -0.0604
16252TIP3    H170171   0.341   5.258   0.643  1.3588  0.0402  1.0936
16252TIP3    H270172   0.234   5.167   0.699 -0.4555  1.7305  0.4775
16253TIP3   OH270173   6.532   1.013   5.535  0.0398 -0.2219  0.0444
16253TIP3    H170174   6.538   1.002   5.440 -1.9885  1.0008 -0.2908
16253TIP3    H270175   6.457   1.071   5.548  2.1917  2.4029  2.2261
16254TIP3   OH270176   0.820   6.406   5.864 -0.4125 -0.3207  0.3579
16254TIP3    H170177   0.855   6.383   5.778 -1.3597  0.4481 -0.2616
16254TIP3    H270178   0.860   6.343   5.924  0.0739 -1.0334 -0.6781
16255TIP3   OH270179   6.139   4.850   2.902 -0.5063 -0.3676 -0.1825
16255TIP3    H170180   6.101   4.771   2.863 -0.5407  0.4329 -1.8569
16255TIP3    H270181   6.142   4.914   2.830  0.3118  0.8870  0.9081
16256TIP3   OH270182   2.099   5.863  16.420 -0.1540 -0.2214 -0.8030
16256TIP3    H170183   2.037   5.893  16.354 -1.2020 -1.1290 -0.2688
16256TIP3    H270184   2.075   5.912  16.499 -1.6282 -2.0408 -0.0279
16257TIP3   OH270185   5.628   3.540  10.553 -0.2671  0.0625  0.4887
16257TIP3    H170186   5.654   3.619  10.600  0.3088  0.8285 -1.0282
16257TIP3    H270187   5.541   3.519  10.588  0.4655  0.0927  2.4349
16258TIP3   OH270188   1.195   4.143   5.950 -0.7474  0.2694  0.4291
16258TIP3    H170189   1.128   4.103   6.006 -0.2127 -1.3210 -0.0082
16258TIP3    H270190   1.150   4.214   5.906 -2.1856 -0.7761  0.1345
16259TIP3   OH270191   5.788   4.605   4.342 -0.4406  0.1664 -0.1325
16259TIP3    H170192   5.861   4.598   4.281 -0.3721  1.9283 -0.3007
16259TIP3    H270193   5.828   4.632   4.424 -0.8817  1.1394 -0.2252
16260TIP3   OH270194   6.642   4.267  11.782 -0.0670  0.3582 -0.0156
16260TIP3    H170195   6.693   4.203  11.833  0.5837  0.4534 -0.5322
16260TIP3    H270196   6.646   4.233  11.692  0.0381  0.9705 -0.2442
16261TIP3   OH270197   3.681   2.677   4.213 -0.0204  0.3961 -0.0219
16261TIP3    H170198   3.645   2.708   4.130 -0.8084  1.1248  0.5819
16261TIP3    H270199   3.690   2.583   4.201 -1.0847  0.3533 -0.5834
16262TIP3   OH270200   4.205   1.006   1.082 -0.2672  0.3048  0.3253
16262TIP3    H170201   4.271   1.019   1.014  1.6051  1.6400  2.2509
16262TIP3    H270202   4.149   1.084   1.077  0.7646  1.1472  1.1521
16263TIP3   OH270203   1.974   3.054   5.514  0.2965  0.2731  0.3589
16263TIP3    H170204   2.052   3.109   5.523  1.0909 -0.9116  0.9725
16263TIP3    H270205   1.928   3.063   5.597  0.9169 -0.6672  0.8314
16264TIP3   OH270206   2.743   3.627  14.388 -0.0171 -0.0675  0.0793
16264TIP3    H170207   2.695   3.619  14.306 -0.5817 -1.7928  0.5324
16264TIP3    H270208   2.695   3.693  14.438  0.0988  0.7058 -0.8074
16265TIP3   OH270209   4.720   1.766  14.559  0.5193 -0.2344 -0.2515
16265TIP3    H170210   4.691   1.758  14.650 -2.6348  0.1868 -1.0789
16265TIP3    H270211   4.742   1.677  14.532 -0.3798 -0.6793  0.4282
16266TIP3   OH270212   3.544   6.371  16.618  0.2845 -0.1206  0.5195
16266TIP3    H170213   3.602   6.299  16.643  0.5582 -0.6185 -1.3250
16266TIP3    H270214   3.484   6.381  16.691  1.7901 -0.5749  1.8602
16267TIP3   OH270215   5.789   5.452   6.292  0.1980  0.0820 -0.1668
16267TIP3    H170216   5.718   5.422   6.349  0.7728 -0.4525  0.2748
16267TIP3    H270217   5.854   5.490   6.351  0.7934 -0.4641 -0.4608
16268TIP3   OH270218   0.862   5.157  14.402 -0.2100 -0.0552 -0.3932
16268TIP3    H170219   0.895   5.227  14.459 -0.0293 -1.1302  0.8593
16268TIP3    H270220   0.767   5.164  14.409 -0.1845 -0.5658  0.5374
16269TIP3   OH270221   5.487   2.931   2.355  0.1997 -0.0389  0.1921
16269TIP3    H170222   5.441   2.971   2.429 -0.0464  0.1163 -0.0445
16269TIP3    H270223   5.524   2.850   2.391  0.8863  0.5004  0.7315
16270TIP3   OH270224   1.700   2.016   0.563  0.4799 -0.2568  0.8259
16270TIP3    H170225   1.659   1.998   0.648  0.7209 -2.3661  0.5655
16270TIP3    H270226   1.772   2.075   0.583  0.5332 -0.7165  2.0949
16271TIP3   OH270227   3.431   0.543   2.692  0.0455  0.0942 -0.3235
16271TIP3    H170228   3.515   0.567   2.732 -0.2239 -0.7874  0.8148
16271TIP3    H270229   3.450   0.466   2.639  0.5173  1.5823 -2.4375
16272TIP3   OH270230   1.126   4.464  15.922 -0.5860 -0.0604 -0.2802
16272TIP3    H170231   1.076   4.384  15.904  0.0132 -0.1836 -1.4985
16272TIP3    H270232   1.149   4.498  15.835  1.0534  0.2465  0.2403
16273TIP3   OH270233   4.733   2.288   0.862 -0.3733  0.2582 -0.4082
16273TIP3    H170234   4.667   2.223   0.837 -0.0422 -0.1915 -0.1310
16273TIP3    H270235   4.696   2.332   0.938 -0.2520 -0.1683 -0.0950
16274TIP3   OH270236   1.264   0.390  17.020  0.2635  0.6152 -0.6787
16274TIP3    H170237   1.181   0.342  17.018  1.0093 -0.7321 -2.4637
16274TIP3    H270238   1.322   0.337  17.073  0.1567  1.2861  0.1277
16275TIP3   OH270239   5.556   6.165   3.777 -0.4760 -0.4688  1.1481
16275TIP3    H170240   5.595   6.147   3.692  0.0899  1.7796  0.8743
16275TIP3    H270241   5.463   6.147   3.765 -0.5534  0.7021 -0.2521
16276TIP3   OH270242   5.787   0.460  14.974  0.5485  0.5933  0.3937
16276TIP3    H170243   5.880   0.473  14.989  0.2438  1.4587  1.7359
16276TIP3    H270244   5.745   0.496  15.052 -0.9467  0.7953 -0.4603
16277TIP3   OH270245   0.293   5.070  16.292 -0.4334  0.2001  0.6636
16277TIP3    H170246   0.351   5.033  16.360  0.3899 -0.3507 -0.3047
16277TIP3    H270247   0.316   5.022  16.213 -0.6907  1.5019 -0.2302
16278TIP3   OH270248   4.109   2.037  16.425 -0.0745 -0.1123  0.8233
16278TIP3    H170249   4.120   1.945  16.449 -0.0295 -0.7597 -1.4628
16278TIP3    H270250   4.047   2.035  16.352  0.4123  1.6082  0.3244
16279TIP3   OH270251   4.846   2.661   0.395 -0.0557 -0.0963  0.1383
16279TIP3    H170252   4.826   2.631   0.483  0.5803 -0.5290  0.1372
16279TIP3    H270253   4.761   2.659   0.349 -0.3878  0.1469  0.7371
16280TIP3   OH270254   1.599   1.158   1.870 -0.4595 -0.5641  0.9993
16280TIP3    H170255   1.579   1.065   1.861 -0.0727 -0.4882 -1.6097
16280TIP3    H270256   1.688   1.166   1.834 -1.7134  1.2204 -2.0518
16281TIP3   OH270257   4.820   3.625   3.148  0.2393  0.5624 -0.2235
16281TIP3    H170258   4.894   3.598   3.202 -0.2214 -0.1918  0.0465
16281TIP3    H270259   4.752   3.650   3.211 -0.3379 -0.4273 -0.4328
16282TIP3   OH270260   1.957   1.247   4.246 -0.1531 -0.1864 -0.7632
16282TIP3    H170261   1.901   1.279   4.317 -2.3488 -3.0256 -1.0093
16282TIP3    H270262   2.038   1.296   4.256 -2.1024  3.1149  0.5755
16283TIP3   OH270263   0.865   3.576   6.442  0.0421  0.0951 -0.0014
16283TIP3    H170264   0.945   3.626   6.425 -0.0839  0.5873  0.7714
16283TIP3    H270265   0.796   3.642   6.444  0.1055  0.2086  2.8003
16284TIP3   OH270266   6.734   1.016  12.680 -0.4989 -0.1267 -0.1336
16284TIP3    H170267   6.781   0.954  12.624 -0.2066  0.3406 -0.4075
16284TIP3    H270268   6.770   1.101  12.657 -0.2227  0.0496  0.9267
16285TIP3   OH270269   4.683   5.575   5.363  0.0785 -0.2790  0.4928
16285TIP3    H170270   4.597   5.582   5.320 -0.2388  0.5946  1.2485
16285TIP3    H270271   4.663   5.565   5.456  0.7487 -2.6593  0.4563
16286TIP3   OH270272   2.076   4.719  13.283 -0.0945 -0.0357  0.1563
16286TIP3    H170273   2.110   4.803  13.254  2.6449 -0.7047  1.1299
16286TIP3    H270274   2.024   4.740  13.361  1.4663  0.6772  1.0400
16287TIP3   OH270275   1.477   1.793  14.601 -0.3428 -0.3430 -0.0013
16287TIP3    H170276   1.422   1.777  14.677 -0.3526 -1.3604 -0.2138
16287TIP3    H270277   1.479   1.710  14.554 -1.6382  0.6627 -1.9894
16288TIP3   OH270278   5.825   0.941  14.533  0.6293  0.9885 -0.1198
16288TIP3    H170279   5.868   0.942  14.619  1.2688 -0.6425 -0.4051
16288TIP3    H270280   5.886   0.987  14.475  0.4938  1.5093  0.1389
16289TIP3   OH270281   0.895   0.504   5.917  0.3760 -0.4857 -0.3673
16289TIP3    H170282   0.870   0.531   5.828  0.3093  1.3418  0.1739
16289TIP3    H270283   0.907   0.586   5.964  2.6863 -1.3704  0.7119
16290TIP3   OH270284   5.913   6.592   1.203  0.7342  0.3471  0.3428
16290TIP3    H170285   5.867   6.671   1.228  0.6866  0.2468  0.5741
16290TIP3    H270286   5.937   6.606   1.111  0.3439  0.4460  0.2543
16291TIP3   OH270287   4.550   3.432  16.967 -0.1132  0.3002  0.3810
16291TIP3    H170288   4.547   3.398  17.057  0.2261 -0.2380  0.1958
16291TIP3    H270289   4.512   3.519  16.973 -2.4618 -0.6685  0.6197
16292TIP3   OH270290   2.762   4.943   3.039 -0.0274 -0.5731 -0.5701
16292TIP3    H170291   2.716   5.027   3.029  0.9492  0.1626  0.7282
16292TIP3    H270292   2.766   4.907   2.951 -3.6479 -1.0293 -0.7103
16293TIP3   OH270293   2.876   1.781   5.553 -0.3740 -0.0409  0.0177
16293TIP3    H170294   2.788   1.811   5.531 -0.0759  0.8024 -0.0526
16293TIP3    H270295   2.883   1.795   5.647  0.2794  1.5431 -0.2324
16294TIP3   OH270296   3.442   6.180  15.945 -0.0796  0.0133 -0.3620
16294TIP3    H170297   3.476   6.250  16.000  0.0133 -0.9528  0.8492
16294TIP3    H270298   3.510   6.165  15.880  1.5708 -1.3781  1.5650
16295TIP3   OH270299   6.249   0.597   2.474  0.1618  0.5013  0.0234
16295TIP3    H170300   6.278   0.553   2.394  0.7512 -1.7175  1.3794
16295TIP3    H270301   6.329   0.639   2.508  0.6936 -1.2750  1.0747
16296TIP3   OH270302   1.002   2.514  11.011  0.1688  0.3639 -0.2975
16296TIP3    H170303   1.037   2.529  10.923  0.0213 -0.7499 -0.5690
16296TIP3    H270304   1.021   2.422  11.028 -0.2402  0.4454  0.6442
16297TIP3   OH270305   6.127   0.866  12.631  0.1835 -0.9043 -0.4164
16297TIP3    H170306   6.094   0.779  12.653 -2.0644 -0.0369 -0.0699
16297TIP3    H270307   6.139   0.864  12.536  0.3775 -1.6436 -0.3839
16298TIP3   OH270308   2.297   2.160   5.128  0.5568  0.3608  0.2128
16298TIP3    H170309   2.273   2.247   5.098  0.1517  0.2817  0.2960
16298TIP3    H270310   2.228   2.103   5.093 -0.1661  0.3234  1.6297
16299TIP3   OH270311   1.879   0.015  15.063 -0.3974  0.3893 -0.3431
16299TIP3    H170312   1.813   0.082  15.082 -0.3941  0.7439 -1.4760
16299TIP3    H270313   1.881   0.011  14.967 -2.2210 -3.0601 -0.3709
16300TIP3   OH270314   5.988   4.383   5.657 -0.3882 -0.1668 -0.7612
16300TIP3    H170315   5.914   4.375   5.596 -1.4125 -1.8255  0.6112
16300TIP3    H270316   5.959   4.448   5.721 -0.0782  0.2068 -0.9992
16301TIP3   OH270317   5.246   1.289   3.201 -0.4178  0.2078  0.2024
16301TIP3    H170318   5.341   1.279   3.209 -0.6236 -2.4995  0.1985
16301TIP3    H270319   5.221   1.341   3.277  0.9736  0.2533  0.6630
16302TIP3   OH270320   4.361   6.005   1.936 -0.0891  0.3081 -0.2711
16302TIP3    H170321   4.426   5.982   2.002 -2.3981  0.4171  2.2467
16302TIP3    H270322   4.297   5.934   1.941 -0.1376  0.1120 -2.7593
16303TIP3   OH270323   3.785   6.619  11.745  0.0945 -0.1872 -0.0328
16303TIP3    H170324   3.740   6.697  11.713 -0.0445 -0.7607 -1.3099
16303TIP3    H270325   3.803   6.637  11.837 -2.5998  0.1174  0.4978
16304TIP3   OH270326   3.904   1.472   1.223 -0.0985  0.1699 -0.3820
16304TIP3    H170327   3.936   1.392   1.181  2.9135  2.6671 -3.3719
16304TIP3    H270328   3.857   1.518   1.154 -3.5529  0.3067  1.8083
16305TIP3   OH270329   1.711   4.761   5.147 -0.0729  0.1161 -0.0749
16305TIP3    H170330   1.767   4.692   5.113 -0.1349 -0.2973  0.6631
16305TIP3    H270331   1.697   4.739   5.239  0.4977  1.4945  0.3679
16306TIP3   OH270332   0.127   1.038  17.158  0.3927 -0.1415 -0.4751
16306TIP3    H170333   0.219   1.011  17.158  0.5012  0.0074  1.8858
16306TIP3    H270334   0.116   1.084  17.242 -2.0453 -0.9162 -0.3058
16307TIP3   OH270335   6.213   2.803  11.264  0.0690 -0.0897 -0.3742
16307TIP3    H170336   6.236   2.715  11.236  1.2418 -0.2534  0.9977
16307TIP3    H270337   6.215   2.855  11.184  0.4490 -1.0904 -1.0323
16308TIP3   OH270338   5.743   3.684  11.830  0.3612 -0.0518  0.5816
16308TIP3    H170339   5.822   3.650  11.790  1.0617 -0.4662  2.2131
16308TIP3    H270340   5.671   3.639  11.785  1.1608 -1.4489  0.6332
16309TIP3   OH270341   1.313   5.481   5.438  0.4768  0.2144  0.0868
16309TIP3    H170342   1.361   5.519   5.364  1.4729 -0.9666  0.0768
16309TIP3    H270343   1.363   5.401   5.459 -1.4031 -0.9831  0.1931
16310TIP3   OH270344   2.897   2.027  15.157  0.4980 -0.6075  0.9374
16310TIP3    H170345   2.833   2.083  15.112  0.6409 -1.0699  0.1555
16310TIP3    H270346   2.874   2.036  15.250 -0.3172 -0.2800  0.7176
16311TIP3   OH270347   5.260   0.439  15.032 -0.2704  0.0085 -0.2784
16311TIP3    H170348   5.334   0.487  14.996 -0.0070  0.0864  0.3680
16311TIP3    H270349   5.263   0.456  15.126 -0.2796 -1.1267 -0.0641
16312TIP3   OH270350   1.338   4.183  13.029  0.4335 -0.1644  0.3367
16312TIP3    H170351   1.309   4.190  12.938  0.6709  0.7932  0.3189
16312TIP3    H270352   1.430   4.160  13.023  0.3708 -0.4183  0.3423
16313TIP3   OH270353   4.082   1.511  16.669  0.1647  0.3393  0.4337
16313TIP3    H170354   4.063   1.586  16.612  0.5967  1.4452  1.6958
16313TIP3    H270355   4.008   1.509  16.730  0.2608 -0.1518  0.5368
16314TIP3   OH270356   2.553   3.413  17.365  0.4151  0.0752  0.9346
16314TIP3    H170357   2.603   3.335  17.344 -1.7263 -0.8371 -1.2852
16314TIP3    H270358   2.614   3.469  17.412  1.8507 -3.1566  3.2648
16315TIP3   OH270359   3.792   0.353  14.552 -0.0345  0.4912 -0.1093
16315TIP3    H170360   3.703   0.319  14.559 -0.1915  0.7632 -0.7428
16315TIP3    H270361   3.827   0.314  14.472  0.4469  0.3146  0.1832
16316TIP3   OH270362   4.098   5.272  14.785  0.1759 -0.1679  0.4028
16316TIP3    H170363   4.054   5.234  14.708 -0.8162 -0.5596  1.1389
16316TIP3    H270364   4.190   5.251  14.772  0.0794  0.1359 -0.8883
16317TIP3   OH270365   1.638   3.198  13.937 -0.0679  0.2457  0.0297
16317TIP3    H170366   1.675   3.284  13.960  0.2127  0.2711 -0.5067
16317TIP3    H270367   1.682   3.137  13.997 -0.4019  0.4978  0.5370
16318TIP3   OH270368   3.256   6.211  17.082 -0.0230 -0.3923  0.1572
16318TIP3    H170369   3.175   6.221  17.032  1.4564 -3.1029 -3.1678
16318TIP3    H270370   3.249   6.123  17.119  1.1978 -0.4468  0.2698
16319TIP3   OH270371   4.839   4.334  11.683 -0.4669  0.1058  0.1637
16319TIP3    H170372   4.779   4.400  11.717  0.2271  1.3573 -0.9568
16319TIP3    H270373   4.809   4.320  11.592  1.2589  1.1966 -0.6151
16320TIP3   OH270374   3.576   3.479  12.771  0.4055  0.9109  0.2169
16320TIP3    H170375   3.672   3.472  12.769  0.4623 -0.4147  2.9254
16320TIP3    H270376   3.559   3.573  12.760  1.9120  1.0563 -1.3510
16321TIP3   OH270377   2.923   3.065   1.757 -0.1780  0.0770  0.6541
16321TIP3    H170378   2.938   2.989   1.700 -1.5375 -0.0962  0.4967
16321TIP3    H270379   2.926   3.029   1.845  1.8657  0.3339  0.7525
16322TIP3   OH270380   2.981   1.766   4.318 -0.1637 -0.5150  0.1727
16322TIP3    H170381   2.935   1.684   4.333 -0.8358 -0.2305 -0.2715
16322TIP3    H270382   3.047   1.745   4.251 -2.9246  0.1148 -2.9891
16323TIP3   OH270383   1.730   5.567  16.065  0.2091 -0.3600  0.1100
16323TIP3    H170384   1.725   5.472  16.082 -2.8919 -0.3246  0.0186
16323TIP3    H270385   1.680   5.579  15.985  1.8811  1.2536 -0.7543
16324TIP3   OH270386   2.430   1.696  11.386 -0.5582 -0.2330  0.3715
16324TIP3    H170387   2.359   1.747  11.423 -1.3916 -1.3139  0.3082
16324TIP3    H270388   2.389   1.644  11.317 -0.2613 -2.8256  2.0354
16325TIP3   OH270389   5.035   3.405  14.543  0.0376  0.4046 -0.4286
16325TIP3    H170390   4.969   3.465  14.508  0.6616  0.2960 -1.8834
16325TIP3    H270391   5.052   3.344  14.471  1.3996  0.1709  0.0609
16326TIP3   OH270392   2.096   1.688   1.170 -0.3399  0.2326 -0.7343
16326TIP3    H170393   2.113   1.782   1.164 -0.2840  0.2879  0.1937
16326TIP3    H270394   2.013   1.676   1.123  0.3954  0.5031 -2.1590
16327TIP3   OH270395   5.133   3.608   4.159 -0.4402  0.1093  0.4964
16327TIP3    H170396   5.121   3.568   4.073  0.2786  0.4538  0.2271
16327TIP3    H270397   5.212   3.662   4.150 -0.3077  0.0851  1.3908
16328TIP3   OH270398   6.329   3.751   2.697 -0.1023  0.3908 -0.1797
16328TIP3    H170399   6.399   3.690   2.675 -0.1706  0.8672 -1.8471
16328TIP3    H270400   6.372   3.837   2.695 -0.8715  0.7760 -2.1178
16329TIP3   OH270401   4.846   2.673  13.248 -0.0031 -0.3666  0.2751
16329TIP3    H170402   4.808   2.691  13.163 -0.7806 -1.4278  0.3813
16329TIP3    H270403   4.783   2.707  13.311  0.1848 -0.3107  0.4373
16330TIP3   OH270404   4.785   1.991  14.789  0.2427 -0.6173  0.1589
16330TIP3    H170405   4.758   1.903  14.816 -0.6948 -0.2008  0.6135
16330TIP3    H270406   4.722   2.015  14.721 -0.6112  0.3835  1.2596
16331TIP3   OH270407   2.597   6.147  16.229  0.6129  0.0406  0.4280
16331TIP3    H170408   2.668   6.189  16.278  0.7250 -0.8848  1.0868
16331TIP3    H270409   2.526   6.137  16.292  0.6443 -0.8717  0.3404
16332TIP3   OH270410   4.331   1.191  11.482  0.1279  0.0710 -0.1088
16332TIP3    H170411   4.419   1.177  11.446 -0.0295  1.1232 -0.9759
16332TIP3    H270412   4.273   1.160  11.413 -0.2018 -0.9926  0.6252
16333TIP3   OH270413   5.428   5.689  12.166 -0.3408  0.3976  0.3962
16333TIP3    H170414   5.470   5.616  12.211  0.2945  1.5371  1.7816
16333TIP3    H270415   5.335   5.666  12.164 -0.1341 -0.5044  0.6633
16334TIP3   OH270416   1.293   2.329   4.706  0.1988  0.0823 -0.2143
16334TIP3    H170417   1.256   2.302   4.622 -1.5123 -0.6999  0.7210
16334TIP3    H270418   1.382   2.293   4.707  0.0190 -0.4157 -1.4240
16335TIP3   OH270419   2.535   4.184  15.805 -0.2355 -0.2691  0.0315
16335TIP3    H170420   2.473   4.135  15.859  0.3587 -0.8012  0.2314
16335TIP3    H270421   2.613   4.193  15.859 -0.2907  0.8185 -0.0370
16336TIP3   OH270422   0.826   1.500  10.931 -0.1489  0.1954  0.3177
16336TIP3    H170423   0.799   1.591  10.926 -0.2217  0.1822  0.4564
16336TIP3    H270424   0.888   1.489  10.858 -0.4669  0.2394  0.0419
16337TIP3   OH270425   4.029   2.894  12.674 -0.2402  0.0446  0.7723
16337TIP3    H170426   4.047   2.819  12.617 -1.7476 -0.1709  0.5240
16337TIP3    H270427   4.113   2.915  12.713  0.7171 -0.1804 -1.0691
16338TIP3   OH270428   0.158   6.314  17.028 -0.2421  0.1471  0.1311
16338TIP3    H170429   0.082   6.342  17.079  0.5315  0.8255  0.9292
16338TIP3    H270430   0.128   6.235  16.983 -1.5715  0.6650  0.0570
16339TIP3   OH270431   6.073   3.952   1.526 -0.4398 -0.5873  0.1752
16339TIP3    H170432   6.088   4.042   1.556  2.0160 -0.8698 -0.0127
16339TIP3    H270433   6.058   3.960   1.432 -0.0859 -0.4000  0.1353
16340TIP3   OH270434   2.069   5.621   0.267  0.4449 -0.6721  0.1709
16340TIP3    H170435   2.024   5.583   0.192 -0.2674  1.4360 -0.5126
16340TIP3    H270436   2.094   5.709   0.240  1.4275 -0.3427  1.9317
16341TIP3   OH270437   3.580   3.439   2.465  0.3147  0.1343  0.1614
16341TIP3    H170438   3.669   3.409   2.480  1.1026  0.9760 -2.3574
16341TIP3    H270439   3.549   3.387   2.391 -0.1909  1.8021 -0.8647
16342TIP3   OH270440   2.625   6.160  15.963 -0.3371 -0.4245 -0.5658
16342TIP3    H170441   2.605   6.183  16.054  1.2889 -0.1998 -0.2314
16342TIP3    H270442   2.636   6.245  15.919  1.4716 -0.5013 -0.3265
16343TIP3   OH270443   3.265   0.701   6.361  0.3691  0.0741  0.7466
16343TIP3    H170444   3.350   0.659   6.352 -0.5511 -1.5208 -2.2996
16343TIP3    H270445   3.205   0.629   6.384 -0.6287  0.4288 -0.5873
16344TIP3   OH270446   0.650   0.658  17.141  0.0051 -0.3087  0.4490
16344TIP3    H170447   0.651   0.737  17.195 -1.0040  0.9345 -1.2727
16344TIP3    H270448   0.718   0.602  17.180 -1.0596  0.2273  3.3460
16345TIP3   OH270449   6.369   4.422  16.145 -0.3830  0.2032 -0.0522
16345TIP3    H170450   6.364   4.399  16.238  0.4456  2.6431  0.6585
16345TIP3    H270451   6.409   4.345  16.104  0.4265 -0.4481  1.8352
16346TIP3   OH270452   5.794   1.469  11.611  0.5205  0.5333 -0.4427
16346TIP3    H170453   5.807   1.456  11.517  0.5746 -0.9359 -0.2601
16346TIP3    H270454   5.861   1.534  11.636  2.0491 -0.7466 -1.0181
16347TIP3   OH270455   0.590   1.009  15.193  0.2416  0.5986  0.4291
16347TIP3    H170456   0.682   0.983  15.187  0.2294  0.5370  0.5021
16347TIP3    H270457   0.544   0.944  15.138  0.5828  2.5010 -2.3039
16348TIP3   OH270458   3.951   2.044  14.091 -0.1226  0.4134  0.4158
16348TIP3    H170459   3.901   2.028  14.012 -0.9466 -0.0555  1.0148
16348TIP3    H270460   3.908   1.991  14.158  1.0014  0.2366  1.0138
16349TIP3   OH270461   1.513   5.999   5.334  0.7186 -0.4583  0.3725
16349TIP3    H170462   1.483   6.088   5.352  0.4933 -0.2825 -0.7898
16349TIP3    H270463   1.457   5.943   5.387 -1.1247 -0.0837 -1.0664
16350TIP3   OH270464   1.158   5.251   5.231  0.0145  0.1764 -0.1071
16350TIP3    H170465   1.155   5.202   5.313  0.1328  0.4088  0.0395
16350TIP3    H270466   1.210   5.197   5.172 -0.4700 -0.2115 -0.1801
16351TIP3   OH270467   6.444   2.411  13.079 -0.8046  0.0649  0.1312
16351TIP3    H170468   6.416   2.500  13.101  0.9757  0.7485 -0.1564
16351TIP3    H270469   6.460   2.414  12.985 -1.6371 -0.8437 -0.0518
16352TIP3   OH270470   1.451   1.930   5.393  0.4434 -0.4187 -0.0495
16352TIP3    H170471   1.487   1.951   5.307  0.9620  1.6737  0.6207
16352TIP3    H270472   1.374   1.986   5.401  0.1375 -0.9312  0.6661
16353TIP3   OH270473   3.339   1.149   1.306  0.0399  0.2028  0.4202
16353TIP3    H170474   3.267   1.107   1.352 -1.1893  0.6331 -1.0315
16353TIP3    H270475   3.370   1.216   1.367  0.2922 -1.0256  1.6935
16354TIP3   OH270476   0.931   4.704  13.240 -0.0463  0.3923  0.3683
16354TIP3    H170477   0.995   4.707  13.311  0.4389  1.4476 -0.0886
16354TIP3    H270478   0.851   4.741  13.278  0.4289  1.6736  0.1793
16355TIP3   OH270479   1.502   0.487  12.219  0.0790  0.6129 -1.1237
16355TIP3    H170480   1.468   0.444  12.141  0.0000 -0.9905 -0.2541
16355TIP3    H270481   1.435   0.472  12.286  1.0627  0.1305 -0.2070
16356TIP3   OH270482   3.931   4.252   6.581  0.6259 -0.2287  0.0423
16356TIP3    H170483   3.879   4.184   6.538  0.9415 -1.0491  0.9415
16356TIP3    H270484   3.964   4.211   6.661  1.6570  0.6625  0.0980
16357TIP3   OH270485   0.605   1.309   5.307 -0.0072  0.1167 -0.0957
16357TIP3    H170486   0.620   1.403   5.307  0.6496  0.0197 -0.3405
16357TIP3    H270487   0.531   1.296   5.367 -1.0775  0.9269 -1.1839
16358TIP3   OH270488   5.227   6.025  12.156  0.0115  0.3004  0.1709
16358TIP3    H170489   5.154   5.963  12.165  0.6774 -0.4286  0.7259
16358TIP3    H270490   5.207   6.074  12.076 -0.8412 -0.2210  0.0505
16359TIP3   OH270491   3.452   5.055   0.324 -0.2018 -0.3230  0.4632
16359TIP3    H170492   3.533   5.029   0.366 -1.7063 -2.1877  2.4163
16359TIP3    H270493   3.395   5.084   0.395 -1.5494  0.1562 -0.7427
16360TIP3   OH270494   1.265   4.875   2.974 -0.1363 -0.3087  0.0114
16360TIP3    H170495   1.228   4.893   2.888  0.8704  0.7027 -0.2363
16360TIP3    H270496   1.268   4.961   3.017 -1.1547 -0.8672  1.2966
16361TIP3   OH270497   5.023   3.922   4.369  0.4258  0.2766 -0.3340
16361TIP3    H170498   5.028   3.951   4.278  0.1979 -1.6147 -1.0119
16361TIP3    H270499   5.076   3.984   4.418  1.9396  0.3976 -2.0261
16362TIP3   OH270500   2.590   2.613   1.378 -0.1621 -0.4627 -0.0117
16362TIP3    H170501   2.512   2.582   1.333 -1.2830  2.7229 -0.5391
16362TIP3    H270502   2.557   2.668   1.449  1.6322 -1.2148  1.5019
16363TIP3   OH270503   0.756   3.765  14.154 -0.2304 -0.6507 -0.2425
16363TIP3    H170504   0.842   3.793  14.124  1.1837 -1.2330  2.9154
16363TIP3    H270505   0.694   3.812  14.098  2.0723 -0.4090 -2.7773
16364TIP3   OH270506   5.417   1.998  16.609  0.3089  0.4877 -0.4996
16364TIP3    H170507   5.461   1.915  16.628  1.4079  0.6967 -1.9363
16364TIP3    H270508   5.332   1.991  16.652  0.2787 -1.4888 -0.8116
16365TIP3   OH270509   2.101   3.748   5.713  0.3127 -0.0600  0.5638
16365TIP3    H170510   2.026   3.727   5.657 -0.5648  0.1312  1.6161
16365TIP3    H270511   2.080   3.708   5.797  1.7982 -0.7091  0.6545
16366TIP3   OH270512   0.722   0.160   3.050  0.2677  1.0973 -0.4452
16366TIP3    H170513   0.635   0.121   3.049  0.5143  0.4889 -2.0044
16366TIP3    H270514   0.711   0.247   3.012  0.0940  1.7046  0.9266
16367TIP3   OH270515   6.450   5.733  12.588  0.2166 -0.8112 -0.1598
16367TIP3    H170516   6.438   5.757  12.680 -2.3801 -1.7358 -0.1868
16367TIP3    H270517   6.475   5.815  12.545 -1.2624  0.2544  0.9325
16368TIP3   OH270518   4.309   0.524   1.237 -0.1499  0.0702 -0.1049
16368TIP3    H170519   4.392   0.495   1.274  0.1870  0.8217 -0.2469
16368TIP3    H270520   4.319   0.510   1.143 -1.1031 -2.0856  0.0549
16369TIP3   OH270521   5.795   3.797  15.385 -0.4946 -0.3570  0.0289
16369TIP3    H170522   5.794   3.891  15.401 -1.1051 -0.4050  0.2844
16369TIP3    H270523   5.703   3.770  15.390 -0.2887 -1.0304  0.3349
16370TIP3   OH270524   1.327   0.979  12.509 -0.2557  0.1198  0.3046
16370TIP3    H170525   1.311   1.060  12.460 -0.7059 -0.0661  0.1379
16370TIP3    H270526   1.398   0.936  12.461  0.6946  0.9071  0.9954
16371TIP3   OH270527   4.470   1.290   2.431  0.2591  0.3992  0.0812
16371TIP3    H170528   4.528   1.341   2.375  1.1180 -0.6664 -0.0366
16371TIP3    H270529   4.422   1.233   2.371 -0.5827  0.9314  0.2240
16372TIP3   OH270530   5.116   5.735   5.573 -0.3965 -0.3950 -0.1113
16372TIP3    H170531   5.141   5.810   5.520 -0.4481 -0.6976 -0.5743
16372TIP3    H270532   5.106   5.769   5.662 -0.5168  0.1589 -0.3383
16373TIP3   OH270533   1.426   3.275  13.238  0.7059 -0.8261  0.0572
16373TIP3    H170534   1.387   3.222  13.309 -0.6966  0.7097  0.4944
16373TIP3    H270535   1.445   3.211  13.169 -3.7168 -1.6855 -0.6963
16374TIP3   OH270536   1.997   5.420   3.950 -0.4245 -0.3737 -0.3275
16374TIP3    H170537   1.980   5.421   3.856  0.5803  3.0524 -0.5989
16374TIP3    H270538   2.052   5.496   3.966  0.5516 -1.5720  2.8958
16375TIP3   OH270539   5.215   4.452   0.335  0.1879 -0.2188 -0.1269
16375TIP3    H170540   5.146   4.396   0.370  0.1231 -0.2184 -0.2507
16375TIP3    H270541   5.169   4.533   0.310  0.4254  0.2447  0.8848
16376TIP3   OH270542   4.840   0.770  16.383 -0.1095 -0.0448  0.0024
16376TIP3    H170543   4.852   0.760  16.289  1.1231  1.1668  0.0063
16376TIP3    H270544   4.756   0.728  16.401 -0.5121 -0.0233 -1.6824
16377TIP3   OH270545   3.010   3.329   2.900 -0.4379  0.5451  0.5113
16377TIP3    H170546   2.928   3.375   2.912  0.3433  1.9434  0.6509
16377TIP3    H270547   3.036   3.303   2.989  0.2893  1.9620  0.7454
16378TIP3   OH270548   5.816   4.781  14.127 -1.0670  0.2343 -0.0447
16378TIP3    H170549   5.797   4.704  14.072 -1.2855  2.3823 -3.2724
16378TIP3    H270550   5.907   4.803  14.105 -1.1049  1.0838  0.6242
16379TIP3   OH270551   0.521   0.208   6.446  0.6951 -0.5097 -0.6937
16379TIP3    H170552   0.546   0.299   6.429 -1.1343  0.0878 -0.4614
16379TIP3    H270553   0.439   0.215   6.495  1.1273 -2.2924  0.3642
16380TIP3   OH270554   0.676   3.059  14.130  0.0701 -0.1384  0.6685
16380TIP3    H170555   0.729   3.118  14.184  0.0178  0.6280 -0.0964
16380TIP3    H270556   0.654   3.111  14.053 -0.2040 -1.0789  0.0988
16381TIP3   OH270557   0.455   5.657  14.241 -0.0367 -0.0241 -0.1672
16381TIP3    H170558   0.478   5.564  14.236 -0.4354 -0.3439  2.4403
16381TIP3    H270559   0.361   5.660  14.223  0.0008 -0.1103 -0.3759
16382TIP3   OH270560   5.114   0.899   1.110  0.4903  0.3735  0.0759
16382TIP3    H170561   5.104   0.843   1.033  2.1512  1.6439 -1.1307
16382TIP3    H270562   5.203   0.883   1.141  0.9158  2.1013 -0.1430
16383TIP3   OH270563   2.280   3.667   0.452  0.8563  0.2611 -0.7006
16383TIP3    H170564   2.188   3.647   0.438  1.3248 -2.9534 -0.0692
16383TIP3    H270565   2.283   3.710   0.537 -0.0650  0.4563 -0.7577
16384TIP3   OH270566   0.959   5.464   0.386  0.2310  0.0168 -0.1221
16384TIP3    H170567   0.984   5.402   0.317  0.3299 -0.6416  0.4858
16384TIP3    H270568   1.014   5.440   0.460 -1.9760 -1.3522  1.1995
16385TIP3   OH270569   3.646   5.667  10.953  0.0658  0.1575  0.3420
16385TIP3    H170570   3.698   5.601  10.998 -0.9169  0.4725  2.0007
16385TIP3    H270571   3.711   5.725  10.912  1.0303  0.1166  1.7422
16386TIP3   OH270572   1.565   1.043  14.976  0.2617 -0.5329  0.5441
16386TIP3    H170573   1.551   0.977  14.908  0.0516 -0.5405  0.5932
16386TIP3    H270574   1.493   1.105  14.964 -0.1804 -0.9096  1.2025
16387TIP3   OH270575   6.447   2.071   4.089  0.2168 -0.9656 -0.1008
16387TIP3    H170576   6.370   2.115   4.053  1.9351  1.6974 -0.7443
16387TIP3    H270577   6.469   2.004   4.025 -0.2352 -0.2142 -1.0665
16388TIP3   OH270578   2.499   1.254  13.263 -0.5760 -0.3405 -0.1148
16388TIP3    H170579   2.524   1.342  13.233  3.2454 -0.8105  1.1978
16388TIP3    H270580   2.463   1.269  13.351  1.2419 -0.1189  0.6313
16389TIP3   OH270581   5.458   0.817  12.646  0.3799  0.7476 -0.0778
16389TIP3    H170582   5.388   0.832  12.709  0.0471 -1.0678  0.0353
16389TIP3    H270583   5.536   0.799  12.699  0.7828  1.9880 -0.2079
16390TIP3   OH270584   5.296   3.884   5.378  0.0456  0.3930 -0.5769
16390TIP3    H170585   5.270   3.924   5.461  0.8581  1.0101 -0.6126
16390TIP3    H270586   5.284   3.954   5.314 -0.1478  0.0529 -0.9088
16391TIP3   OH270587   0.018   2.774   5.530 -0.1535  0.4227 -0.1262
16391TIP3    H170588   0.051   2.688   5.554 -2.2887 -0.3855  0.1959
16391TIP3    H270589  -0.022   2.808   5.611  1.9159  2.4125  0.1645
16392TIP3   OH270590   4.449   1.700  12.372 -0.8301 -0.4412  0.3890
16392TIP3    H170591   4.511   1.666  12.437  0.6956 -0.7653 -1.1392
16392TIP3    H270592   4.500   1.764  12.321 -2.8520  2.1463  1.4056
16393TIP3   OH270593   1.701   6.747  10.993 -0.0592  0.8954  0.2589
16393TIP3    H170594   1.690   6.714  10.904 -1.3627 -0.8824  1.0243
16393TIP3    H270595   1.662   6.835  10.991  2.0501  1.8896 -1.4272
16394TIP3   OH270596   1.441   3.922   4.414 -0.3093 -0.2584  0.3729
16394TIP3    H170597   1.459   3.904   4.506 -1.5008 -2.4175  0.2468
16394TIP3    H270598   1.346   3.920   4.407 -0.2400 -0.1773 -0.9223
16395TIP3   OH270599   2.777   4.206  12.795 -0.5833  0.4600  0.5097
16395TIP3    H170600   2.709   4.142  12.771 -0.2009  1.0853 -2.8229
16395TIP3    H270601   2.737   4.290  12.776  1.4594  0.8107 -3.2088
16396TIP3   OH270602   2.634   1.175   4.107 -0.3100 -0.2344 -0.1315
16396TIP3    H170603   2.711   1.232   4.103  0.1967 -0.8955 -0.0280
16396TIP3    H270604   2.659   1.097   4.057 -0.6610 -0.7353  0.4605
16397TIP3   OH270605   2.773   6.408  15.276 -0.2282  0.3040 -0.0855
16397TIP3    H170606   2.866   6.419  15.255 -0.1691  0.7235  0.3716
16397TIP3    H270607   2.738   6.497  15.277 -0.9339  0.0629 -1.5408
16398TIP3   OH270608   2.109   2.511  13.084 -0.4183 -0.1162  0.4776
16398TIP3    H170609   2.183   2.457  13.110  1.2007  1.6420 -0.1923
16398TIP3    H270610   2.124   2.594  13.130 -0.4147  1.2045 -1.7646
16399TIP3   OH270611   5.121   1.171  15.685 -0.5401  0.1279  0.1986
16399TIP3    H170612   5.154   1.222  15.759 -0.7241  0.4022  0.0944
16399TIP3    H270613   5.197   1.156  15.630 -0.3050 -0.4804  0.6715
16400TIP3   OH270614   4.088   3.386  16.805  0.1776  0.8720 -0.2721
16400TIP3    H170615   4.179   3.359  16.792  0.4354  1.5699  0.0145
16400TIP3    H270616   4.053   3.324  16.869 -0.1083 -0.5372 -1.7449
16401TIP3   OH270617   6.730   3.647   3.740  0.3862 -0.0569 -0.1537
16401TIP3    H170618   6.704   3.617   3.827  1.2177 -0.8075 -0.1507
16401TIP3    H270619   6.659   3.705   3.712 -0.8787 -1.4106  0.1602
16402TIP3   OH270620   1.056   3.091  13.884  0.2372  0.0798  0.2941
16402TIP3    H170621   1.015   3.172  13.856  0.9404  0.6209  0.7813
16402TIP3    H270622   0.985   3.040  13.923 -0.2975  0.2625 -0.4265
16403TIP3   OH270623   3.096   4.885   5.680  0.2771  0.1794 -0.3912
16403TIP3    H170624   3.111   4.924   5.766 -1.3688  0.0848 -0.0392
16403TIP3    H270625   3.126   4.795   5.689  1.2801  0.5112 -0.3039
16404TIP3   OH270626   6.656   0.168   4.709  0.0147 -0.2747 -0.5163
16404TIP3    H170627   6.733   0.112   4.701  0.5858  0.3594  0.3417
16404TIP3    H270628   6.644   0.179   4.803 -1.3862 -0.7086 -0.6208
16405TIP3   OH270629   0.550   5.899  15.488  0.3611  0.0398 -0.1410
16405TIP3    H170630   0.561   5.912  15.394 -0.0404 -0.6776 -0.2934
16405TIP3    H270631   0.569   5.807  15.502 -0.9477 -0.1894  0.2616
16406TIP3   OH270632   6.459   5.362  11.893  0.2603 -0.0980  0.0367
16406TIP3    H170633   6.525   5.389  11.956 -0.3653  1.4456  0.0609
16406TIP3    H270634   6.492   5.393  11.809  0.9835 -1.9550 -0.4190
16407TIP3   OH270635   4.233   5.553   4.992  0.0745  0.5985  0.0605
16407TIP3    H170636   4.221   5.484   5.058 -1.5945 -0.6880 -1.4673
16407TIP3    H270637   4.271   5.507   4.917 -2.6415  0.8625 -1.6041
16408TIP3   OH270638   5.483   5.609   0.522  0.1634  0.5396  0.2345
16408TIP3    H170639   5.532   5.578   0.599 -1.1835 -0.8276  0.5942
16408TIP3    H270640   5.514   5.554   0.450 -0.8518 -0.4067  0.4850
16409TIP3   OH270641   0.805   3.059   0.779  0.0895 -0.3915  0.3371
16409TIP3    H170642   0.756   3.123   0.727  0.6882  0.0177  0.2630
16409TIP3    H270643   0.879   3.109   0.814  0.1169 -0.8535  0.9425
16410TIP3   OH270644   3.649   2.548   5.625  0.1441  1.2890 -0.0753
16410TIP3    H170645   3.665   2.494   5.702 -1.4384  2.7315  1.3718
16410TIP3    H270646   3.647   2.487   5.552  0.1296 -0.3526  1.2448
16411TIP3   OH270647   2.214   6.315  15.435  0.1232 -0.1209 -0.1551
16411TIP3    H170648   2.310   6.312  15.435  0.1523 -1.3390  2.1448
16411TIP3    H270649   2.193   6.408  15.429  1.5282  0.3302  1.2141
16412TIP3   OH270650   2.576   2.586  12.969  0.1134  0.7029 -0.2506
16412TIP3    H170651   2.598   2.547  13.054  1.1553  1.7691 -0.0040
16412TIP3    H270652   2.603   2.521  12.904  2.1076  1.0800  0.1364
16413TIP3   OH270653   3.627   4.504  12.627  0.1664  0.0583 -0.3288
16413TIP3    H170654   3.694   4.444  12.659 -0.4423 -1.8010 -2.2611
16413TIP3    H270655   3.544   4.459  12.645 -0.3522  0.6705 -1.0997
16414TIP3   OH270656   5.120   0.422   5.288  0.2028  0.4859 -0.2103
16414TIP3    H170657   5.113   0.488   5.219 -0.4878  1.0708  0.4040
16414TIP3    H270658   5.185   0.360   5.255 -0.2158  0.6662 -1.4589
16415TIP3   OH270659   3.253   1.934  10.621 -0.3936  0.0508 -0.1564
16415TIP3    H170660   3.188   1.886  10.672 -0.7047  2.6205  2.0447
16415TIP3    H270661   3.235   2.026  10.638  0.5239  1.0541 -3.7322
16416TIP3   OH270662   4.905   6.011   2.899  0.6703 -0.1585 -0.0341
16416TIP3    H170663   4.896   6.097   2.858 -0.1401  0.3092  1.0542
16416TIP3    H270664   4.968   5.964   2.844 -2.1661 -0.5148 -3.3055
16417TIP3   OH270665   5.565   3.444  16.149  0.5902 -0.4576 -0.4239
16417TIP3    H170666   5.512   3.499  16.092  1.1911 -0.6619 -1.1925
16417TIP3    H270667   5.654   3.449  16.113  0.7610 -1.4821 -0.1993
16418TIP3   OH270668   3.959   3.013  14.289  0.4237 -0.5435 -0.4830
16418TIP3    H170669   4.044   2.997  14.331  1.3237 -0.5549 -2.1944
16418TIP3    H270670   3.963   2.963  14.208 -1.5401 -1.1128 -0.2852
16419TIP3   OH270671   5.150   4.489   3.156 -0.2087  0.1158 -1.0837
16419TIP3    H170672   5.093   4.546   3.105 -0.5398  1.0585  0.2792
16419TIP3    H270673   5.199   4.548   3.213 -0.0355 -0.9003 -0.1290
16420TIP3   OH270674   1.250   1.959  15.487  0.3593  0.0931  0.0771
16420TIP3    H170675   1.312   1.927  15.422  1.1694 -0.5610  1.1399
16420TIP3    H270676   1.270   2.052  15.496  0.7912  0.0062 -0.0018
16421TIP3   OH270677   3.532   1.170  13.329  0.4784 -0.2022 -0.1783
16421TIP3    H170678   3.518   1.208  13.242  3.0361  0.8558 -0.2227
16421TIP3    H270679   3.557   1.079  13.311  0.0023 -0.2826 -0.4612
16422TIP3   OH270680   5.949   0.007   3.365  0.1823  0.0716 -0.0426
16422TIP3    H170681   5.899   0.031   3.442  0.2162 -2.4017  0.8346
16422TIP3    H270682   5.985  -0.079   3.385  2.0248  0.2934 -1.9657
16423TIP3   OH270683   3.562   3.753  11.205 -0.3658 -0.0399  0.3794
16423TIP3    H170684   3.514   3.691  11.150  0.4030  0.1145 -0.4846
16423TIP3    H270685   3.498   3.822  11.223 -0.7684 -0.3237  0.0601
16424TIP3   OH270686   2.007   3.057   0.336 -0.1919 -0.7860  0.1126
16424TIP3    H170687   1.931   3.001   0.318 -1.3551 -0.0290  2.3970
16424TIP3    H270688   1.982   3.143   0.303  0.5853 -0.9801 -1.0703
16425TIP3   OH270689   6.462   1.722  13.906  0.7112  0.7472 -0.3246
16425TIP3    H170690   6.436   1.810  13.877  0.0547  0.5546 -0.3338
16425TIP3    H270691   6.408   1.705  13.983  1.2206  0.5615 -0.0015
16426TIP3   OH270692   6.491   6.303  11.716 -0.2483 -0.1651  0.8664
16426TIP3    H170693   6.406   6.327  11.679  0.5027 -1.5504 -1.9602
16426TIP3    H270694   6.470   6.235  11.781 -1.3501  0.0089  0.7106
16427TIP3   OH270695   5.472   4.324  13.844  0.2679 -0.3463  0.1672
16427TIP3    H170696   5.564   4.345  13.832  0.0032  0.6871 -0.2053
16427TIP3    H270697   5.469   4.229  13.856  1.0750 -0.8317 -2.7924
16428TIP3   OH270698   6.636   3.480   6.897 -0.2466  0.6398  0.7448
16428TIP3    H170699   6.673   3.398   6.930 -0.4346 -0.0253 -0.6233
16428TIP3    H270700   6.625   3.465   6.803 -1.2921  1.8585  0.6520
16429TIP3   OH270701   2.044   2.782   5.511 -0.2561  0.0562 -0.2813
16429TIP3    H170702   1.963   2.773   5.562 -0.9241  1.1823 -1.0699
16429TIP3    H270703   2.060   2.877   5.510 -0.1111  0.0347 -1.8899
16430TIP3   OH270704   0.574   2.462   2.673  0.1886 -0.1043 -0.5586
16430TIP3    H170705   0.559   2.461   2.579  2.3520 -1.1231 -0.9569
16430TIP3    H270706   0.570   2.370   2.699 -0.8576  0.2033  0.4640
16431TIP3   OH270707   1.601   6.407  11.235 -0.5187 -0.6828 -0.0345
16431TIP3    H170708   1.677   6.407  11.294 -2.0626  1.0770  2.1012
16431TIP3    H270709   1.585   6.500  11.217 -0.7305 -1.1236 -2.4927
16432TIP3   OH270710   3.514   0.072   1.858  0.4163  0.2130 -0.6435
16432TIP3    H170711   3.453   0.009   1.821 -2.4152  1.6711  1.1521
16432TIP3    H270712   3.550   0.119   1.782 -2.6198  0.8990 -1.8147
16433TIP3   OH270713   2.898   4.098  11.873 -0.1597 -0.1089  0.0009
16433TIP3    H170714   2.922   4.122  11.783  0.7071  0.1853  0.3056
16433TIP3    H270715   2.820   4.042  11.862  0.4744 -0.8380 -0.9982
16434TIP3   OH270716   2.605   0.774  15.262 -0.3525 -0.2091 -0.2653
16434TIP3    H170717   2.680   0.832  15.274 -1.3201  0.9706  0.2283
16434TIP3    H270718   2.631   0.716  15.191  1.1865 -0.1089  0.1710
16435TIP3   OH270719   0.193   2.407   5.395  0.4483  0.6716  0.2332
16435TIP3    H170720   0.277   2.451   5.388  0.8823 -0.1638  0.0521
16435TIP3    H270721   0.148   2.452   5.466  0.5220  1.9583 -0.5060
16436TIP3   OH270722   0.378   4.651  12.205  0.5076  0.3536  0.3339
16436TIP3    H170723   0.352   4.740  12.181 -0.3874  0.2350  0.7981
16436TIP3    H270724   0.301   4.615  12.250  0.4688 -1.0155 -0.7673
16437TIP3   OH270725   5.840   3.786  16.126  0.4834 -0.0612 -0.3735
16437TIP3    H170726   5.802   3.765  16.211  1.7956  1.1053  0.5409
16437TIP3    H270727   5.850   3.701  16.082 -0.8005 -0.6123  0.3501
16438TIP3   OH270728   4.368   3.068  12.590  0.5526  0.0431 -0.0748
16438TIP3    H170729   4.312   3.063  12.667 -0.1735  3.8869 -0.1499
16438TIP3    H270730   4.451   3.103  12.623 -0.1490  2.8876 -0.9988
16439TIP3   OH270731   2.524   5.928  16.620 -0.4101  0.5673  0.1360
16439TIP3    H170732   2.605   5.978  16.615  0.2044 -0.4829 -1.7719
16439TIP3    H270733   2.553   5.837  16.630 -1.3725  0.2506  0.1429
16440TIP3   OH270734   3.363   4.501   0.806  0.1105 -0.3848  0.0892
16440TIP3    H170735   3.371   4.589   0.770  1.0216 -0.0600  1.0357
16440TIP3    H270736   3.343   4.446   0.730  0.4521  0.4966 -0.6601
16441TIP3   OH270737   4.738   3.417  13.683 -0.7375 -0.0961  0.1024
16441TIP3    H170738   4.758   3.433  13.591 -0.5071 -0.3474  0.1078
16441TIP3    H270739   4.782   3.489  13.729 -0.0877 -0.4759  0.0878
16442TIP3   OH270740   6.202   6.451   0.108 -0.4836  0.1239  0.3693
16442TIP3    H170741   6.233   6.375   0.059  0.5791  0.5193  0.4060
16442TIP3    H270742   6.235   6.526   0.059  0.0291  0.5287  1.3085
16443TIP3   OH270743   6.569   1.390   5.657 -0.2591 -0.0611  0.1715
16443TIP3    H170744   6.518   1.439   5.593 -0.5386  0.1717  0.5630
16443TIP3    H270745   6.503   1.351   5.715 -0.0010  0.0509  0.5435
16444TIP3   OH270746   3.483   0.432   6.378  0.6458  0.2155  0.2781
16444TIP3    H170747   3.505   0.342   6.401  2.7774  0.4895 -0.4204
16444TIP3    H270748   3.551   0.457   6.315 -0.9652  1.7249 -0.9341
16445TIP3   OH270749   2.061   5.584  15.267  0.4796 -0.4418 -0.3940
16445TIP3    H170750   2.121   5.652  15.300 -1.2619  0.4424  1.1735
16445TIP3    H270751   1.987   5.633  15.231  0.7698 -1.4972 -2.5988
16446TIP3   OH270752   2.978   3.531   6.400  0.0733 -0.0056 -0.3353
16446TIP3    H170753   3.044   3.569   6.457  0.1258  0.1732 -0.5112
16446TIP3    H270754   3.027   3.490   6.329 -0.0181  1.0023 -1.0063
16447TIP3   OH270755   2.162   3.667   4.422 -0.0939 -0.0434 -0.3457
16447TIP3    H170756   2.146   3.760   4.402 -0.0512  0.5492  2.1295
16447TIP3    H270757   2.075   3.629   4.431 -0.1367  0.2407  0.5675
16448TIP3   OH270758   1.569   0.366   0.386  0.1560 -0.0351 -0.2911
16448TIP3    H170759   1.660   0.342   0.406  0.6286  1.3223 -0.6880
16448TIP3    H270760   1.564   0.459   0.409 -0.5101  0.4787 -2.3021
16449TIP3   OH270761   3.144   4.540  13.268 -0.2380 -0.9257  0.0352
16449TIP3    H170762   3.051   4.520  13.256 -0.0598 -1.9475  0.1829
16449TIP3    H270763   3.165   4.501  13.353 -0.3044  1.7086  1.3448
16450TIP3   OH270764   3.059   6.518   4.569 -0.0112  0.1240 -0.2439
16450TIP3    H170765   2.976   6.469   4.567 -0.1125  0.2406  0.6098
16450TIP3    H270766   3.036   6.602   4.609  0.5529  0.0871  0.1658
16451TIP3   OH270767   4.263   3.729   2.231  0.1008  0.0826 -0.0798
16451TIP3    H170768   4.321   3.715   2.306 -0.4924 -0.0885  0.3626
16451TIP3    H270769   4.220   3.812   2.250 -0.5981 -0.3202  0.1519
16452TIP3   OH270770   1.019   1.154  14.651 -0.1619 -0.0819 -0.0490
16452TIP3    H170771   1.094   1.162  14.592  2.6666 -1.8388  2.9231
16452TIP3    H270772   1.013   1.060  14.670 -2.4287  0.1488  0.7247
16453TIP3   OH270773   1.013   2.791  11.119  0.4189 -0.1378  0.0690
16453TIP3    H170774   0.940   2.735  11.147 -0.4118  0.9313  0.0967
16453TIP3    H270775   1.031   2.763  11.030  1.6139 -2.0650  0.8474
16454TIP3   OH270776   6.588   2.718  11.539  0.3807 -0.8217  0.3152
16454TIP3    H170777   6.645   2.794  11.534  0.8956 -1.2559 -0.7587
16454TIP3    H270778   6.512   2.748  11.589  0.4026  0.5128 -0.4000
16455TIP3   OH270779   0.726   3.113   1.396 -0.3790 -0.2980 -0.0349
16455TIP3    H170780   0.644   3.113   1.445 -1.9187 -1.8969 -2.3596
16455TIP3    H270781   0.783   3.053   1.444 -2.0623 -2.3252 -0.4167
16456TIP3   OH270782   5.326   5.480  16.671  0.0394 -0.4086  0.6724
16456TIP3    H170783   5.391   5.432  16.721  0.9627  0.7564  0.6274
16456TIP3    H270784   5.375   5.518  16.598 -1.0455 -1.0336 -0.4241
16457TIP3   OH270785   1.399   4.660  15.833 -0.1215 -0.0117  0.5898
16457TIP3    H170786   1.480   4.610  15.843 -0.1997 -0.2883 -0.1127
16457TIP3    H270787   1.346   4.608  15.772 -0.3735  0.7279  0.1707
16458TIP3   OH270788   0.386   2.893  16.943 -0.2653 -0.1152  0.2260
16458TIP3    H170789   0.323   2.922  16.877 -1.1535 -1.4009  0.4602
16458TIP3    H270790   0.343   2.911  17.027 -0.1949 -0.7054  0.3936
16459TIP3   OH270791   2.564   3.866  14.419 -0.4576  0.0010  0.3299
16459TIP3    H170792   2.514   3.801  14.469  0.1561 -1.1846 -0.5529
16459TIP3    H270793   2.519   3.871  14.335  1.1111 -1.4620 -0.6749
16460TIP3   OH270794   3.561   6.566   2.023 -0.8677  0.6069 -0.1136
16460TIP3    H170795   3.632   6.600   1.968 -0.7708  3.9592  1.7987
16460TIP3    H270796   3.488   6.553   1.963  1.1265 -2.9844 -2.1606
16461TIP3   OH270797   6.577   1.416   6.108  0.2808  0.0730  0.2825
16461TIP3    H170798   6.633   1.400   6.184 -2.7339 -1.5518  2.3934
16461TIP3    H270799   6.562   1.511   6.108 -0.4202  0.0093  2.3891
16462TIP3   OH270800   5.482   6.251  16.655  0.1425 -0.1881  0.0536
16462TIP3    H170801   5.549   6.295  16.708 -0.9879  1.7365 -0.0131
16462TIP3    H270802   5.501   6.278  16.565 -0.3526 -0.0840 -0.0249
16463TIP3   OH270803   0.327   1.381   3.139 -0.3796 -0.0540 -0.7143
16463TIP3    H170804   0.419   1.378   3.165 -0.5547  0.2969  0.0006
16463TIP3    H270805   0.328   1.394   3.045  0.3024  0.1644 -0.6782
16464TIP3   OH270806   3.863   5.257  13.862 -0.4006 -0.2394  0.1947
16464TIP3    H170807   3.882   5.245  13.955  0.9543  1.2446  0.1391
16464TIP3    H270808   3.825   5.173  13.835 -1.1943 -0.5687  2.1548
16465TIP3   OH270809   6.174   3.578   5.292  0.4701  0.6849 -0.3405
16465TIP3    H170810   6.240   3.568   5.224  0.2610 -2.4007 -0.2339
16465TIP3    H270811   6.224   3.584   5.374  0.6732 -0.6274 -0.3527
16466TIP3   OH270812   4.323   5.619   1.843  0.1086 -0.1426 -0.3864
16466TIP3    H170813   4.409   5.650   1.814 -0.2564 -0.3992 -1.8651
16466TIP3    H270814   4.265   5.640   1.770 -1.3189  0.9826  1.0095
16467TIP3   OH270815   0.514   3.846  15.721 -0.1713  0.4417 -0.1088
16467TIP3    H170816   0.424   3.877  15.727 -0.2154  0.4114 -0.5910
16467TIP3    H270817   0.506   3.753  15.699 -0.0315  0.2685  0.5575
16468TIP3   OH270818   2.149   0.181   3.312  0.1399 -0.4064 -0.3645
16468TIP3    H170819   2.179   0.120   3.380 -0.5636  0.4250  0.7127
16468TIP3    H270820   2.230   0.213   3.272  0.7144  0.9101  1.7056
16469TIP3   OH270821   5.540   4.554  14.456  0.4268 -0.2695  0.1838
16469TIP3    H170822   5.553   4.647  14.442 -0.8714 -0.3733 -2.3516
16469TIP3    H270823   5.531   4.517  14.368  0.7252 -2.7649  1.1111
16470TIP3   OH270824   2.044   3.744  14.338  0.1876  0.0192 -0.1173
16470TIP3    H170825   2.128   3.701  14.320 -0.5399 -0.9060 -1.6073
16470TIP3    H270826   2.052   3.830  14.297  1.7505  1.5688  3.1047
16471TIP3   OH270827   2.966   6.563  14.492 -0.1822  0.4209 -0.1266
16471TIP3    H170828   3.018   6.623  14.439  0.3132  0.7341  0.7032
16471TIP3    H270829   2.933   6.616  14.564  1.2777 -0.5287  1.3144
16472TIP3   OH270830   4.565   5.870  11.747 -0.0464 -0.0544 -0.1502
16472TIP3    H170831   4.470   5.861  11.758  0.0874 -2.3326 -0.3767
16472TIP3    H270832   4.582   5.836  11.659  1.0911 -0.6372  0.2816
16473TIP3   OH270833   2.427   3.648   1.854  0.0882 -0.0547 -0.0617
16473TIP3    H170834   2.515   3.644   1.817  0.8226 -1.6949  1.6624
16473TIP3    H270835   2.379   3.578   1.809 -0.4746  1.0151 -1.1986
16474TIP3   OH270836   5.619   0.942  13.939 -0.4213 -0.3990 -1.1500
16474TIP3    H170837   5.653   0.861  13.977  0.9894  0.8266  0.3318
16474TIP3    H270838   5.524   0.933  13.946 -0.2799 -1.7358 -0.5958
16475TIP3   OH270839   0.635   3.759   1.533 -0.0438 -0.3490 -0.2821
16475TIP3    H170840   0.720   3.787   1.498 -0.2567 -0.1141 -0.6309
16475TIP3    H270841   0.600   3.700   1.466  0.5561 -1.7697  0.6137
16476TIP3   OH270842   2.775   3.311   4.231 -0.2168  0.1465 -0.4271
16476TIP3    H170843   2.835   3.374   4.270  0.0257 -0.2978 -0.0707
16476TIP3    H270844   2.832   3.243   4.195 -0.5110 -1.4375  1.8556
16477TIP3   OH270845   1.877   0.869  13.367 -0.0546 -0.1532  0.0811
16477TIP3    H170846   1.968   0.853  13.339 -0.2258 -1.0816  0.0109
16477TIP3    H270847   1.827   0.869  13.286 -0.3619 -1.4833  0.2472
16478TIP3   OH270848   2.310   4.724  14.178  0.1226  0.0779 -0.5577
16478TIP3    H170849   2.350   4.672  14.108  0.9895  0.0502 -0.0470
16478TIP3    H270850   2.379   4.784  14.206  0.1706 -0.6781  1.0482
16479TIP3   OH270851   2.614   3.219  16.168  0.0551 -0.3196  0.0038
16479TIP3    H170852   2.576   3.279  16.104  0.2141  0.3422  0.5272
16479TIP3    H270853   2.645   3.145  16.115  1.2952  0.7518 -0.8652
16480TIP3   OH270854   6.699   6.707   3.705 -0.1513  0.6289 -0.0316
16480TIP3    H170855   6.681   6.742   3.618  0.8430 -0.6968 -0.8127
16480TIP3    H270856   6.793   6.723   3.719 -0.5688  2.1002  1.4271
16481TIP3   OH270857   4.850   5.883  12.787 -0.1918  0.1228  0.2589
16481TIP3    H170858   4.789   5.831  12.735 -0.6554 -0.6850  1.5539
16481TIP3    H270859   4.823   5.868  12.878  1.0959  0.8307  0.7891
16482TIP3   OH270860   6.272   6.434   4.505  0.2244 -0.0590 -0.1840
16482TIP3    H170861   6.198   6.375   4.490  0.3262 -0.0733 -0.6370
16482TIP3    H270862   6.270   6.452   4.599 -1.2963  1.1639 -0.4061
16483TIP3   OH270863   3.831   5.889  16.261  0.6106  0.5564  0.2866
16483TIP3    H170864   3.767   5.833  16.218 -0.4251  2.1470 -0.3353
16483TIP3    H270865   3.782   5.933  16.331  0.8115  2.2572 -0.5734
16484TIP3   OH270866   0.966   2.278  13.787 -0.2001 -0.2040  0.0552
16484TIP3    H170867   0.960   2.189  13.752  0.8941  0.4401 -1.9697
16484TIP3    H270868   1.049   2.279  13.835 -1.3145 -0.8612  2.1092
16485TIP3   OH270869   4.622   0.222   4.421 -0.8039 -0.1651  0.0378
16485TIP3    H170870   4.604   0.182   4.336 -0.1963 -1.2832  0.4021
16485TIP3    H270871   4.561   0.295   4.428 -1.8720 -0.9560 -0.7309
16486TIP3   OH270872   0.753   1.972  15.032  0.3873  0.2407 -0.0959
16486TIP3    H170873   0.750   2.030  14.957  2.2043 -1.7339 -1.8458
16486TIP3    H270874   0.717   1.889  15.000 -2.4086  0.3431  2.3840
16487TIP3   OH270875   2.902   5.503  16.125 -0.3324  0.6111 -0.3827
16487TIP3    H170876   2.839   5.555  16.076 -0.4702  0.5205 -0.3027
16487TIP3    H270877   2.930   5.435  16.064  0.6163  1.3857 -0.8219
16488TIP3   OH270878   0.950   5.484   6.111 -0.1724  0.2497 -0.0649
16488TIP3    H170879   0.948   5.509   6.019  0.7527  0.4324 -0.0383
16488TIP3    H270880   1.008   5.548   6.153  0.2861 -0.4829  0.4413
16489TIP3   OH270881   0.360   2.862  14.468 -0.1297 -0.0321  0.2565
16489TIP3    H170882   0.306   2.799  14.421  0.2628 -0.1650 -0.0204
16489TIP3    H270883   0.379   2.930  14.404  1.2018 -0.6856 -0.0740
16490TIP3   OH270884   5.673   2.853  11.295  0.4111 -0.3144 -0.6478
16490TIP3    H170885   5.704   2.763  11.307  1.1300 -0.0902 -0.7761
16490TIP3    H270886   5.751   2.902  11.268 -0.0653  0.2603 -1.0105
16491TIP3   OH270887   1.457   1.252  15.268  0.7900  0.7516 -0.2903
16491TIP3    H170888   1.406   1.268  15.347  0.6987 -1.4525  0.1479
16491TIP3    H270889   1.494   1.338  15.245 -1.6482  2.0454  0.3703
16492TIP3   OH270890   1.716   6.728  16.641  0.3087  0.2929 -0.0789
16492TIP3    H170891   1.740   6.635  16.637 -3.0040 -0.8363  2.4554
16492TIP3    H270892   1.661   6.742  16.564 -1.3337 -0.6573  0.8647
16493TIP3   OH270893   1.369   1.481   0.127  0.5392 -0.1989 -0.3592
16493TIP3    H170894   1.365   1.389   0.103  2.3452 -0.3667 -0.1887
16493TIP3    H270895   1.460   1.506   0.110 -0.6035  2.4638 -3.6506
16494TIP3   OH270896   4.145   6.530  11.992 -0.5572  0.4095  0.2858
16494TIP3    H170897   4.095   6.457  11.955  0.2496 -0.0510  0.0552
16494TIP3    H270898   4.080   6.597  12.011 -1.3905 -0.5461  0.9290
16495TIP3   OH270899   1.718   1.697  11.484 -0.1454  0.0308 -0.3530
16495TIP3    H170900   1.752   1.610  11.503  0.4146  0.2237 -0.4521
16495TIP3    H270901   1.741   1.749  11.562  0.8181  0.4483 -0.8991
16496TIP3   OH270902   3.174   2.618  15.839 -0.3519 -0.8542 -0.4298
16496TIP3    H170903   3.166   2.695  15.784  1.7380 -0.7165 -0.6266
16496TIP3    H270904   3.230   2.646  15.912 -2.3829 -1.2535  1.4107
16497TIP3   OH270905   2.537   6.321   1.964  0.1120  0.5544 -0.6123
16497TIP3    H170906   2.615   6.275   1.932 -0.2035  0.1269 -0.7657
16497TIP3    H270907   2.521   6.283   2.051  0.6464  1.3310 -0.1596
16498TIP3   OH270908   6.506   1.803   4.554  0.0422 -0.1079 -0.0226
16498TIP3    H170909   6.437   1.858   4.518 -1.3457 -1.0814  1.0589
16498TIP3    H270910   6.560   1.780   4.478 -0.8816  0.5781 -0.9125
16499TIP3   OH270911   5.347   5.251  11.500 -0.0950  0.4465  0.5705
16499TIP3    H170912   5.397   5.171  11.485 -1.6371 -0.3111 -0.8944
16499TIP3    H270913   5.372   5.279  11.588  1.5693 -0.8256  0.5575
16500TIP3   OH270914   5.095   6.610  12.926 -0.2229 -0.6192 -0.6629
16500TIP3    H170915   5.080   6.698  12.960  1.4169 -0.0581 -1.3110
16500TIP3    H270916   5.057   6.611  12.839 -0.2945 -0.5935 -0.6314
16501TIP3   OH270917   0.231   2.532  14.559  0.6017  0.7993  0.4466
16501TIP3    H170918   0.271   2.514  14.644  1.7312  1.9085  0.1870
16501TIP3    H270919   0.306   2.549  14.501 -0.2282  3.2812  0.0022
16502TIP3   OH270920   5.952   2.465  15.402 -0.3095 -0.1615 -0.1519
16502TIP3    H170921   5.969   2.520  15.325  1.0144  0.7193  0.7296
16502TIP3    H270922   5.992   2.381  15.381 -1.4646 -0.5058 -1.1002
16503TIP3   OH270923   5.481   2.255  14.679 -0.0396 -0.1430 -0.4381
16503TIP3    H170924   5.564   2.285  14.641 -0.5648  1.4764 -0.3923
16503TIP3    H270925   5.469   2.309  14.757 -0.6212 -1.1137  0.1726
16504TIP3   OH270926   5.637   5.460   2.413 -0.1377 -0.6782 -0.6477
16504TIP3    H170927   5.693   5.474   2.336 -1.4984 -2.5971 -2.0863
16504TIP3    H270928   5.556   5.423   2.378 -1.3906 -0.2749  1.6049
16505TIP3   OH270929   5.773   4.134   1.470  0.0316 -0.5687 -0.7167
16505TIP3    H170930   5.837   4.189   1.426  1.8925 -1.7775  0.3114
16505TIP3    H270931   5.702   4.194   1.494  0.7363  0.8169 -1.9344
16506TIP3   OH270932   0.743   4.406   2.667 -0.3552  0.5411  0.1404
16506TIP3    H170933   0.777   4.340   2.606 -0.1267  1.6986 -1.0305
16506TIP3    H270934   0.701   4.471   2.611 -0.3596  1.5136  1.2352
16507TIP3   OH270935   6.412   3.114   5.234 -0.1425  0.2296  0.2248
16507TIP3    H170936   6.348   3.056   5.275  0.2988  0.0476  0.6681
16507TIP3    H270937   6.453   3.160   5.307  1.4073 -0.8692  0.0850
16508TIP3   OH270938   2.277   0.137   5.025  0.4304  0.4650 -0.1201
16508TIP3    H170939   2.285   0.179   5.111 -2.1092 -1.2463  1.0486
16508TIP3    H270940   2.183   0.128   5.011  0.7996 -0.3195 -2.6138
16509TIP3   OH270941   0.000   2.495  15.722  0.2186  0.2491 -0.0341
16509TIP3    H170942   0.075   2.554  15.715  0.1139  0.8104  2.7273
16509TIP3    H270943   0.038   2.412  15.751 -0.1944  0.6051  1.6146
16510TIP3   OH270944   6.287   3.380  12.554 -0.0059  0.6438 -0.4696
16510TIP3    H170945   6.345   3.456  12.550  0.2420  0.4161 -1.6356
16510TIP3    H270946   6.341   3.307  12.522 -0.8220  0.3666 -1.2439
16511TIP3   OH270947   6.319   3.111   1.955 -0.3498 -0.4557  0.2577
16511TIP3    H170948   6.323   3.037   2.016 -1.8566  0.7990  1.9808
16511TIP3    H270949   6.311   3.188   2.011  0.2174  0.9515 -1.5076
16512TIP3   OH270950   2.316   0.318   0.241 -0.7810  0.1266  0.5508
16512TIP3    H170951   2.265   0.396   0.220  1.8090  1.8610  0.2845
16512TIP3    H270952   2.278   0.285   0.322 -1.1007  2.4496  1.3978
16513TIP3   OH270953   3.006   6.087   1.897 -0.1934 -0.0164  0.0888
16513TIP3    H170954   2.984   6.012   1.952 -2.7040  0.2403 -0.4525
16513TIP3    H270955   3.100   6.078   1.881 -0.5127 -3.5931 -0.7261
16514TIP3   OH270956   3.425   3.094  12.026  0.5343 -0.1766  0.2015
16514TIP3    H170957   3.493   3.032  12.001  2.5226  1.0996  2.0392
16514TIP3    H270958   3.465   3.180  12.014 -1.3592  0.7129 -0.2198
16515TIP3   OH270959   6.003   1.086   1.124 -0.2530  0.3894 -0.0896
16515TIP3    H170960   6.044   1.107   1.041  0.4113  0.5305  0.2635
16515TIP3    H270961   6.017   0.992   1.135 -0.9086  0.2491 -0.4371
16516TIP3   OH270962   3.960   4.654   1.570  0.2581  0.3308  0.6741
16516TIP3    H170963   3.887   4.641   1.630  0.6282 -2.1417  0.6753
16516TIP3    H270964   4.033   4.681   1.626  0.3683 -1.1172  1.2660
16517TIP3   OH270965   5.472   0.811   2.584  0.0419 -0.0371  0.1846
16517TIP3    H170966   5.526   0.890   2.593  1.9575 -1.2644  0.0980
16517TIP3    H270967   5.382   0.842   2.595  0.7691  2.0536  0.7551
16518TIP3   OH270968   1.921   6.327   4.134  0.4791 -0.2195  0.0664
16518TIP3    H170969   1.896   6.271   4.208  1.3836 -0.2206  0.3740
16518TIP3    H270970   1.902   6.273   4.056  0.4968 -0.6089  0.3280
16519TIP3   OH270971   3.445   0.642  15.442  0.1635  0.1976 -0.1009
16519TIP3    H170972   3.405   0.676  15.522 -0.9019  1.5199 -1.1619
16519TIP3    H270973   3.372   0.631  15.381  0.6927 -2.3976 -0.4067
16520TIP3   OH270974   3.684   0.762  16.343 -0.2409  0.0458  0.1964
16520TIP3    H170975   3.601   0.792  16.380 -0.8009 -0.2424 -0.7958
16520TIP3    H270976   3.720   0.703  16.409 -1.9814 -1.7199 -0.3527
16521TIP3   OH270977   1.091   2.631  16.300 -0.0189 -0.6330  0.4886
16521TIP3    H170978   1.010   2.682  16.311  1.5706  2.3017 -0.3327
16521TIP3    H270979   1.125   2.619  16.389  0.0120  0.5570  0.6476
16522TIP3   OH270980   2.790   2.124   5.874  0.0917  0.4080 -0.6376
16522TIP3    H170981   2.833   2.178   5.940 -1.2353 -1.4911  1.9734
16522TIP3    H270982   2.699   2.153   5.875 -0.1954 -0.4557 -0.7231
16523TIP3   OH270983   2.529   4.400  14.249  0.0662 -0.7642 -0.1924
16523TIP3    H170984   2.471   4.476  14.256  0.7911  0.0303 -2.0781
16523TIP3    H270985   2.504   4.343  14.322 -1.4437  0.6412  0.4363
16524TIP3   OH270986   5.351   3.017   2.594  0.4134  0.7377  0.3567
16524TIP3    H170987   5.327   3.088   2.653  0.2481 -0.2477  1.5206
16524TIP3    H270988   5.332   2.937   2.644  2.0880 -0.1135 -0.3000
16525TIP3   OH270989   3.576   4.283  17.142  0.1554  0.0948 -0.7948
16525TIP3    H170990   3.589   4.222  17.069  1.0172 -1.0284  0.2453
16525TIP3    H270991   3.482   4.283  17.158  0.2788 -2.8576  0.6537
16526TIP3   OH270992   5.027   2.197  15.278  0.3311 -0.4600 -0.3056
16526TIP3    H170993   5.030   2.282  15.234  2.1945 -0.8299 -1.0273
16526TIP3    H270994   4.936   2.168  15.271  0.0950  0.5569 -1.8747
16527TIP3   OH270995   6.257   5.521   1.080  0.7151 -0.4914 -0.0409
16527TIP3    H170996   6.278   5.482   1.165  0.9881  1.4948  0.8544
16527TIP3    H270997   6.161   5.521   1.077  0.7057 -1.3505 -0.1470
16528TIP3   OH270998   0.685   2.837  15.626 -0.3471  0.0356  0.1152
16528TIP3    H170999   0.733   2.887  15.691  1.8248 -2.2876  0.4774
16528TIP3    H271000   0.719   2.868  15.542  0.0611  0.0540  0.2841
16529TIP3   OH271001   2.323   3.379  15.253  0.4700 -0.3527  0.1141
16529TIP3    H171002   2.246   3.330  15.223 -0.3896  1.1602 -0.2608
16529TIP3    H271003   2.334   3.448  15.188 -0.3311  1.9236  2.2661
16530TIP3   OH271004   4.767   1.025  13.706 -0.4980 -0.1090  0.0492
16530TIP3    H171005   4.814   0.952  13.667  0.6329 -0.1112  1.3476
16530TIP3    H271006   4.787   1.100  13.650 -0.9037 -0.5870 -0.7509
16531TIP3   OH271007   2.016   4.955  13.773  0.0036  0.4036  0.0104
16531TIP3    H171008   1.997   5.046  13.792  0.6009  0.5063  0.1376
16531TIP3    H271009   1.935   4.908  13.795  0.5698  0.5360  2.6278
16532TIP3   OH271010   4.156   6.471   2.396 -0.6410 -0.9927 -0.3652
16532TIP3    H171011   4.153   6.558   2.437 -0.9766 -1.5628  0.8555
16532TIP3    H271012   4.068   6.458   2.362 -1.3245 -1.8381  1.6084
16533TIP3   OH271013   6.048   3.910   5.903 -0.2378  0.3115 -0.1463
16533TIP3    H171014   6.000   3.964   5.841 -1.6795  0.0945  0.7423
16533TIP3    H271015   6.123   3.877   5.853 -2.5237 -1.7556 -2.4999
16534TIP3   OH271016   4.842   1.231   0.665  0.1585 -0.1660 -0.1915
16534TIP3    H171017   4.835   1.304   0.726 -1.5921  0.8107 -1.4882
16534TIP3    H271018   4.922   1.185   0.692  1.6897  2.5693  0.2805
16535TIP3   OH271019   4.411   5.498  15.476  0.5704  0.0290 -0.1841
16535TIP3    H171020   4.367   5.578  15.504 -0.0916 -0.7882  1.2436
16535TIP3    H271021   4.492   5.496  15.527  0.1889 -0.5971  0.4263
16536TIP3   OH271022   0.703   2.911  16.152  0.4726 -0.3257  0.2071
16536TIP3    H171023   0.721   3.002  16.177  0.8204 -0.3660  0.0972
16536TIP3    H271024   0.608   2.909  16.140  0.5591  0.2438 -0.6576
16537TIP3   OH271025   5.849   5.180   1.988  0.3775  0.2385 -0.7571
16537TIP3    H171026   5.825   5.246   1.923 -0.7452 -0.3806 -0.9956
16537TIP3    H271027   5.929   5.214   2.028  0.1803  1.4245 -1.3233
16538TIP3   OH271028   0.714   4.848  13.302 -0.7460  0.3526 -0.3144
16538TIP3    H171029   0.622   4.827  13.322 -0.6792  1.8491  2.0078
16538TIP3    H271030   0.712   4.884  13.214 -2.9073  2.7682  0.5777
16539TIP3   OH271031   4.247   0.798   3.489 -0.0888  0.1720 -1.3210
16539TIP3    H171032   4.158   0.816   3.458 -1.0240 -0.1634  0.9966
16539TIP3    H271033   4.281   0.884   3.516 -1.2650 -0.1272  1.4741
16540TIP3   OH271034   4.706   2.456   4.337  0.2958 -0.3511  0.1254
16540TIP3    H171035   4.696   2.422   4.248  0.3016 -2.8436  1.0039
16540TIP3    H271036   4.616   2.463   4.370  0.3396 -0.3207  0.2375
16541TIP3   OH271037   2.845   2.005   3.400 -0.2336  0.1242 -0.1525
16541TIP3    H171038   2.826   2.023   3.308 -1.0698  0.3217  0.0490
16541TIP3    H271039   2.940   2.008   3.406 -0.0836 -1.4852 -1.3217
16542TIP3   OH271040   0.254   3.724  15.974 -0.2814  0.3491 -0.3356
16542TIP3    H171041   0.335   3.674  15.984 -1.4778 -2.8372 -4.0801
16542TIP3    H271042   0.256   3.756  15.883 -1.9354  2.9201  0.4014
16543TIP3   OH271043   2.625   1.483   3.861  0.4417 -0.1071 -0.0258
16543TIP3    H171044   2.626   1.578   3.876  3.1841  0.0356 -0.5424
16543TIP3    H271045   2.547   1.468   3.808  0.2826  1.9685 -0.4558
16544TIP3   OH271046   2.917   2.856   5.651  0.1386 -0.2068  0.2872
16544TIP3    H171047   2.988   2.903   5.609  1.2817 -0.4126  1.8858
16544TIP3    H271048   2.917   2.770   5.609 -0.3763  0.3957 -0.9706
16545TIP3   OH271049   4.338   2.741   0.815 -0.1360  0.5011  0.2120
16545TIP3    H171050   4.352   2.680   0.887 -0.1021 -0.1677 -0.3619
16545TIP3    H271051   4.247   2.726   0.789  0.5463 -0.9752 -1.4600
16546TIP3   OH271052   5.126   0.490  13.980 -0.1401 -0.1660  0.9503
16546TIP3    H171053   5.049   0.501  14.037 -2.0577 -0.5352 -1.3969
16546TIP3    H271054   5.122   0.398  13.954  1.1428 -0.1903  0.7909
16547TIP3   OH271055   6.741   3.292   1.436  0.0564  0.2241  0.2776
16547TIP3    H171056   6.737   3.380   1.473  0.4219  0.4264 -0.1585
16547TIP3    H271057   6.692   3.298   1.354 -0.3207 -0.0969  0.4769
16548TIP3   OH271058   3.844   4.459  15.785 -0.1780  0.5878  0.1653
16548TIP3    H171059   3.824   4.552  15.792  0.9970  0.8522  0.2216
16548TIP3    H271060   3.928   4.456  15.740 -0.6310 -0.4889 -0.6574
16549TIP3   OH271061   2.294   1.395  14.599 -0.2678 -0.1529  0.5533
16549TIP3    H171062   2.367   1.439  14.644 -0.2370 -0.5169  0.8589
16549TIP3    H271063   2.320   1.396  14.506  1.1593 -2.1641  0.8570
16550TIP3   OH271064   3.204   2.764   1.624 -0.2564 -0.0735 -0.0162
16550TIP3    H171065   3.176   2.854   1.614  0.1224  0.1305  0.7028
16550TIP3    H271066   3.211   2.731   1.535  1.4762  1.1976 -0.4074
16551TIP3   OH271067   4.129   2.873  16.113 -0.0914  0.4378 -0.5121
16551TIP3    H171068   4.099   2.829  16.193 -0.2407  0.8074 -0.3646
16551TIP3    H271069   4.209   2.825  16.088  0.4236  0.8419  0.3234
16552TIP3   OH271070   2.918   4.589   0.380  0.2627 -0.6026  0.4641
16552TIP3    H171071   2.992   4.528   0.377  0.4373 -0.3490 -1.5742
16552TIP3    H271072   2.949   4.667   0.333 -1.0089 -0.1424  0.3498
16553TIP3   OH271073   3.837   6.167   5.025 -0.1676  0.5091 -0.6447
16553TIP3    H171074   3.842   6.262   5.029  1.1022  0.4463  0.0303
16553TIP3    H271075   3.774   6.148   4.956 -2.1049  1.8261  0.6675
16554TIP3   OH271076   6.502   0.364   5.123  0.1925 -0.4591 -0.3371
16554TIP3    H171077   6.446   0.398   5.193 -0.7037 -1.1386 -0.7008
16554TIP3    H271078   6.509   0.437   5.061  1.3021  0.2727  0.6101
16555TIP3   OH271079   4.151   3.609   3.647 -0.3484  0.1818  0.3544
16555TIP3    H171080   4.209   3.597   3.722 -0.6424  0.5034  0.6366
16555TIP3    H271081   4.066   3.578   3.677 -0.5899  0.8105  0.3353
16556TIP3   OH271082   4.665   5.335   0.305  0.0241 -0.3981 -0.1218
16556TIP3    H171083   4.671   5.420   0.261 -0.6031  0.6774  1.7582
16556TIP3    H271084   4.611   5.282   0.246 -0.8744  1.0105 -0.6238
16557TIP3   OH271085   1.071   4.327   3.379  0.5142  0.0839 -0.0262
16557TIP3    H171086   1.162   4.314   3.353  0.2248  1.0677 -1.7059
16557TIP3    H271087   1.043   4.243   3.415  1.6888 -0.6433 -0.7598
16558TIP3   OH271088   2.785   1.399   4.072 -0.3049 -0.1518  0.0789
16558TIP3    H171089   2.717   1.453   4.111 -0.2810  0.0325 -0.1384
16558TIP3    H271090   2.856   1.460   4.051  0.0511 -0.3828  0.5780
16559TIP3   OH271091   2.631   5.777   1.642  0.4685  0.0781  0.7199
16559TIP3    H171092   2.722   5.748   1.636  0.6857  0.5024  1.6206
16559TIP3    H271093   2.584   5.701   1.677  0.6165  0.0755  0.9212
16560TIP3   OH271094   2.421   0.396  17.376 -0.4165  0.0853 -0.0395
16560TIP3    H171095   2.510   0.374  17.402  0.2655  0.2651 -2.0208
16560TIP3    H271096   2.368   0.379  17.454  1.2584 -0.5274  1.0240
16561TIP3   OH271097   1.111   5.060   4.813 -0.5923 -0.3877 -0.1097
16561TIP3    H171098   1.031   5.054   4.865 -0.5324 -0.0677  0.0208
16561TIP3    H271099   1.122   4.972   4.776 -2.5758  0.2479 -2.4690
16562TIP3   OH271100   2.831   1.890   0.373  0.1805 -0.0473  0.0963
16562TIP3    H171101   2.905   1.866   0.317 -0.0940 -0.8139  0.0413
16562TIP3    H271102   2.791   1.965   0.328 -0.7246 -1.3533 -1.4103
16563TIP3   OH271103   4.366   5.574  12.807 -0.2259  0.1922 -0.2493
16563TIP3    H171104   4.345   5.650  12.861  0.2394 -0.2497  0.5764
16563TIP3    H271105   4.393   5.507  12.869  3.1854  0.5483 -1.1470
16564TIP3   OH271106   5.699   4.770   4.874 -0.3224  0.0702 -0.1221
16564TIP3    H171107   5.786   4.798   4.902  0.7933 -3.8647  0.9071
16564TIP3    H271108   5.695   4.796   4.782  3.0831 -1.8218 -0.9632
16565TIP3   OH271109   4.605   0.290   1.779 -0.3521 -0.3366 -0.1172
16565TIP3    H171110   4.542   0.355   1.748  0.6635  0.5978 -0.2543
16565TIP3    H271111   4.551   0.227   1.827 -1.2465  1.2315  1.0565
16566TIP3   OH271112   1.764   4.561  15.156 -0.2835 -0.8224 -0.0311
16566TIP3    H171113   1.731   4.612  15.083 -0.0260 -2.0007 -1.0058
16566TIP3    H271114   1.806   4.625  15.214  0.6532 -0.0108 -1.5643
16567TIP3   OH271115   2.986   3.196  16.019  0.0256 -0.2652  0.0311
16567TIP3    H171116   2.948   3.213  15.932 -0.7831 -1.6438  0.0936
16567TIP3    H271117   2.931   3.245  16.079  0.1908  0.1665 -0.1627
16568TIP3   OH271118   1.019   1.561   6.362  0.2814  0.2715  0.3298
16568TIP3    H171119   1.032   1.562   6.457 -0.4029  1.9853  0.4279
16568TIP3    H271120   0.943   1.617   6.347 -0.2340 -0.7504 -1.1625
16569TIP3   OH271121   3.902   5.467   4.520 -0.1494 -0.9256 -0.0152
16569TIP3    H171122   3.961   5.450   4.592 -0.7431  0.4340  0.8455
16569TIP3    H271123   3.818   5.487   4.562 -0.2661  0.8466 -0.9939
16570TIP3   OH271124   4.774   3.196  11.524  0.1083 -0.6524 -0.6920
16570TIP3    H171125   4.706   3.264  11.520  1.0424  0.2465 -2.0431
16570TIP3    H271126   4.835   3.228  11.591 -0.0369 -0.7358 -0.5179
16571TIP3   OH271127   3.949   3.966   3.734  0.1042  0.0125  0.4367
16571TIP3    H171128   4.008   4.028   3.776  0.7138 -0.4840  0.3415
16571TIP3    H271129   3.963   3.884   3.782  2.5285 -1.2160 -2.0590
16572TIP3   OH271130   0.444   4.764   4.733  0.0781  0.3925  0.9645
16572TIP3    H171131   0.351   4.785   4.730 -0.2224 -0.9388  0.2719
16572TIP3    H271132   0.486   4.835   4.684 -0.5904  0.8794  1.0817
16573TIP3   OH271133   5.532   5.495  15.806  0.0440  0.2518 -0.0985
16573TIP3    H171134   5.627   5.501  15.821  0.1376 -0.1876 -0.4826
16573TIP3    H271135   5.495   5.488  15.894  0.4847 -0.9998  0.0126
16574TIP3   OH271136   4.832   2.560  17.304 -0.8196 -0.2787  0.2341
16574TIP3    H171137   4.924   2.569  17.326 -0.4350  0.3692 -1.5458
16574TIP3    H271138   4.793   2.517  17.381  1.0861 -1.2595  0.7047
16575TIP3   OH271139   1.908   0.892  12.299  0.1758 -0.4584 -0.1037
16575TIP3    H171140   1.851   0.817  12.317  0.9529 -1.0850 -0.1987
16575TIP3    H271141   1.996   0.855  12.295  0.5074  0.3677 -0.7860
16576TIP3   OH271142   3.325   3.663  11.388 -0.4392  0.0713 -0.7423
16576TIP3    H171143   3.294   3.585  11.342 -0.2484  0.9323 -2.4079
16576TIP3    H271144   3.283   3.736  11.342 -1.2873  0.9437  1.2985
16577TIP3   OH271145   0.169   5.843  13.877 -0.2397  0.0869 -0.0437
16577TIP3    H171146   0.207   5.909  13.819  0.3891 -0.3432 -0.1365
16577TIP3    H271147   0.228   5.841  13.953 -0.7328  0.2348  0.3444
16578TIP3   OH271148   2.595   3.988  14.739 -0.1194  0.3949  0.2479
16578TIP3    H171149   2.648   4.013  14.663 -1.9823  0.5530 -1.0602
16578TIP3    H271150   2.581   4.070  14.787  0.2301  0.4707  0.2226
16579TIP3   OH271151   0.640   5.839  16.360 -0.3679  0.3896 -0.4532
16579TIP3    H171152   0.571   5.780  16.332 -0.0720  0.8808 -2.3670
16579TIP3    H271153   0.721   5.789  16.350 -0.3501  0.0006  1.2548
16580TIP3   OH271154   6.742   0.133  14.935  0.0869  0.1105 -0.3626
16580TIP3    H171155   6.709   0.047  14.961  1.3552  0.0219  1.0790
16580TIP3    H271156   6.818   0.148  14.992 -0.2499  2.2860 -0.4021
16581TIP3   OH271157   5.766   2.120  13.449 -0.1786 -0.3124  0.6241
16581TIP3    H171158   5.818   2.050  13.408 -0.8843 -0.7952  0.5289
16581TIP3    H271159   5.786   2.113  13.542  0.1646 -0.2893  0.5536
16582TIP3   OH271160   1.502   3.931   1.551 -1.0314  0.1300 -0.6497
16582TIP3    H171161   1.587   3.888   1.559 -2.2815 -2.3650  0.2667
16582TIP3    H271162   1.503   4.000   1.618 -0.0836 -0.4924 -0.0019
16583TIP3   OH271163   4.421   3.881   3.227 -0.3730  0.4382  0.1607
16583TIP3    H171164   4.379   3.814   3.173  1.0309  0.4547 -1.0125
16583TIP3    H271165   4.374   3.961   3.206 -0.3637  0.2953 -0.4147
16584TIP3   OH271166   1.704   3.082   6.044 -0.6110 -0.2123  0.0713
16584TIP3    H171167   1.785   3.047   6.081 -0.4486 -0.1135 -0.1932
16584TIP3    H271168   1.657   3.005   6.012 -1.9643 -0.6371  2.8187
16585TIP3   OH271169   1.404   4.210   0.649 -0.3856  0.1486 -0.2916
16585TIP3    H171170   1.374   4.211   0.740 -2.0849  0.9221 -0.8074
16585TIP3    H271171   1.445   4.296   0.637 -0.3697  0.1377 -0.3136
16586TIP3   OH271172   3.309   4.794  12.956  0.2475  0.6148  0.1393
16586TIP3    H171173   3.394   4.829  12.930  0.6328 -0.8308 -0.6269
16586TIP3    H271174   3.300   4.712  12.907 -0.8179 -0.1548  1.5439
16587TIP3   OH271175   5.259   1.028  16.081 -0.1901 -0.0682 -0.3896
16587TIP3    H171176   5.286   1.080  16.006  1.8257 -1.5763 -0.7853
16587TIP3    H271177   5.333   0.971  16.099 -0.8633 -0.2249  2.3527
16588TIP3   OH271178   1.904   1.749  13.326  0.1898 -0.4627  0.3081
16588TIP3    H171179   1.871   1.807  13.258 -0.7485  1.3056  2.1696
16588TIP3    H271180   1.998   1.742  13.309  0.5743  2.5830  0.6487
16589TIP3   OH271181   0.854   2.490   4.429  0.2087  0.2326 -0.6814
16589TIP3    H171182   0.786   2.529   4.485  0.5499 -0.2647  0.0810
16589TIP3    H271183   0.806   2.432   4.371  0.0248 -0.5151  0.2005
16590TIP3   OH271184   0.360   1.058  13.918  0.1295 -0.7102  0.1695
16590TIP3    H171185   0.272   1.091  13.935  0.1647 -0.9048  0.7601
16590TIP3    H271186   0.418   1.116  13.968  0.4171 -0.0393 -0.9272
16591TIP3   OH271187   4.052   6.764  16.515  0.0968 -0.1146 -0.3954
16591TIP3    H171188   3.988   6.705  16.554 -0.2617  0.1210 -0.6269
16591TIP3    H271189   4.096   6.712  16.448  0.9808 -0.6415  0.5614
16592TIP3   OH271190   4.334   1.351   2.105  0.3252 -0.0144  0.1334
16592TIP3    H171191   4.371   1.305   2.030  1.0239 -0.4866  0.7476
16592TIP3    H271192   4.410   1.379   2.156 -0.1419  0.1867  0.7310
16593TIP3   OH271193   5.832   0.145   4.665  0.0710  0.0635  0.2894
16593TIP3    H171194   5.805   0.062   4.626 -3.2051 -0.3375  2.9358
16593TIP3    H271195   5.909   0.122   4.718  1.3267 -0.4413 -1.6522
16594TIP3   OH271196   6.318   1.183  11.271  0.0838 -0.1551  0.1546
16594TIP3    H171197   6.242   1.150  11.319 -0.2141 -1.0688 -0.9020
16594TIP3    H271198   6.299   1.276  11.256 -1.0535 -0.4642 -0.4776
16595TIP3   OH271199   5.802   1.275  16.626  0.1418 -0.3821 -0.2182
16595TIP3    H171200   5.734   1.327  16.668 -0.5687 -1.8395  0.4727
16595TIP3    H271201   5.824   1.208  16.690  0.5592 -1.3496 -1.3475
16596TIP3   OH271202   5.698   0.264   5.197  0.0312 -0.5795  0.2535
16596TIP3    H171203   5.698   0.295   5.287  0.6027  1.3167 -0.3381
16596TIP3    H271204   5.786   0.284   5.165  1.2652 -4.9102  0.3734
16597TIP3   OH271205   2.428   3.457  11.746  1.1637 -0.3868  0.3514
16597TIP3    H171206   2.404   3.383  11.803  0.2512 -0.2331  0.1829
16597TIP3    H271207   2.353   3.466  11.687  1.0355  0.9859  0.6839
16598TIP3   OH271208   6.532   2.769  12.405  0.8343 -0.2329  0.0890
16598TIP3    H171209   6.608   2.776  12.347  0.3977 -0.0588 -0.4693
16598TIP3    H271210   6.523   2.675  12.421  0.7659 -0.3130 -0.3941
16599TIP3   OH271211   3.230   0.380  13.930 -0.5007 -0.1261 -0.1311
16599TIP3    H171212   3.206   0.403  14.020 -1.2672  1.1550 -0.6276
16599TIP3    H271213   3.240   0.464  13.886  1.3310 -0.7004 -0.8987
16600TIP3   OH271214   2.395   3.479  13.889 -0.0849  0.2313 -0.2176
16600TIP3    H171215   2.456   3.551  13.877 -0.4217  0.4183 -0.7972
16600TIP3    H271216   2.336   3.483  13.814 -0.2677 -0.4858 -0.1232
16601TIP3   OH271217   4.163   0.798   1.243 -0.2669 -0.0109  0.0033
16601TIP3    H171218   4.207   0.723   1.205 -0.6436  0.9731 -2.5975
16601TIP3    H271219   4.187   0.871   1.185 -1.2711  1.5255  1.4448
16602TIP3   OH271220   0.099   0.554  17.189 -0.4500 -0.1161 -0.0567
16602TIP3    H171221   0.186   0.523  17.167 -0.3307  0.4470 -0.3932
16602TIP3    H271222   0.077   0.617  17.120 -1.3503 -0.6612 -0.2929
16603TIP3   OH271223   1.242   5.833  17.098 -0.3867  0.3886 -0.5045
16603TIP3    H171224   1.243   5.738  17.080 -1.1775  0.2761  0.0057
16603TIP3    H271225   1.232   5.873  17.012 -1.8684 -0.0669 -0.5813
16604TIP3   OH271226   1.187   0.567   0.459 -0.1792  0.2536 -0.1655
16604TIP3    H171227   1.182   0.471   0.460 -3.1908  0.3424  0.4723
16604TIP3    H271228   1.101   0.597   0.486  0.8223  3.2001  0.1766
16605TIP3   OH271229   5.897   6.606  10.948 -0.6192 -0.0588 -0.2278
16605TIP3    H171230   5.987   6.616  10.917 -0.3525  0.6275  0.7368
16605TIP3    H271231   5.880   6.511  10.942  0.7364 -0.4124  1.1002
16606TIP3   OH271232   3.536   2.731  11.400  0.3542 -0.0214  0.3922
16606TIP3    H171233   3.594   2.660  11.374  0.5465 -0.3474  1.6497
16606TIP3    H271234   3.588   2.810  11.388 -0.0299  0.0031 -1.5101
16607TIP3   OH271235   1.183   3.995   0.393 -0.4365 -0.2172  0.2242
16607TIP3    H171236   1.126   3.990   0.470  0.0763 -0.9389  0.5737
16607TIP3    H271237   1.268   4.022   0.429 -0.5183  0.7244 -0.2714
16608TIP3   OH271238   6.060   2.107   1.386 -0.0365 -0.8634  0.2882
16608TIP3    H171239   5.976   2.110   1.430  0.3182 -0.4964  0.9467
16608TIP3    H271240   6.090   2.016   1.397 -0.0712 -0.8404  0.5840
16609TIP3   OH271241   4.257   0.271   4.457 -0.2299 -0.1800 -0.2584
16609TIP3    H171242   4.295   0.189   4.487  1.0562 -0.4737 -2.4861
16609TIP3    H271243   4.165   0.252   4.444 -0.4959 -0.4743  1.7911
16610TIP3   OH271244   3.724   3.353  16.864 -0.0525 -0.0939 -0.1897
16610TIP3    H171245   3.784   3.279  16.879 -0.0290  0.0140  0.2603
16610TIP3    H271246   3.726   3.366  16.769  1.4857  0.6107 -0.0874
16611TIP3   OH271247   3.366   4.395  11.879 -0.1478  0.7332  0.0152
16611TIP3    H171248   3.456   4.423  11.865 -0.0679  0.6693  0.3760
16611TIP3    H271249   3.364   4.304  11.852 -0.0502  0.6744  0.2030
16612TIP3   OH271250   1.488   6.369  14.168 -0.1665  0.1959 -0.5860
16612TIP3    H171251   1.526   6.369  14.081  0.7042 -1.6294 -0.2428
16612TIP3    H271252   1.562   6.385  14.227 -0.0992 -2.0486  0.0043
16613TIP3   OH271253   2.370   3.853   4.893  0.1350 -0.0793 -0.4359
16613TIP3    H171254   2.400   3.852   4.983 -1.3769  1.0896  0.1193
16613TIP3    H271255   2.429   3.914   4.848  2.1419 -2.1447 -0.7677
16614TIP3   OH271256   2.014   5.841   1.051  0.0705 -0.5703 -0.1312
16614TIP3    H171257   1.996   5.823   1.143 -0.2597 -1.3640 -0.3513
16614TIP3    H271258   1.969   5.924   1.034  2.0064  0.8188  1.0045
16615TIP3   OH271259   2.166   6.379  17.061  0.1649 -0.0449 -0.2275
16615TIP3    H171260   2.219   6.404  17.137 -1.4056  0.3048  0.7991
16615TIP3    H271261   2.218   6.312  17.017  0.7248 -0.9788  1.7133
16616TIP3   OH271262   3.644   2.200  16.272  0.1022  0.1873 -0.6932
16616TIP3    H171263   3.626   2.258  16.199 -1.1077  0.1729 -0.4182
16616TIP3    H271264   3.617   2.113  16.241  1.1670 -0.1211 -0.8201
16617TIP3   OH271265   2.054   1.725   4.246  0.3467  0.3849 -0.4369
16617TIP3    H171266   1.973   1.676   4.241  0.7765 -0.2367 -3.2889
16617TIP3    H271267   2.039   1.791   4.314 -2.5709  0.3883 -0.9777
16618TIP3   OH271268   3.916   4.510   0.037  0.3021  0.0208 -0.2053
16618TIP3    H171269   3.871   4.523   0.121  0.5461 -0.5049  0.0063
16618TIP3    H271270   4.005   4.541   0.053 -0.2443  2.1571 -0.9499
16619TIP3   OH271271   1.114   4.877   0.099 -0.1112  0.1764 -0.5419
16619TIP3    H171272   1.054   4.923   0.040 -0.4336 -0.5400 -0.7763
16619TIP3    H271273   1.090   4.909   0.186 -0.1654  0.6349 -0.7198
16620TIP3   OH271274   3.605   1.316  11.599 -0.0610  0.1727 -0.0786
16620TIP3    H171275   3.639   1.245  11.545 -0.6996 -0.0876 -0.1542
16620TIP3    H271276   3.625   1.395  11.551  0.2191  0.0087 -0.2344
16621TIP3   OH271277   2.353   5.576  13.464 -0.2056  0.3269  0.2664
16621TIP3    H171278   2.343   5.625  13.382 -0.8876 -1.3172 -0.6868
16621TIP3    H271279   2.396   5.637  13.523 -1.2401  2.1635 -0.7692
16622TIP3   OH271280   3.571   5.522  15.915 -0.0812 -0.0920 -0.8850
16622TIP3    H171281   3.642   5.465  15.944  0.6573  0.4889 -1.5034
16622TIP3    H271282   3.547   5.572  15.992 -0.3735 -0.8498 -0.4708
16623TIP3   OH271283   0.048   1.143  14.323  0.3945  0.1045  0.7698
16623TIP3    H171284  -0.042   1.127  14.294  0.7994 -1.4545  0.2813
16623TIP3    H271285   0.045   1.130  14.418  0.2851 -0.9853  0.6319
16624TIP3   OH271286   5.665   4.842  14.342 -0.2750  0.4724 -0.1990
16624TIP3    H171287   5.730   4.843  14.412 -0.4807  1.1510 -0.0066
16624TIP3    H271288   5.716   4.825  14.262  0.5889  3.6013 -0.4529
16625TIP3   OH271289   3.963   2.839  16.727  0.2704 -0.4477 -0.0739
16625TIP3    H171290   3.966   2.749  16.758 -1.8892 -0.4502  0.2876
16625TIP3    H271291   3.873   2.867  16.742  0.7699  1.6432 -0.5813
16626TIP3   OH271292   5.344   4.550   4.465 -0.2532  0.0878 -0.1766
16626TIP3    H171293   5.282   4.482   4.440  0.0600 -0.2453 -0.0530
16626TIP3    H271294   5.318   4.627   4.413 -0.5008 -0.1708 -0.4368
16627TIP3   OH271295   4.342   3.334  14.176  0.3294 -0.1700  0.0674
16627TIP3    H171296   4.344   3.266  14.244  1.5594  1.0883  1.3592
16627TIP3    H271297   4.321   3.287  14.095 -2.1031 -1.5904  1.4349
16628TIP3   OH271298   1.085   4.694  13.531  0.0266 -0.1817  0.0224
16628TIP3    H171299   1.070   4.779  13.490 -0.7715 -0.9658 -1.3712
16628TIP3    H271300   1.048   4.703  13.619 -0.7589  0.6674 -0.3738
16629TIP3   OH271301   6.090   5.319  13.840  0.8220  0.5707 -0.0744
16629TIP3    H171302   5.998   5.345  13.841  0.4413 -0.4993 -2.4660
16629TIP3    H271303   6.136   5.394  13.804  0.6472  0.4710 -0.5078
16630TIP3   OH271304   5.679   5.164   6.596  0.3397 -0.1723  0.0488
16630TIP3    H171305   5.666   5.244   6.545  1.3115  0.2998  0.5211
16630TIP3    H271306   5.769   5.170   6.628  0.3488 -1.3419  0.2930
16631TIP3   OH271307   4.266   3.370   0.399 -0.3742  0.3371 -0.2229
16631TIP3    H171308   4.221   3.449   0.371 -1.4744  0.2950  1.3032
16631TIP3    H271309   4.266   3.375   0.495  0.6450 -0.9003 -0.1359
16632TIP3   OH271310   3.685   5.938  14.996  0.6795 -0.4551  0.3263
16632TIP3    H171311   3.631   5.982  15.062  2.6295  1.1343  0.9724
16632TIP3    H271312   3.688   5.846  15.025 -0.0254 -0.1637  1.3994
16633TIP3   OH271313   6.724   1.886  12.188  0.0237  0.3953  0.0507
16633TIP3    H171314   6.703   1.937  12.110 -1.4672  0.0065  0.1722
16633TIP3    H271315   6.645   1.836  12.206  1.4269 -2.0620 -0.1100
16634TIP3   OH271316   4.583   1.338  14.163  0.2844  0.0218 -0.1081
16634TIP3    H171317   4.547   1.418  14.126  0.2012 -0.0598 -0.2077
16634TIP3    H271318   4.615   1.289  14.086  1.0594  0.3124  0.0188
16635TIP3   OH271319   1.918   0.849  12.751 -0.3476  0.2280  0.0391
16635TIP3    H171320   1.918   0.909  12.826  0.5406  0.3690 -0.0572
16635TIP3    H271321   1.892   0.904  12.677  1.3154  0.7300 -0.2044
16636TIP3   OH271322   0.486   5.293  17.252 -0.4599 -0.5076 -0.4966
16636TIP3    H171323   0.550   5.238  17.206 -0.5249 -1.4154  0.4610
16636TIP3    H271324   0.488   5.261  17.342 -2.3888 -0.6854 -0.4794
16637TIP3   OH271325   1.270   0.676   2.203 -0.1808 -0.3980  0.4013
16637TIP3    H171326   1.355   0.658   2.242  0.2843 -0.0928 -0.4468
16637TIP3    H271327   1.287   0.678   2.109 -0.7860  1.3945  0.2998
16638TIP3   OH271328   3.272   5.392  13.814  0.5768 -0.0076  0.9531
16638TIP3    H171329   3.345   5.332  13.829  1.8823  1.2486 -0.1379
16638TIP3    H271330   3.278   5.455  13.886  0.9779  0.4677  0.5096
16639TIP3   OH271331   6.613   0.537  12.817  0.3647 -0.2201 -0.0550
16639TIP3    H171332   6.650   0.582  12.893  0.5247 -0.3265 -0.0670
16639TIP3    H271333   6.678   0.550  12.748  1.1980 -1.7983  0.3691
16640TIP3   OH271334   4.099   1.273  13.733  0.2210  0.0223  0.2397
16640TIP3    H171335   4.050   1.355  13.727 -1.0160 -0.5984  1.4356
16640TIP3    H271336   4.124   1.254  13.642 -0.1622  1.3006 -0.1600
16641TIP3   OH271337   5.344   2.272   4.249 -0.4252 -0.0765  0.1297
16641TIP3    H171338   5.340   2.289   4.343 -0.3343 -0.4221  0.1973
16641TIP3    H271339   5.410   2.202   4.240  2.3475  2.4047 -0.5188
16642TIP3   OH271340   4.794   4.595   3.155 -0.2390  0.7239  0.6889
16642TIP3    H171341   4.785   4.661   3.224 -1.6483 -0.0387  1.2715
16642TIP3    H271342   4.864   4.629   3.098 -0.5395  2.4297  1.2799
16643TIP3   OH271343   6.283   3.305   1.738 -0.5177  0.2900 -0.1040
16643TIP3    H171344   6.253   3.252   1.664  3.0823 -0.9286 -0.8470
16643TIP3    H271345   6.310   3.241   1.804  1.2950  1.2261  0.1059
16644TIP3   OH271346   4.695   4.625  16.610 -0.6544 -0.4166  0.0883
16644TIP3    H171347   4.614   4.640  16.658  0.0971 -1.6750  1.8896
16644TIP3    H271348   4.713   4.532  16.622  0.1665 -0.5397 -1.7652
16645TIP3   OH271349   3.496   0.756  16.674 -0.5455  0.0078  0.5826
16645TIP3    H171350   3.559   0.783  16.741  0.5300 -1.3300  0.1668
16645TIP3    H271351   3.470   0.838  16.632  1.3520  0.5960  0.4157
16646TIP3   OH271352   6.268   5.490   4.064 -0.7942 -0.3751  0.0496
16646TIP3    H171353   6.195   5.540   4.028  1.7982  1.6161 -2.9146
16646TIP3    H271354   6.279   5.416   4.004  0.9645  0.6312 -0.9501
16647TIP3   OH271355   0.399   3.296   2.664  0.0138  0.5453  0.1125
16647TIP3    H171356   0.367   3.217   2.707  1.6205 -0.4865 -0.4799
16647TIP3    H271357   0.397   3.363   2.731  0.6162 -0.5291  1.2316
16648TIP3   OH271358   0.393   3.133   3.411  0.2173 -0.0312 -0.0077
16648TIP3    H171359   0.376   3.132   3.317  0.3624  2.3048 -0.1205
16648TIP3    H271360   0.485   3.157   3.419 -0.4284  2.5554  0.6817
16649TIP3   OH271361   2.263   4.733  15.461 -0.3060 -0.9680  0.3710
16649TIP3    H171362   2.239   4.824  15.475 -1.1214 -1.2626  0.9926
16649TIP3    H271363   2.359   4.732  15.462 -0.2905 -0.4321  2.5621
16650TIP3   OH271364   4.760   4.216  14.857 -0.3076  0.2137 -0.1532
16650TIP3    H171365   4.807   4.285  14.810  0.3520 -0.9246 -1.2340
16650TIP3    H271366   4.790   4.135  14.816 -2.3286 -0.6331 -0.0820
16651TIP3   OH271367   6.266   4.531   0.653 -0.3797 -0.2839  0.4639
16651TIP3    H171368   6.197   4.466   0.671 -0.5252  0.0095  0.9505
16651TIP3    H271369   6.224   4.615   0.666  0.6816 -0.0921  3.0936
16652TIP3   OH271370   0.050   2.561   3.820 -0.7382  0.2805  0.0999
16652TIP3    H171371  -0.040   2.535   3.801 -1.0435  1.7289 -0.5735
16652TIP3    H271372   0.089   2.577   3.734  0.7792 -2.0981  0.2456
16653TIP3   OH271373   2.865   4.121   1.415  0.2048  0.6957  0.0683
16653TIP3    H171374   2.869   4.180   1.339 -0.2136  1.2215  0.4565
16653TIP3    H271375   2.786   4.068   1.401 -0.2015  1.2014  0.4360
16654TIP3   OH271376   4.363   4.756  13.532 -0.4649  0.7527 -0.2267
16654TIP3    H171377   4.306   4.822  13.492 -1.5271  0.2787  0.4329
16654TIP3    H271378   4.302   4.688  13.561  0.3306  0.7402  1.4993
16655TIP3   OH271379   3.549   2.080   1.357  0.4686 -0.1921  0.0779
16655TIP3    H171380   3.556   2.077   1.261  1.7338 -0.3101  0.1485
16655TIP3    H271381   3.528   1.990   1.382 -0.4899 -0.0273 -0.1239
16656TIP3   OH271382   2.860   6.051   3.096 -0.3294  0.3781  0.2684
16656TIP3    H171383   2.795   6.017   3.034 -1.1232  2.4683 -0.1356
16656TIP3    H271384   2.894   6.131   3.054  0.1531  1.0736  1.8982
16657TIP3   OH271385   5.518   5.533   2.750 -0.2957 -0.2527  1.1280
16657TIP3    H171386   5.500   5.618   2.791 -0.3130  0.0627  0.4754
16657TIP3    H271387   5.570   5.555   2.672  0.0002 -0.8713  1.1530
16658TIP3   OH271388   6.670   2.411   0.435 -0.4740 -0.2324 -0.1955
16658TIP3    H171389   6.732   2.389   0.504  0.1755 -0.4863 -0.8518
16658TIP3    H271390   6.709   2.486   0.391 -1.7134  1.0686  0.7723
16659TIP3   OH271391   1.817   1.561  14.494  0.3491  0.0810  0.3145
16659TIP3    H171392   1.747   1.526  14.549 -0.7102  1.4413 -0.1176
16659TIP3    H271393   1.867   1.618  14.551 -0.0061  0.5354  0.1729
16660TIP3   OH271394   2.879   4.275   2.096 -0.5001  0.3393  0.3488
16660TIP3    H171395   2.938   4.201   2.112 -1.3347 -0.3446  0.3848
16660TIP3    H271396   2.934   4.342   2.057  0.0055 -0.8405 -1.0431
16661TIP3   OH271397   0.409   0.834   5.910  0.4690  0.3252  0.3032
16661TIP3    H171398   0.341   0.860   5.971 -0.6231 -2.0134  0.2000
16661TIP3    H271399   0.363   0.782   5.844  2.0452  0.4425 -0.9537
16662TIP3   OH271400   5.595   2.572  12.855  0.4425  0.0320 -0.3910
16662TIP3    H171401   5.657   2.527  12.798 -0.7350 -0.1802 -1.5586
16662TIP3    H271402   5.519   2.514  12.858  0.2616  0.3142  0.9537
16663TIP3   OH271403   1.281   3.979   3.517 -0.6062 -0.1152  0.2433
16663TIP3    H171404   1.301   3.890   3.490  0.2822 -0.8982  3.1841
16663TIP3    H271405   1.361   4.011   3.558 -1.3339  1.5672  0.4485
16664TIP3   OH271406   5.915   3.662  14.117  0.3154  0.5189  0.5282
16664TIP3    H171407   5.867   3.592  14.074  0.4518  1.3374 -1.0157
16664TIP3    H271408   5.849   3.727  14.140  0.3854  0.5964  0.5134
16665TIP3   OH271409   6.481   1.659  16.572  0.0423 -0.6617 -0.3551
16665TIP3    H171410   6.575   1.659  16.590 -0.2603  0.6853  1.4529
16665TIP3    H271411   6.448   1.579  16.613  0.3037 -0.8320 -0.4755
16666TIP3   OH271412   3.618   5.765   4.870  0.1378 -0.3405 -0.1958
16666TIP3    H171413   3.547   5.720   4.823 -1.3825  1.4353  0.2827
16666TIP3    H271414   3.639   5.706   4.942 -1.0739 -0.7828 -0.1666
16667TIP3   OH271415   4.333   3.595  15.075 -0.3840  0.6493  0.5676
16667TIP3    H171416   4.252   3.574  15.028 -2.3536  2.4025  2.8850
16667TIP3    H271417   4.374   3.510  15.090 -1.0712 -0.1839 -1.7959
16668TIP3   OH271418   3.367   2.381   0.227 -0.6244  0.3178 -0.1274
16668TIP3    H171419   3.377   2.476   0.221 -0.5732  0.2400 -2.0579
16668TIP3    H271420   3.457   2.348   0.226 -0.6220  0.2565  1.1936
16669TIP3   OH271421   5.203   1.833  13.023  0.4423  0.5080  0.8407
16669TIP3    H171422   5.237   1.802  13.107  1.5330 -0.4139  0.0964
16669TIP3    H271423   5.140   1.766  12.997  0.9785  0.1724  0.3826
16670TIP3   OH271424   2.836   1.086  16.532  0.2825 -0.2722  0.0080
16670TIP3    H171425   2.858   1.134  16.613  1.3990 -0.8306  0.0575
16670TIP3    H271426   2.912   1.101  16.475 -0.5596  0.2270 -1.0068
16671TIP3   OH271427   4.468   1.473  14.492 -0.1556  0.3587 -0.5934
16671TIP3    H171428   4.390   1.425  14.516  0.4075 -0.7890 -0.9884
16671TIP3    H271429   4.436   1.559  14.464 -1.0697  0.6826  1.3238
16672TIP3   OH271430   1.966   1.373  14.382 -0.7561 -0.4367  0.2382
16672TIP3    H171431   1.917   1.428  14.443  0.9766  0.6165  0.7583
16672TIP3    H271432   1.980   1.291  14.429  1.5568  0.7625  1.8359
16673TIP3   OH271433   4.518   3.701   5.743 -0.3746  0.0694  0.9534
16673TIP3    H171434   4.566   3.640   5.799  1.9894  1.2327  0.2955
16673TIP3    H271435   4.507   3.780   5.796  1.0188  0.8247  0.1716
16674TIP3   OH271436   0.635   1.988   5.500 -0.0270 -0.0216  0.0013
16674TIP3    H171437   0.654   1.913   5.557 -0.1123  0.1034  0.1945
16674TIP3    H271438   0.540   1.998   5.505 -0.2286 -1.0205 -1.4280
16675TIP3   OH271439   6.138   0.817   1.488 -0.0179 -0.0116 -0.1716
16675TIP3    H171440   6.078   0.743   1.503  1.1779 -0.7976  1.0544
16675TIP3    H271441   6.120   0.845   1.399  0.0948 -2.3842 -1.0120
16676TIP3   OH271442   3.731   5.192  15.911  0.2475  0.1336 -0.2667
16676TIP3    H171443   3.646   5.148  15.897 -0.6249  1.6764 -0.0371
16676TIP3    H271444   3.777   5.180  15.828  0.3795 -1.8799  0.0562
16677TIP3   OH271445   0.503   1.424   3.742 -0.4288 -0.1865 -0.0148
16677TIP3    H171446   0.536   1.494   3.797 -1.1433  0.4358 -0.3610
16677TIP3    H271447   0.551   1.346   3.771 -0.3492  0.2442  1.0554
16678TIP3   OH271448   5.334   5.956  17.090 -0.0608 -0.2742 -0.2918
16678TIP3    H171449   5.312   6.023  17.025 -3.9448  1.3604  2.3271
16678TIP3    H271450   5.405   5.995  17.141 -0.0075  0.3699 -0.8421
16679TIP3   OH271451   5.927   1.522  12.919 -0.0108  0.1443  0.3029
16679TIP3    H171452   5.859   1.515  12.852  0.9913 -4.1107 -0.5971
16679TIP3    H271453   5.884   1.491  13.000 -0.8403  4.0000  1.5554
16680TIP3   OH271454   2.804   6.433  16.139  0.3486  0.6476  0.1304
16680TIP3    H171455   2.882   6.436  16.195  0.3673  1.8833  0.0675
16680TIP3    H271456   2.839   6.445  16.050  0.3908 -1.9378 -0.2729
16681TIP3   OH271457   2.821   2.242   3.932 -0.0447 -0.0152 -0.7589
16681TIP3    H171458   2.830   2.287   3.848 -0.7894  1.5884 -0.0305
16681TIP3    H271459   2.910   2.222   3.959  0.2689  0.4427 -1.4296
16682TIP3   OH271460   0.172   0.989   1.965  0.3795 -0.5602 -0.0149
16682TIP3    H171461   0.225   0.984   1.885 -1.3262 -1.2811 -1.1710
16682TIP3    H271462   0.085   0.960   1.937  0.0893 -2.3591  2.4760
16683TIP3   OH271463   5.177   0.384  13.464 -0.2149 -0.6022 -0.5055
16683TIP3    H171464   5.266   0.368  13.432  0.0523  0.9995 -0.6499
16683TIP3    H271465   5.128   0.414  13.388 -1.0619 -2.0456 -0.5541
16684TIP3   OH271466   5.870   5.122  16.098  0.0276  0.7851 -0.7303
16684TIP3    H171467   5.867   5.216  16.117 -1.2577  0.7376 -0.6129
16684TIP3    H271468   5.806   5.084  16.158  1.3254 -0.3356  0.0132
16685TIP3   OH271469   4.080   2.423   2.659  0.4079  0.6053  0.0899
16685TIP3    H171470   4.102   2.341   2.703 -0.9158 -0.2032 -0.6859
16685TIP3    H271471   4.121   2.416   2.573  0.0082  0.5956 -0.1032
16686TIP3   OH271472   4.513   5.649   0.225 -0.6041 -0.1005  0.0728
16686TIP3    H171473   4.548   5.620   0.141 -0.0579  0.2332  0.1784
16686TIP3    H271474   4.452   5.580   0.251  0.2917 -0.9034  0.0761
16687TIP3   OH271475   5.935   1.888  11.808  0.6235 -0.0148  0.1694
16687TIP3    H171476   5.910   1.965  11.859 -1.8577 -0.3010 -0.4919
16687TIP3    H271477   6.016   1.856  11.850  0.8433  2.0121  1.4072
16688TIP3   OH271478   1.939   2.489   6.076  0.3538  0.4641  0.0521
16688TIP3    H171479   1.992   2.409   6.080 -0.0439  0.2096  0.2468
16688TIP3    H271480   1.894   2.492   6.160 -0.0076  0.6351 -0.1453
16689TIP3   OH271481   0.942   4.227  14.130 -0.7535  0.0486  0.2673
16689TIP3    H171482   0.948   4.221  14.226  2.6541  1.1035  0.2203
16689TIP3    H271483   0.975   4.314  14.109 -3.1072  0.5491 -1.8547
16690TIP3   OH271484   4.212   1.135  15.785  0.2413 -0.3003 -0.0117
16690TIP3    H171485   4.253   1.161  15.868  0.9222  1.0813 -0.7538
16690TIP3    H271486   4.243   1.045  15.771 -0.3673 -0.7847  1.5033
16691TIP3   OH271487   4.303   1.366  13.340  0.2061  0.1632 -0.3501
16691TIP3    H171488   4.282   1.303  13.409 -1.0561  0.7131 -0.2080
16691TIP3    H271489   4.343   1.440  13.385  1.0584 -0.2210 -0.4417
16692TIP3   OH271490   4.791   3.419  12.120 -0.2715 -0.5878 -0.0030
16692TIP3    H171491   4.834   3.426  12.035 -1.3427 -1.8189 -0.6930
16692TIP3    H271492   4.860   3.435  12.184  0.7156 -0.3668 -1.0960
16693TIP3   OH271493   4.777   4.749   1.925 -0.0043 -0.4869 -0.5308
16693TIP3    H171494   4.769   4.830   1.875  0.6685 -0.5220 -0.7165
16693TIP3    H271495   4.789   4.778   2.016 -0.4784 -0.4008 -0.4950
16694TIP3   OH271496   4.699   5.390  14.676  0.1435  0.2458 -0.5579
16694TIP3    H171497   4.777   5.368  14.626  1.1894  3.3126 -0.4613
16694TIP3    H271498   4.732   5.407  14.765 -1.5552 -4.2695  1.2682
16695TIP3   OH271499   1.134   6.098  11.555  0.1754  0.2088  0.1040
16695TIP3    H171500   1.153   6.178  11.506 -0.0730  0.1865 -0.0298
16695TIP3    H271501   1.093   6.039  11.491  1.6531 -0.5731 -0.1672
16696TIP3   OH271502   4.714   1.088   4.243  0.9934 -0.2598  0.7326
16696TIP3    H171503   4.808   1.069   4.237  1.0144  0.3080 -1.8364
16696TIP3    H271504   4.710   1.169   4.293  2.4539  2.5310 -3.0940
16697TIP3   OH271505   4.134   1.543   5.622 -0.0641 -0.6229  0.1846
16697TIP3    H171506   4.141   1.487   5.545 -1.5709  0.9222 -1.1433
16697TIP3    H271507   4.066   1.606   5.600  1.3341  1.5471  1.7355
16698TIP3   OH271508   6.104   4.895   4.242 -0.7937 -0.1386 -0.4794
16698TIP3    H171509   6.177   4.902   4.304 -2.1469 -1.8408  1.4335
16698TIP3    H271510   6.145   4.870   4.159  0.8157 -1.0889  0.5545
16699TIP3   OH271511   0.133   5.123   1.263  1.0708  0.2701  0.3831
16699TIP3    H171512   0.078   5.190   1.304  1.2413 -1.0259  2.9126
16699TIP3    H271513   0.214   5.169   1.241 -0.1416  1.6929 -1.3878
16700TIP3   OH271514   6.329   3.478  17.056 -0.3787  0.0267 -1.0587
16700TIP3    H171515   6.250   3.474  17.110 -0.0440 -0.6565 -0.6055
16700TIP3    H271516   6.382   3.404  17.086 -0.1045 -0.2599 -2.2027
16701TIP3   OH271517   1.612   4.580   1.825 -0.6146 -0.0750  0.1451
16701TIP3    H171518   1.676   4.615   1.763  1.6685 -1.0810  1.7628
16701TIP3    H271519   1.531   4.626   1.805  0.9416  2.3524 -1.0977
16702TIP3   OH271520   6.496   0.966   1.477  0.3321  0.3490 -0.6536
16702TIP3    H171521   6.576   0.922   1.449  0.3838  0.2525 -0.3591
16702TIP3    H271522   6.478   1.030   1.408  1.6062  1.5776  0.0955
16703TIP3   OH271523   1.396   0.635  16.741  0.1180  0.6657 -0.7187
16703TIP3    H171524   1.310   0.599  16.723 -0.1780  0.2419  1.3172
16703TIP3    H271525   1.380   0.709  16.800  1.1782 -0.1991  0.7355
16704TIP3   OH271526   5.000   5.940   3.736  0.2309  0.3862 -0.3657
16704TIP3    H171527   5.043   6.001   3.795  1.6849  1.9093 -2.8674
16704TIP3    H271528   5.041   5.855   3.756  2.5194  1.3090 -0.8252
16705TIP3   OH271529   5.310   2.186  14.987 -0.1717  0.0188 -0.0531
16705TIP3    H171530   5.268   2.220  14.909  1.2771  2.6776  0.2178
16705TIP3    H271531   5.360   2.260  15.022  1.7563 -1.9308  1.6375
16706TIP3   OH271532   1.847   6.446  11.329 -0.4599 -0.6724  0.4693
16706TIP3    H171533   1.835   6.537  11.300  0.3111 -0.8764 -0.5720
16706TIP3    H271534   1.908   6.452  11.403  1.4757 -0.4702 -1.0444
16707TIP3   OH271535   0.463   6.025  12.629  0.4158  0.0934 -0.1589
16707TIP3    H171536   0.546   6.071  12.639  0.5105  0.2434 -1.4221
16707TIP3    H271537   0.431   6.013  12.718  1.3148  0.9061  0.2922
16708TIP3   OH271538   1.056   4.814  11.135 -0.2412  0.5307  0.0111
16708TIP3    H171539   1.111   4.760  11.191 -0.4743  0.0101 -0.2544
16708TIP3    H271540   1.050   4.765  11.053 -2.3288 -0.1808  0.5250
16709TIP3   OH271541   5.650   1.682   2.717  0.2357  0.2530 -0.8436
16709TIP3    H171542   5.644   1.736   2.638  0.4652  1.0866 -0.2998
16709TIP3    H271543   5.742   1.655   2.721  0.1091 -0.2526 -1.1471
16710TIP3   OH271544   2.790   6.374  17.293  0.4279  0.0039 -0.1365
16710TIP3    H171545   2.835   6.373  17.377 -1.1783 -0.5742  0.7692
16710TIP3    H271546   2.772   6.282  17.274 -1.9671  0.2813  0.4788
16711TIP3   OH271547   2.369   0.127  17.163 -0.3595  0.0727  0.1873
16711TIP3    H171548   2.411   0.184  17.226 -1.9432 -0.0694  1.4397
16711TIP3    H271549   2.284   0.107  17.201 -0.7813 -1.2401 -1.3019
16712TIP3   OH271550   2.959   3.044  15.198  0.1946  0.2533  0.2633
16712TIP3    H171551   2.976   3.135  15.218 -0.1834  0.1946  0.8671
16712TIP3    H271552   2.896   3.015  15.264 -0.5699 -0.1249 -0.5939
16713TIP3   OH271553   1.812   1.923  13.126 -0.2925  0.3873 -0.4457
16713TIP3    H171554   1.777   2.011  13.138 -0.7727  0.2810 -0.9893
16713TIP3    H271555   1.756   1.885  13.058 -1.2524 -0.9616  1.0230
16714TIP3   OH271556   6.491   0.449   5.719  0.6346 -0.4928  0.8456
16714TIP3    H171557   6.486   0.538   5.685  0.0376 -1.9804 -3.6425
16714TIP3    H271558   6.403   0.432   5.754  1.2238  1.0581  3.3373
16715TIP3   OH271559   6.546   6.018  17.243  0.2383  0.4455 -0.2376
16715TIP3    H171560   6.513   5.957  17.309  1.6940  0.5438  0.6295
16715TIP3    H271561   6.540   6.104  17.284 -1.4036  0.8755 -1.2936
16716TIP3   OH271562   5.306   5.964   6.012  0.1874  0.2669  0.7343
16716TIP3    H171563   5.223   5.959   5.964 -0.7158 -2.8240  2.3667
16716TIP3    H271564   5.365   5.906   5.963  1.9778  3.3987 -1.1598
16717TIP3   OH271565   6.518   1.664   5.219  0.0686 -0.5292 -0.0418
16717TIP3    H171566   6.489   1.742   5.172 -1.7676 -2.0381 -1.5490
16717TIP3    H271567   6.611   1.657   5.198  0.7657  2.1785  1.6113
16718TIP3   OH271568   5.035   4.633  16.697 -0.0457 -0.2599  0.6202
16718TIP3    H171569   5.050   4.615  16.604  1.7020 -2.1018  1.2007
16718TIP3    H271570   5.061   4.725  16.708 -0.9524  0.1954 -0.8191
16719TIP3   OH271571   3.179   5.788  12.909 -0.2371 -0.5641 -0.1843
16719TIP3    H171572   3.203   5.813  12.820  1.2712  1.4854  0.7346
16719TIP3    H271573   3.262   5.783  12.956 -0.9254 -2.4707  0.9623
16720TIP3   OH271574   6.220   0.200  16.177 -0.5880 -0.3542  0.0525
16720TIP3    H171575   6.249   0.238  16.094 -1.5863 -1.5822 -0.8945
16720TIP3    H271576   6.128   0.178  16.163 -0.7523 -0.6615  1.4624
16721TIP3   OH271577   6.399   0.635   3.345 -0.2049  0.1090  0.0562
16721TIP3    H171578   6.369   0.548   3.319  1.1901 -0.9489  1.7442
16721TIP3    H271579   6.335   0.663   3.410 -1.3827  0.9615 -1.4114
16722TIP3   OH271580   3.129   0.346  15.502 -0.5222 -0.6148 -0.1173
16722TIP3    H171581   3.126   0.314  15.412 -1.2426 -0.6354 -0.0915
16722TIP3    H271582   3.144   0.440  15.494 -0.7943 -0.5845 -0.2682
16723TIP3   OH271583   0.424   5.870  14.068  0.0521  0.1152  0.0455
16723TIP3    H171584   0.381   5.935  14.123 -2.1646 -0.8264 -0.4308
16723TIP3    H271585   0.442   5.797  14.127  1.0666  0.5263  0.2529
16724TIP3   OH271586   5.918   3.580   5.641 -0.4455  0.2961 -0.9459
16724TIP3    H171587   5.898   3.563   5.733  1.2613 -0.0028 -0.6083
16724TIP3    H271588   5.924   3.675   5.635 -0.4228  0.3078 -0.7289
16725TIP3   OH271589   6.221   3.112   6.097 -0.0427 -0.5252  0.1957
16725TIP3    H171590   6.142   3.146   6.055 -0.5702 -0.0427  1.5371
16725TIP3    H271591   6.287   3.114   6.028 -0.5205  1.5546 -0.2667
16726TIP3   OH271592   3.829   5.053   4.874  0.1246 -0.1580  0.3671
16726TIP3    H171593   3.803   5.056   4.782 -0.5919  0.7946  0.5860
16726TIP3    H271594   3.911   5.102   4.877 -0.4970  0.9313  0.4136
16727TIP3   OH271595   1.455   6.408   1.341 -0.1144  0.3572  0.0616
16727TIP3    H171596   1.377   6.450   1.377  0.4131  0.9644  0.5303
16727TIP3    H271597   1.494   6.475   1.284  0.1571  0.1211 -0.0300
16728TIP3   OH271598   1.499   0.544   3.591 -0.8945 -0.1051  0.6882
16728TIP3    H171599   1.517   0.497   3.672  2.9374  0.2898  0.2193
16728TIP3    H271600   1.506   0.477   3.523  0.0653  0.2786  0.3916
16729TIP3   OH271601   4.601   0.837   4.294  0.3564 -0.7236 -0.4751
16729TIP3    H171602   4.625   0.778   4.222 -0.6903  0.3345 -1.7502
16729TIP3    H271603   4.633   0.922   4.265 -2.7748  0.3244 -1.2235
16730TIP3   OH271604   4.279   2.020  15.244 -0.4645 -0.0245 -0.3930
16730TIP3    H171605   4.232   2.023  15.328  0.8701  0.5230  0.3707
16730TIP3    H271606   4.251   1.937  15.204  0.4764 -1.4197  1.6108
16731TIP3   OH271607   4.874   5.577  16.104  0.6017  0.0877  0.3445
16731TIP3    H171608   4.823   5.621  16.173  1.5000  0.4893  0.7658
16731TIP3    H271609   4.811   5.564  16.033  0.2301  1.8771  0.2793
16732TIP3   OH271610   5.606   0.926  15.969 -0.3910 -0.7122 -0.0373
16732TIP3    H171611   5.593   0.906  15.876  0.5931 -0.4187 -0.2517
16732TIP3    H271612   5.642   0.846  16.007  0.3188 -0.4709 -0.1732
16733TIP3   OH271613   0.109   4.304  15.501  0.3797 -0.1294  0.6434
16733TIP3    H171614   0.191   4.256  15.489  1.7654  2.6505 -2.1531
16733TIP3    H271615   0.128   4.365  15.572  0.4848  0.0410  0.4681
16734TIP3   OH271616   2.140   2.847   1.229 -0.3038 -0.0241 -0.1864
16734TIP3    H171617   2.058   2.893   1.210 -1.3725 -0.9024  1.9697
16734TIP3    H271618   2.159   2.869   1.320 -0.6159 -3.3780  0.8110
16735TIP3   OH271619   0.866   4.688  14.714 -0.4620  0.6968  0.1949
16735TIP3    H171620   0.838   4.736  14.792 -1.2713  0.4410  0.0730
16735TIP3    H271621   0.855   4.751  14.642 -0.8202  0.5692  0.1355
16736TIP3   OH271622   5.937   0.326  12.101 -0.2171  0.2158 -0.2481
16736TIP3    H171623   5.942   0.351  12.008 -0.5117 -0.6198 -0.4955
16736TIP3    H271624   5.844   0.331  12.121 -0.1784  0.1578 -0.0573
16737TIP3   OH271625   4.296   3.456  15.580  0.2461  0.5330  0.0140
16737TIP3    H171626   4.353   3.420  15.513  0.3443 -0.6823  0.7089
16737TIP3    H271627   4.353   3.511  15.634  0.9492 -1.1823  1.0891
16738TIP3   OH271628   6.699   1.120  14.894  0.1171  0.1026  0.0288
16738TIP3    H171629   6.786   1.159  14.886 -0.4048  1.0175 -1.8287
16738TIP3    H271630   6.663   1.156  14.975  2.3801 -2.3209  2.3127
16739TIP3   OH271631   3.010   4.181  13.852  0.0780 -0.1649  0.5984
16739TIP3    H171632   3.061   4.262  13.849 -1.4766  0.8449 -1.2690
16739TIP3    H271633   2.940   4.199  13.915 -0.4188  0.0881 -0.0078
16740TIP3   OH271634   2.700   0.800   0.893  0.1080  0.1489 -0.0471
16740TIP3    H171635   2.729   0.873   0.838 -0.3786  0.2101 -0.2246
16740TIP3    H271636   2.673   0.733   0.831 -0.0753  0.0700  0.1192
16741TIP3   OH271637   2.659   4.796  11.694 -0.0597  0.3096  0.3785
16741TIP3    H171638   2.745   4.798  11.653 -0.3803 -0.4516 -0.3494
16741TIP3    H271639   2.597   4.804  11.621 -0.6232 -0.0118  0.8141
16742TIP3   OH271640   3.124   1.440  10.761 -0.3337 -0.1966  0.0535
16742TIP3    H171641   3.218   1.428  10.775 -0.3176 -0.3552 -0.1765
16742TIP3    H271642   3.084   1.416  10.844 -0.2512 -1.1628 -0.1719
16743TIP3   OH271643   4.229   2.814   1.909 -0.1542 -0.4558  0.2326
16743TIP3    H171644   4.260   2.785   1.823 -1.1270  0.8776 -0.6175
16743TIP3    H271645   4.248   2.908   1.911 -1.4934 -0.1702  0.8449
16744TIP3   OH271646   2.424   1.663  10.929  0.0503 -0.2130 -0.3749
16744TIP3    H171647   2.472   1.741  10.955 -0.9762 -0.2478  1.8893
16744TIP3    H271648   2.416   1.670  10.833  0.0621  2.4006 -0.2590
16745TIP3   OH271649   4.261   2.788  17.298  0.1137 -0.1354 -0.5174
16745TIP3    H171650   4.172   2.819  17.285  0.5823  0.5610 -2.3777
16745TIP3    H271651   4.314   2.868  17.304  0.5525 -0.5204  1.3622
16746TIP3   OH271652   5.634   6.081  13.074 -0.0414  0.0408 -0.6096
16746TIP3    H171653   5.718   6.091  13.030 -0.0998 -0.4640 -0.8376
16746TIP3    H271654   5.570   6.114  13.012 -0.3011 -2.2009 -1.6206
16747TIP3   OH271655   5.743   6.099   5.807  0.5905 -0.0623 -0.4159
16747TIP3    H171656   5.714   6.103   5.715 -1.3154  1.1194  0.1673
16747TIP3    H271657   5.665   6.122   5.857  1.4145 -1.3009  1.5679
16748TIP3   OH271658   2.287   5.111   2.416 -0.1579  0.5863 -0.1516
16748TIP3    H171659   2.291   5.184   2.354  1.2566 -0.6348 -1.5845
16748TIP3    H271660   2.237   5.044   2.369 -0.3387  0.1620  0.6415
16749TIP3   OH271661   1.185   2.263  15.346 -0.6533 -0.1114  0.2228
16749TIP3    H171662   1.099   2.226  15.367 -0.8044  0.2592  0.2704
16749TIP3    H271663   1.185   2.270  15.250 -0.6348 -0.2113  0.2156
16750TIP3   OH271664   6.600   4.835  15.123 -0.3849  0.3517  0.2105
16750TIP3    H171665   6.667   4.767  15.112 -1.0222 -0.2374 -0.0929
16750TIP3    H271666   6.599   4.851  15.218 -0.4395 -0.2913  0.3272
16751TIP3   OH271667   4.144   4.259  12.345  0.1169 -0.5071  0.2687
16751TIP3    H171668   4.112   4.184  12.394  3.4134 -1.2784  1.4216
16751TIP3    H271669   4.192   4.312  12.409  0.6296  0.9045 -1.2070
16752TIP3   OH271670   1.258   2.795   5.224  0.0302 -0.7470  0.9674
16752TIP3    H171671   1.181   2.837   5.185  0.4308 -0.8261  0.0724
16752TIP3    H271672   1.315   2.868   5.247 -0.2754 -0.6919  1.5679
16753TIP3   OH271673   0.562   1.039   5.171  0.6437  0.3841 -0.1334
16753TIP3    H171674   0.606   1.056   5.087 -0.6538  0.3928 -0.8411
16753TIP3    H271675   0.567   1.122   5.218 -1.7091  1.5293 -1.7046
16754TIP3   OH271676   6.178   0.025  12.700 -0.3181  0.5815  0.7899
16754TIP3    H171677   6.094   0.010  12.657  0.2639  0.1601 -0.2602
16754TIP3    H271678   6.211   0.106  12.661  1.6802 -1.4070 -2.1477
16755TIP3   OH271679   0.078   4.927   2.903 -0.5888  0.3877 -0.1257
16755TIP3    H171680   0.017   4.857   2.927 -0.6858  0.0434 -1.3227
16755TIP3    H271681   0.128   4.891   2.830 -0.9086  1.7111 -1.0325
16756TIP3   OH271682   6.688   2.314  12.565  0.4065  0.2877 -0.3862
16756TIP3    H171683   6.677   2.324  12.659 -0.8818 -0.7759 -0.4001
16756TIP3    H271684   6.722   2.225  12.554 -1.2790 -0.3128 -1.0123
16757TIP3   OH271685   4.000   4.026   3.241 -0.3477 -0.7768  0.0941
16757TIP3    H171686   3.971   4.023   3.332 -0.2157  0.3017  0.1867
16757TIP3    H271687   4.082   4.076   3.243 -1.3071  0.9518 -0.8171
16758TIP3   OH271688   0.801   3.394   4.425 -0.0951  0.1356 -0.6506
16758TIP3    H171689   0.846   3.416   4.507  0.7487 -1.4856 -0.6341
16758TIP3    H271690   0.869   3.398   4.358 -0.7338  1.2337 -1.2549
16759TIP3   OH271691   1.518   0.860   4.779  0.1985  0.9500 -0.5743
16759TIP3    H171692   1.584   0.924   4.805  0.0049  1.0797 -0.4061
16759TIP3    H271693   1.472   0.837   4.860  2.3401 -1.8159  0.0373
16760TIP3   OH271694   0.048   6.575   3.351  0.3129  0.6144 -0.0431
16760TIP3    H171695  -0.003   6.572   3.271  0.4974 -0.5360 -0.1393
16760TIP3    H271696   0.009   6.645   3.403  0.2264  1.4091 -1.1482
16761TIP3   OH271697   4.984   4.957  16.961  0.0462 -0.1555  0.3460
16761TIP3    H171698   5.018   4.873  16.991 -1.7876 -1.5941 -1.2834
16761TIP3    H271699   4.900   4.935  16.920 -1.1637  2.6859  1.0785
16762TIP3   OH271700   4.602   4.340   4.699 -0.3544  0.2538  0.3396
16762TIP3    H171701   4.675   4.401   4.704  0.1016 -0.2990  0.5191
16762TIP3    H271702   4.597   4.302   4.787 -0.9619  0.4048  0.3746
16763TIP3   OH271703   5.131   3.284  14.103  0.3944  0.5469 -0.1039
16763TIP3    H171704   5.052   3.308  14.054 -1.3556 -0.2278  2.1441
16763TIP3    H271705   5.198   3.273  14.036 -1.6338  0.2868 -2.2319
16764TIP3   OH271706   0.281   2.646   0.797  0.0869  0.1110 -0.3604
16764TIP3    H171707   0.317   2.715   0.852  0.8930 -0.4398 -0.1831
16764TIP3    H271708   0.273   2.570   0.855  1.1682 -0.5463 -1.0278
16765TIP3   OH271709   5.002   2.585  13.788  0.2383 -0.7389 -0.4418
16765TIP3    H171710   5.073   2.649  13.778 -0.6964  0.7535  1.6469
16765TIP3    H271711   4.963   2.579  13.701  1.1431  0.5743 -0.9813
16766TIP3   OH271712   6.494   3.544   5.528 -0.0518  0.0897 -0.3803
16766TIP3    H171713   6.431   3.583   5.467  1.7518  2.8262 -0.6462
16766TIP3    H271714   6.534   3.618   5.572  3.4416 -1.4479 -0.6466
16767TIP3   OH271715   2.746   3.487  13.134  0.2395 -0.8544 -0.0542
16767TIP3    H171716   2.725   3.576  13.165  0.9718 -0.9683  0.8368
16767TIP3    H271717   2.670   3.460  13.084  0.0175  0.2959 -0.3575
16768TIP3   OH271718   2.436   3.476  17.122  0.0573  0.0952 -0.0088
16768TIP3    H171719   2.496   3.469  17.048  0.3292 -0.8115  0.2893
16768TIP3    H271720   2.490   3.460  17.199 -0.1218  1.5030  0.4475
16769TIP3   OH271721   3.554   3.031  12.335  0.6437 -0.2867  0.0359
16769TIP3    H171722   3.461   3.044  12.318  0.4637  1.0954  1.8325
16769TIP3    H271723   3.563   2.936  12.346 -0.9132 -0.3047  1.6347
16770TIP3   OH271724   2.517   1.210   5.746  0.4015  0.3348 -0.7081
16770TIP3    H171725   2.514   1.175   5.834 -1.5604 -0.4598 -1.0401
16770TIP3    H271726   2.610   1.228   5.730  1.0009 -1.0974  0.8782
16771TIP3   OH271727   2.395   5.834  12.623 -0.1163  0.5960 -0.1592
16771TIP3    H171728   2.412   5.847  12.530 -1.0106 -1.9169 -0.7563
16771TIP3    H271729   2.475   5.865  12.666  1.4850 -0.7134 -2.0072
16772TIP3   OH271730   0.232   1.897   5.289  0.2552  0.1339 -0.1311
16772TIP3    H171731   0.267   1.833   5.226  2.1052  0.6084  0.3498
16772TIP3    H271732   0.149   1.924   5.251  0.1899 -1.3546 -1.1581
16773TIP3   OH271733   3.718   3.531   4.694  0.5109  0.5007  0.3115
16773TIP3    H171734   3.703   3.516   4.788 -0.1775  1.6918  0.4039
16773TIP3    H271735   3.722   3.626   4.685  0.5881  0.3987 -0.8785
16774TIP3   OH271736   6.523   3.066  14.685  0.3754  0.1457  0.1790
16774TIP3    H171737   6.464   3.037  14.615  1.4926 -0.8598 -0.3647
16774TIP3    H271738   6.470   3.058  14.765 -0.6050  0.3991 -0.4232
16775TIP3   OH271739   6.622   3.326   6.045  0.1355 -0.2173 -0.7522
16775TIP3    H171740   6.628   3.269   5.969  0.7222 -0.9689 -0.1601
16775TIP3    H271741   6.542   3.298   6.090  1.4305 -1.9526  0.5897
16776TIP3   OH271742   4.031   5.338  13.323  0.1210 -0.3448 -0.1937
16776TIP3    H171743   3.948   5.291  13.314 -0.5108 -0.3019  3.6656
16776TIP3    H271744   4.028   5.406  13.255 -2.3705 -1.1846 -1.0222
16777TIP3   OH271745   4.298   5.405   1.320  0.2855 -0.0893 -0.1019
16777TIP3    H171746   4.274   5.339   1.256  2.4371 -0.9900 -0.0606
16777TIP3    H271747   4.281   5.488   1.276 -1.9281 -0.6183 -0.3573
16778TIP3   OH271748   1.617   3.847  14.871  0.0934  0.0794 -0.2030
16778TIP3    H171749   1.689   3.793  14.838 -0.2304 -0.5145  0.0419
16778TIP3    H271750   1.633   3.934  14.834  1.4810  0.2154  0.6614
16779TIP3   OH271751   2.817   1.613   5.953 -0.2770 -0.7235 -0.4148
16779TIP3    H171752   2.766   1.692   5.935 -0.6524 -0.3929  1.8563
16779TIP3    H271753   2.844   1.582   5.866 -2.6888  0.1515 -1.5676
16780TIP3   OH271754   3.389   2.276   4.815  0.0603 -0.1699 -0.1722
16780TIP3    H171755   3.482   2.271   4.836  0.5711  0.4954 -2.0868
16780TIP3    H271756   3.360   2.185   4.811  0.5520 -0.3743  0.6964
16781TIP3   OH271757   3.780   3.416   5.886  0.1075 -0.2244  0.6175
16781TIP3    H171758   3.766   3.322   5.893  0.8962 -0.4548 -0.5726
16781TIP3    H271759   3.696   3.451   5.856  0.4524 -0.8878 -1.2840
16782TIP3   OH271760   3.434   1.377   2.891  0.1942  0.1464 -0.6314
16782TIP3    H171761   3.407   1.288   2.868  0.9223 -0.2070 -0.1665
16782TIP3    H271762   3.493   1.403   2.820  1.0207 -0.2563 -0.1078
16783TIP3   OH271763   1.452   3.033  10.732 -0.0252  0.4615  0.1329
16783TIP3    H171764   1.420   3.012  10.820  0.5976  1.7460  0.6841
16783TIP3    H271765   1.517   3.102  10.746 -0.7525  1.5080 -1.4423
16784TIP3   OH271766   4.959   6.359  13.942 -0.1223 -0.3133  0.1708
16784TIP3    H171767   4.913   6.333  14.022 -0.2886 -0.7283 -0.0547
16784TIP3    H271768   4.996   6.277  13.909  2.0800  0.2035  1.1458
16785TIP3   OH271769   4.030   5.190   5.619 -0.0500  0.1536 -0.0766
16785TIP3    H171770   3.963   5.196   5.551 -1.0247 -1.6064  0.6525
16785TIP3    H271771   4.104   5.240   5.585 -1.6372  2.0298 -0.9970
16786TIP3   OH271772   5.554   0.230  12.356 -0.1554 -0.6118  0.1343
16786TIP3    H171773   5.573   0.298  12.291  0.9819  1.1001  2.1194
16786TIP3    H271774   5.459   0.226  12.360 -0.2350 -0.0920 -0.9876
16787TIP3   OH271775   4.245   2.193  12.618 -0.4694  0.2235 -0.2492
16787TIP3    H171776   4.261   2.127  12.551 -0.3078 -1.1937  1.1261
16787TIP3    H271777   4.281   2.274  12.581  0.3446 -0.6807 -1.5219
16788TIP3   OH271778   6.433   1.845  16.172  0.0515 -0.0199  0.4090
16788TIP3    H171779   6.526   1.860  16.154 -0.1394  0.1446 -0.4586
16788TIP3    H271780   6.398   1.932  16.194  0.0235 -0.0269  0.3913
16789TIP3   OH271781   3.303   1.554  14.173 -0.2458 -0.6292 -0.6164
16789TIP3    H171782   3.370   1.525  14.112 -1.4412 -0.5130 -2.0479
16789TIP3    H271783   3.342   1.627  14.220  1.0210 -1.3098 -0.5863
16790TIP3   OH271784   5.741   6.516   4.906  0.1103 -0.0932 -0.0137
16790TIP3    H171785   5.664   6.484   4.954  2.1035 -2.4854  1.8298
16790TIP3    H271786   5.760   6.602   4.945 -0.9218  0.0112  0.2915
16791TIP3   OH271787   2.484   4.435   4.397 -0.6252 -0.0407 -0.3505
16791TIP3    H171788   2.577   4.443   4.378 -0.8513 -0.2369 -1.6217
16791TIP3    H271789   2.452   4.526   4.400 -0.4200  0.0233  0.0159
16792TIP3   OH271790   0.117   5.912  12.728  0.4946 -0.3128 -0.7026
16792TIP3    H171791   0.194   5.961  12.701  0.7466 -1.4554 -2.2432
16792TIP3    H271792   0.148   5.856  12.800  0.5230  0.8067  0.1737
16793TIP3   OH271793   0.384   2.842   3.515  0.2250  0.0923 -0.0592
16793TIP3    H171794   0.471   2.813   3.490 -0.5672 -0.6022 -2.2218
16793TIP3    H271795   0.344   2.873   3.434 -1.9457 -0.6371  0.6499
16794TIP3   OH271796   2.405   2.793  12.911  0.2533  0.0155  0.1037
16794TIP3    H171797   2.358   2.797  12.995 -0.8496 -0.5667 -0.4632
16794TIP3    H271798   2.479   2.736  12.928  0.6604  0.7839  0.9686
16795TIP3   OH271799   2.031   0.569  16.537 -0.1204 -0.1502 -0.2317
16795TIP3    H171800   2.085   0.606  16.467  1.1455  0.0960  0.8327
16795TIP3    H271801   2.041   0.630  16.610 -0.4299 -1.0329  0.5642
16796TIP3   OH271802   6.269   6.336   2.822  0.0838  0.3864 -0.2402
16796TIP3    H171803   6.266   6.318   2.728  0.4175  1.2651 -0.4332
16796TIP3    H271804   6.184   6.305   2.855 -1.2986  2.6873 -1.3595
16797TIP3   OH271805   0.322   0.963  16.215  0.7071 -0.2136  0.0667
16797TIP3    H171806   0.313   1.055  16.191 -1.2602 -0.5180 -0.5207
16797TIP3    H271807   0.408   0.938  16.181 -0.3868  0.3532 -3.5125
16798TIP3   OH271808   6.767   0.433  12.504 -0.7966 -0.3044 -0.4331
16798TIP3    H171809   6.829   0.462  12.571  0.4859  0.8346 -2.0493
16798TIP3    H271810   6.762   0.506  12.442 -0.0590 -2.1925 -2.8673
16799TIP3   OH271811   2.626   3.030   5.408 -0.0639  0.3039 -0.2926
16799TIP3    H171812   2.609   3.121   5.386 -1.9507  0.6725  2.2175
16799TIP3    H271813   2.597   2.981   5.331 -1.4876  1.7071 -0.7034
16800TIP3   OH271814   0.954   1.614   3.651  0.1685 -0.3606  0.4424
16800TIP3    H171815   0.911   1.546   3.702  1.0724 -0.3148  1.2946
16800TIP3    H271816   1.046   1.612   3.680  0.4332  0.5144 -0.2692
16801TIP3   OH271817   6.684   2.953  15.551 -0.2388 -0.6893  0.1916
16801TIP3    H171818   6.735   2.884  15.509 -0.3919 -0.2187 -0.8150
16801TIP3    H271819   6.626   2.985  15.481  0.2281  0.8362  0.4655
16802TIP3   OH271820   0.499   0.545   2.622 -0.1560  0.2905  1.0440
16802TIP3    H171821   0.520   0.452   2.614  0.6386  0.5675 -0.6500
16802TIP3    H271822   0.411   0.547   2.660 -0.9229 -1.2312 -0.5027
16803TIP3   OH271823   1.557   0.423   6.120  0.2108 -0.2926 -0.4616
16803TIP3    H171824   1.597   0.503   6.155 -0.5331  0.9440 -2.3181
16803TIP3    H271825   1.572   0.427   6.026 -2.4562 -0.8276 -0.9859
16804TIP3   OH271826   6.625   1.537   3.191 -0.2056  0.0513  0.3342
16804TIP3    H171827   6.681   1.468   3.154 -0.0526 -0.5851  1.7029
16804TIP3    H271828   6.686   1.599   3.229 -0.3773 -1.1502  2.7318
16805TIP3   OH271829   1.502   1.547   2.725  0.5287 -0.4854  0.2838
16805TIP3    H171830   1.508   1.502   2.641  1.2237 -1.4430  0.8226
16805TIP3    H271831   1.408   1.544   2.747  0.1621  0.8330 -0.9881
16806TIP3   OH271832   0.872   0.103  16.347 -0.4652 -0.1561 -0.1980
16806TIP3    H171833   0.858   0.063  16.433 -0.3994 -0.1876 -0.2034
16806TIP3    H271834   0.963   0.082  16.325 -1.1407 -2.1896 -1.3418
16807TIP3   OH271835   3.039   6.358  15.935 -0.0969  0.2348 -0.7297
16807TIP3    H171836   3.090   6.301  15.877  1.7028  0.3590  0.6322
16807TIP3    H271837   2.952   6.360  15.896  0.3232 -1.8114 -1.9357
16808TIP3   OH271838   6.561   5.787  13.238 -0.0976  0.2589 -0.0030
16808TIP3    H171839   6.592   5.876  13.220  3.0543 -0.8690 -0.7198
16808TIP3    H271840   6.595   5.734  13.166 -1.1747 -1.6798  0.8454
16809TIP3   OH271841   3.993   4.081  15.201  0.5402 -0.3581 -0.7072
16809TIP3    H171842   3.984   4.137  15.124  0.2458 -1.2146 -1.3078
16809TIP3    H271843   4.083   4.095  15.230  0.5263  0.2861 -0.9531
16810TIP3   OH271844   3.086   2.176   1.044  0.0816 -0.2456 -0.3217
16810TIP3    H171845   3.092   2.172   1.140 -1.2601  0.0178 -0.2074
16810TIP3    H271846   3.043   2.095   1.019 -1.1411  0.4461 -0.5340
16811TIP3   OH271847   1.635   4.976  16.299  0.3185 -0.1589  0.4688
16811TIP3    H171848   1.651   5.050  16.357  0.6241  0.4338 -0.3650
16811TIP3    H271849   1.707   4.915  16.317 -0.7046 -0.9450  2.1967
16812TIP3   OH271850   3.887   3.433   5.025  0.5818  0.4856  0.1859
16812TIP3    H171851   3.899   3.528   5.031  0.0642  0.4628  3.6966
16812TIP3    H271852   3.793   3.420   5.015  0.8149  0.2681 -2.5451
16813TIP3   OH271853   3.204   4.830   1.002 -0.2631 -0.7050  0.6783
16813TIP3    H171854   3.127   4.882   0.978 -0.5404 -0.8559  1.2086
16813TIP3    H271855   3.172   4.740   1.005 -0.2506 -0.6914  1.6051
16814TIP3   OH271856   0.078   0.603   2.947 -0.4873  0.1201  0.4356
16814TIP3    H171857   0.018   0.669   2.981 -1.2567  0.3016 -1.1827
16814TIP3    H271858   0.126   0.572   3.023  0.1270  2.7679  1.2141
16815TIP3   OH271859   4.645   4.698   0.793  0.5685 -0.1936 -0.5234
16815TIP3    H171860   4.656   4.723   0.702 -3.8277  0.3104 -1.0914
16815TIP3    H271861   4.612   4.609   0.790 -0.2789  0.0641  0.5273
16816TIP3   OH271862   2.919   4.178  11.609 -0.6977 -0.1065 -0.6093
16816TIP3    H171863   2.837   4.227  11.601 -1.2270 -0.9634 -0.5807
16816TIP3    H271864   2.972   4.207  11.534 -0.3563  1.6484  0.2579
16817TIP3   OH271865   3.804   1.059   1.634  0.5321 -0.6430  0.2106
16817TIP3    H171866   3.761   1.070   1.549  0.6607  1.5458  0.3738
16817TIP3    H271867   3.895   1.038   1.612  1.0765  1.8673 -0.3286
16818TIP3   OH271868   3.277   0.927   6.489 -0.2625  0.0169 -0.0407
16818TIP3    H171869   3.370   0.945   6.476 -0.4049  0.3946 -0.5938
16818TIP3    H271870   3.269   0.832   6.477 -0.0040  0.0332 -0.3788
16819TIP3   OH271871   2.374   2.957  16.444  0.0933 -0.2310 -0.0359
16819TIP3    H171872   2.373   2.885  16.506 -0.2183 -0.0477  0.1764
16819TIP3    H271873   2.449   2.940  16.387  0.8398  0.0067  0.8682
16820TIP3   OH271874   5.947   3.126   0.470  0.2308 -0.4716 -0.5845
16820TIP3    H171875   5.987   3.070   0.404  1.2746 -2.5102  1.6294
16820TIP3    H271876   5.863   3.084   0.489 -0.3279  0.4296 -0.9839
16821TIP3   OH271877   1.783   6.211  16.578 -0.4169 -0.6532  1.3328
16821TIP3    H171878   1.742   6.200  16.492 -0.1014  0.0539  1.0903
16821TIP3    H271879   1.778   6.305  16.596  0.1437 -0.7049  1.7786
16822TIP3   OH271880   6.419   5.384   4.287  0.4624 -0.2587 -0.1032
16822TIP3    H171881   6.489   5.445   4.309  1.8214 -1.1871 -1.6556
16822TIP3    H271882   6.385   5.417   4.203  0.1614 -0.7706 -0.1839
16823TIP3   OH271883   5.016   3.474  17.001 -0.6447 -0.8163 -0.2923
16823TIP3    H171884   4.929   3.468  16.961 -0.3629 -2.1405 -0.7538
16823TIP3    H271885   5.004   3.436  17.088 -1.2411  1.9944  0.9742
16824TIP3   OH271886   4.941   3.457   2.047  0.2945  0.1771 -0.1451
16824TIP3    H171887   4.989   3.497   2.119 -0.5028 -0.6024  0.8466
16824TIP3    H271888   4.943   3.363   2.065 -0.1144 -0.0089 -1.0148
16825TIP3   OH271889   1.900   0.215   2.388  0.3603 -0.0707 -0.3909
16825TIP3    H171890   1.932   0.159   2.458 -0.3196 -0.7967 -0.6480
16825TIP3    H271891   1.838   0.274   2.431  1.8063  1.1808  0.0629
16826TIP3   OH271892   3.243   5.973   5.005  0.1749  0.3028  0.6666
16826TIP3    H171893   3.301   5.901   5.031  2.6268  0.4031 -3.5188
16826TIP3    H271894   3.301   6.050   4.999 -0.8945  1.0528 -1.0785
16827TIP3   OH271895   0.731   2.283   3.563 -0.4889 -0.0445 -0.4579
16827TIP3    H171896   0.650   2.333   3.576 -1.3930 -1.4650 -0.4530
16827TIP3    H271897   0.730   2.218   3.633  1.3295  0.7002  0.3322
16828TIP3   OH271898   6.136   5.728  14.272  0.4813  0.3126  0.8383
16828TIP3    H171899   6.051   5.756  14.307  0.3448  0.9775  0.0010
16828TIP3    H271900   6.137   5.759  14.182  1.2522 -0.4836  0.5547
16829TIP3   OH271901   3.489   0.974  12.880 -0.3759 -0.8508 -0.3024
16829TIP3    H171902   3.535   1.012  12.954 -0.9466 -1.4629  0.3793
16829TIP3    H271903   3.490   1.043  12.813 -0.0532 -0.2123  0.3446
16830TIP3   OH271904   4.902   3.612  13.824  0.2370  0.3210 -0.2736
16830TIP3    H171905   4.839   3.672  13.786  1.1657  0.2764 -1.9865
16830TIP3    H271906   4.978   3.617  13.766  0.7549 -1.6943  0.1473
16831TIP3   OH271907   3.969   0.712  12.334 -0.2461 -0.2880  0.2433
16831TIP3    H171908   3.917   0.684  12.258 -0.9856 -0.0309  0.6516
16831TIP3    H271909   3.908   0.709  12.408 -0.6604  3.2347  0.1940
16832TIP3   OH271910   6.261   1.883  15.575 -0.2674  0.1798 -0.3138
16832TIP3    H171911   6.290   1.792  15.572  0.5700  0.3430  1.5703
16832TIP3    H271912   6.166   1.879  15.563 -0.3396 -1.0125  0.5369
16833TIP3   OH271913   4.444   5.039   0.923  0.5123 -0.3960 -0.0021
16833TIP3    H171914   4.446   5.128   0.889 -2.9969 -0.1295  0.1079
16833TIP3    H271915   4.450   4.983   0.846 -0.5725  0.0597 -0.4411
16834TIP3   OH271916   2.655   5.662   1.969  0.7776 -0.0398  0.3141
16834TIP3    H171917   2.611   5.622   1.894 -0.9554  0.4752  1.0026
16834TIP3    H271918   2.707   5.732   1.932 -0.5447  0.6040 -0.3876
16835TIP3   OH271919   5.798   1.669  10.701  0.3083  0.0425 -0.6385
16835TIP3    H171920   5.747   1.749  10.688  0.5085  0.1177 -0.9786
16835TIP3    H271921   5.745   1.616  10.759 -1.1463 -0.7563 -2.5821
16836TIP3   OH271922   2.764   3.179   0.950  0.0496  0.3641 -0.2504
16836TIP3    H171923   2.670   3.188   0.932  0.0078  1.4604  0.3958
16836TIP3    H271924   2.791   3.267   0.976  1.1513 -0.0565  0.0602
16837TIP3   OH271925   6.099   3.693  10.917  0.0287  0.5472  0.3592
16837TIP3    H171926   6.022   3.660  10.963  1.7300 -0.8037  2.4188
16837TIP3    H271927   6.163   3.712  10.985  2.2254 -0.2757 -1.3075
16838TIP3   OH271928   6.407   0.386  16.265  0.3696  0.1192  0.4967
16838TIP3    H171929   6.444   0.368  16.352  0.2917  0.4721  0.6061
16838TIP3    H271930   6.348   0.313  16.249  1.0677 -0.4138  0.3465
16839TIP3   OH271931   4.473   3.568  13.395 -0.2889  0.4748  0.1501
16839TIP3    H171932   4.432   3.511  13.460  0.1438 -0.4459 -0.3797
16839TIP3    H271933   4.567   3.550  13.402 -0.3628 -1.4490 -2.3422
16840TIP3   OH271934   3.905   2.161   3.854  0.2159  0.0068  0.7113
16840TIP3    H171935   3.919   2.092   3.789  1.1083 -1.4888  2.4267
16840TIP3    H271936   3.820   2.199   3.830  0.4190 -0.6089 -1.1771
16841TIP3   OH271937   4.856   3.378   0.546 -0.6543  0.1545 -0.1551
16841TIP3    H171938   4.902   3.313   0.599  1.0959  2.7183  1.7184
16841TIP3    H271939   4.900   3.375   0.461  0.2021 -0.2970  0.2929
16842TIP3   OH271940   2.031   4.640   2.088  0.2217  0.1076 -0.3049
16842TIP3    H171941   2.015   4.734   2.086  1.1806  0.3399  1.2929
16842TIP3    H271942   1.980   4.605   2.015 -1.1502  1.6990 -0.1506
16843TIP3   OH271943   3.877   2.504  16.004 -0.3451  0.1332  0.0952
16843TIP3    H171944   3.882   2.599  16.018  0.7926  0.1352 -0.2065
16843TIP3    H271945   3.879   2.494  15.909 -0.2119 -0.1990  0.1338
16844TIP3   OH271946   3.633   5.961  13.396 -0.3719  0.2886 -0.1037
16844TIP3    H171947   3.590   5.965  13.310  2.7802 -1.3330 -1.9352
16844TIP3    H271948   3.637   5.868  13.416 -0.1058  0.5900  1.3061
16845TIP3   OH271949   1.739   4.559  12.884  0.0514 -0.1415  0.2663
16845TIP3    H171950   1.736   4.468  12.854 -1.5551 -0.9675  2.6462
16845TIP3    H271951   1.756   4.553  12.978  0.9842  2.0964  0.3023
16846TIP3   OH271952   3.395   4.398   6.050  0.8131 -0.1529  0.3361
16846TIP3    H171953   3.361   4.332   6.111  0.6052  0.1320  0.5306
16846TIP3    H271954   3.358   4.481   6.081 -0.6224 -0.1956 -1.1004
16847TIP3   OH271955   2.067   5.212  14.778 -0.7657  0.3721 -0.1110
16847TIP3    H171956   2.162   5.207  14.769 -0.7637  1.1065 -0.5773
16847TIP3    H271957   2.044   5.138  14.835 -0.1019 -0.7885 -1.3004
16848TIP3   OH271958   0.162   1.583   5.406 -0.4158 -0.2854 -0.4646
16848TIP3    H171959   0.105   1.566   5.481 -0.1721 -2.9746 -0.8040
16848TIP3    H271960   0.134   1.669   5.374 -0.1747  1.2541  2.9615
16849TIP3   OH271961   2.067   5.441   4.258 -1.0289  0.2421  0.5755
16849TIP3    H171962   2.072   5.525   4.214  1.0482  0.8613  1.8744
16849TIP3    H271963   2.000   5.453   4.325 -0.9616  0.7525  0.5533
16850TIP3   OH271964   5.932   4.120   5.759  0.0629 -0.2221  0.2656
16850TIP3    H171965   5.842   4.152   5.769  0.2884  0.1440  1.1805
16850TIP3    H271966   5.979   4.192   5.717  0.5465  0.6565  2.2342
16851TIP3   OH271967   2.386   3.760  12.310  0.1528  0.2334  0.4587
16851TIP3    H171968   2.356   3.829  12.252 -1.4118 -0.0519  0.8724
16851TIP3    H271969   2.406   3.804  12.393 -1.1065  0.1924  0.8091
16852TIP3   OH271970   2.667   2.924  16.316 -0.1689 -0.6035  0.4618
16852TIP3    H171971   2.680   2.830  16.321 -0.3478 -0.8302 -1.9379
16852TIP3    H271972   2.752   2.962  16.338  0.5560 -1.4537 -0.7358
16853TIP3   OH271973   4.924   2.566  13.520 -0.1503  0.3123 -0.2725
16853TIP3    H171974   4.985   2.535  13.453 -0.5637  0.2011 -0.6031
16853TIP3    H271975   4.851   2.604  13.471 -0.8277 -0.4747  0.0889
16854TIP3   OH271976   3.208   3.563  13.196 -0.1324  0.1589 -0.1337
16854TIP3    H171977   3.129   3.544  13.146  0.1363 -0.3646 -0.3605
16854TIP3    H271978   3.279   3.522  13.147  0.3896  1.2390 -0.3240
16855TIP3   OH271979   1.275   1.936   2.227 -0.5545 -0.0174 -0.1479
16855TIP3    H171980   1.347   1.899   2.176  0.2851  0.7489  0.4575
16855TIP3    H271981   1.197   1.918   2.175  0.2748  0.7842 -1.7461
16856TIP3   OH271982   2.060   0.070  12.161  0.3087  0.1413  0.1066
16856TIP3    H171983   2.012   0.074  12.078  0.3769  0.2584  0.0719
16856TIP3    H271984   2.147   0.104  12.140  0.8111 -1.1937 -0.1214
16857TIP3   OH271985   0.632   1.762   2.474  0.1502 -0.3974 -0.3361
16857TIP3    H171986   0.583   1.837   2.509  0.8785  0.5208 -1.2276
16857TIP3    H271987   0.573   1.722   2.410  0.2232  0.2032 -0.7931
16858TIP3   OH271988   4.033   2.642   1.650 -0.2535 -0.0881 -0.1065
16858TIP3    H171989   4.026   2.728   1.610 -2.1440 -0.6232 -1.0498
16858TIP3    H271990   3.999   2.653   1.738  0.5921  0.3476  0.1758
16859TIP3   OH271991   6.237   3.912   4.827 -0.6628  0.0071 -0.3523
16859TIP3    H171992   6.263   3.958   4.907  0.9566 -2.1947  0.5035
16859TIP3    H271993   6.168   3.852   4.854  0.8648 -1.7652 -0.2163
16860TIP3   OH271994   1.770   2.422   0.526  0.0487  0.0889  0.0193
16860TIP3    H171995   1.687   2.426   0.573  0.3840  0.2554  0.6038
16860TIP3    H271996   1.766   2.339   0.477  0.2394 -0.7522  1.3821
16861TIP3   OH271997   1.849   5.868  17.070 -0.3543  0.6471 -0.6273
16861TIP3    H171998   1.873   5.781  17.101  1.1762  1.3110  0.1987
16861TIP3    H271999   1.895   5.877  16.987 -0.2414  0.7889 -0.5493
16862TIP3   OH272000   4.601   5.546   3.290  0.0317  0.0570 -0.2128
16862TIP3    H172001   4.617   5.633   3.327 -0.6789  0.4179 -0.7357
16862TIP3    H272002   4.525   5.513   3.338  1.4332 -1.1001  1.3326
16863TIP3   OH272003   5.010   5.186   1.640 -0.0497 -0.1093  0.9110
16863TIP3    H172004   5.048   5.171   1.554 -0.0350  1.4057  0.6286
16863TIP3    H272005   5.015   5.101   1.684  1.4647 -0.5127  0.0187
16864TIP3   OH272006   1.078   2.416  13.364  0.1265 -0.2508  0.4967
16864TIP3    H172007   1.053   2.509  13.363 -0.5440 -0.4319  0.0492
16864TIP3    H272008   1.151   2.411  13.303  1.8695  0.4195  2.3790
16865TIP3   OH272009   3.437   3.400  14.568  0.2944 -0.2531  0.2029
16865TIP3    H172010   3.487   3.465  14.618  0.3769 -0.6115  0.5947
16865TIP3    H272011   3.468   3.315  14.602  0.2006 -0.4970 -0.3097
16866TIP3   OH272012   2.353   6.632  17.113 -0.1881  0.2157  0.6763
16866TIP3    H172013   2.378   6.724  17.123 -1.7756  0.7470  0.0715
16866TIP3    H272014   2.304   6.629  17.031  2.4570 -1.7939 -1.0266
16867TIP3   OH272015   1.782   0.079   2.185  0.3620 -0.0372  0.3445
16867TIP3    H172016   1.830   0.115   2.110  0.0429  0.8433  0.5460
16867TIP3    H272017   1.812   0.131   2.260  0.4115 -0.6695  0.7714
16868TIP3   OH272018   6.007   0.834  14.283 -0.4846  0.1144  0.4739
16868TIP3    H172019   6.075   0.848  14.218  0.2728  0.8522  1.3904
16868TIP3    H272020   6.050   0.782  14.352 -1.5176 -1.4322  0.0078
16869TIP3   OH272021   0.670   3.297  16.330 -0.3453  0.6792 -0.3476
16869TIP3    H172022   0.575   3.306  16.322 -0.3476  0.7391 -0.2616
16869TIP3    H272023   0.703   3.310  16.242 -0.4290  0.5036 -0.4049
16870TIP3   OH272024   2.531   3.218   1.737 -0.2860  0.0631 -0.0412
16870TIP3    H172025   2.594   3.240   1.806  2.0039  1.8000 -2.4814
16870TIP3    H272026   2.555   3.128   1.712 -1.5718 -0.8424  1.7419
16871TIP3   OH272027   4.633   1.784  13.991 -0.2142  0.1424 -0.9425
16871TIP3    H172028   4.568   1.751  13.929  0.9878  0.7289 -2.5841
16871TIP3    H272029   4.616   1.879  13.995 -0.9618 -0.0240  0.4940
16872TIP3   OH272030   2.215   4.327  14.096  0.2226 -0.0706  0.2871
16872TIP3    H172031   2.176   4.354  14.179 -0.5913  0.0024 -0.1177
16872TIP3    H272032   2.249   4.239  14.113  0.9393  0.3198  0.9715
16873TIP3   OH272033   1.767   4.631   1.564 -0.5237 -0.0935  0.4251
16873TIP3    H172034   1.753   4.725   1.554  0.1004 -0.0867 -0.4863
16873TIP3    H272035   1.683   4.592   1.541 -0.4655  0.1917 -0.2924
16874TIP3   OH272036   5.474   4.220   2.245 -0.6340 -0.0731 -0.0522
16874TIP3    H172037   5.471   4.152   2.178  2.4949 -0.6390  0.1978
16874TIP3    H272038   5.518   4.294   2.202  0.7579 -0.1770  1.1033
16875TIP3   OH272039   5.642   3.544   3.398 -0.2256 -0.0540  0.4777
16875TIP3    H172040   5.557   3.518   3.432  0.5999 -0.0181  2.6964
16875TIP3    H272041   5.622   3.604   3.326 -2.0563 -1.6446 -0.4259
16876TIP3   OH272042   1.137   0.925  15.748 -0.4421  0.3537  0.7854
16876TIP3    H172043   1.133   0.837  15.710 -1.7867  0.2729  1.0845
16876TIP3    H272044   1.201   0.970  15.694  0.3234 -0.8211  0.6650
16877TIP3   OH272045   1.058   4.022  14.916  0.3981 -0.3535 -0.2268
16877TIP3    H172046   0.978   4.018  14.968  0.6165 -0.7725  0.0744
16877TIP3    H272047   1.127   4.042  14.979  0.5507 -0.0766 -0.4742
16878TIP3   OH272048   3.762   4.143  14.538  0.3942  0.1801  0.2716
16878TIP3    H172049   3.752   4.059  14.493 -1.1524  1.5169 -2.1405
16878TIP3    H272050   3.849   4.139  14.577  0.7037 -2.2134 -0.5145
16879TIP3   OH272051   3.635   6.713  14.117 -0.2149  0.3870 -0.4005
16879TIP3    H172052   3.599   6.628  14.143 -1.4727  0.5449 -1.4675
16879TIP3    H272053   3.573   6.746  14.051 -0.1909  2.4775  0.5261
16880TIP3   OH272054   3.689   4.632  13.917  0.2977  0.0705 -0.1443
16880TIP3    H172055   3.699   4.542  13.951 -0.5300 -0.3786 -1.0381
16880TIP3    H272056   3.684   4.686  13.996 -1.1309 -0.9007  0.4926
16881TIP3   OH272057   4.777   1.880   4.870  0.1163 -0.4118 -0.0014
16881TIP3    H172058   4.808   1.916   4.787  1.6800  0.0497  0.7495
16881TIP3    H272059   4.730   1.801   4.845 -2.7418  1.6309 -1.6259
16882TIP3   OH272060   0.259   4.908   3.678 -0.1763 -0.3290 -0.2127
16882TIP3    H172061   0.339   4.861   3.651 -0.1085 -0.5198  0.3060
16882TIP3    H272062   0.228   4.950   3.598  2.3013  2.5847  0.2061
16883TIP3   OH272063   5.921   6.369   0.797  0.1955  0.3538  0.2241
16883TIP3    H172064   5.826   6.358   0.789  0.0789  2.4122 -2.5198
16883TIP3    H272065   5.952   6.285   0.831 -2.2719 -1.5463 -1.8682
16884TIP3   OH272066   4.482   0.501   2.978 -0.2016 -0.0851  0.1435
16884TIP3    H172067   4.454   0.438   2.912 -2.0760 -0.9072  1.6332
16884TIP3    H272068   4.568   0.530   2.948  0.5971 -3.0640 -0.7996
16885TIP3   OH272069   4.959   1.603  13.545  0.3202 -0.6946  0.0299
16885TIP3    H172070   4.999   1.690  13.536  1.4805 -1.2621 -0.5667
16885TIP3    H272071   4.866   1.618  13.528  0.7312  0.1815 -1.7737
16886TIP3   OH272072   3.308   5.803  13.713  0.2789  0.7726  0.4146
16886TIP3    H172073   3.316   5.899  13.706 -1.0543  0.8891  0.3691
16886TIP3    H272074   3.312   5.773  13.622 -1.3722  0.9752  0.2531
16887TIP3   OH272075   6.616   0.276  14.737 -0.1056  0.5996 -0.0473
16887TIP3    H172076   6.637   0.360  14.778  1.0126  0.0619  0.5300
16887TIP3    H272077   6.661   0.211  14.791 -1.7991 -0.4806  0.1311
16888TIP3   OH272078   3.653   5.293   2.489 -0.3540  0.4033  0.3898
16888TIP3    H172079   3.692   5.309   2.575 -1.1420 -1.4093  1.1498
16888TIP3    H272080   3.561   5.318   2.500 -0.7871 -1.1577  0.5531
16889TIP3   OH272081   3.740   6.757   0.303 -0.6147  0.1720 -0.3446
16889TIP3    H172082   3.805   6.815   0.342 -2.6096  1.2914  1.5419
16889TIP3    H272083   3.728   6.790   0.214  1.5081 -0.2218 -0.8280
16890TIP3   OH272084   0.021   1.597  16.597  0.3486 -0.1625 -0.4578
16890TIP3    H172085   0.105   1.639  16.579  1.0342 -1.6797 -0.9586
16890TIP3    H272086   0.013   1.600  16.692  1.3551 -0.6822 -0.3392
16891TIP3   OH272087   5.382   4.953   2.574 -0.1091  0.6500 -0.5202
16891TIP3    H172088   5.402   5.044   2.598  0.1095  0.2058  1.1416
16891TIP3    H272089   5.329   4.921   2.647  1.0532 -0.9830 -0.3288
16892TIP3   OH272090   0.561   5.742   1.556  0.1187 -0.0039  0.0946
16892TIP3    H172091   0.637   5.798   1.539  0.2113  0.2877  1.3792
16892TIP3    H272092   0.506   5.794   1.616 -0.0284 -1.0872  0.9210
16893TIP3   OH272093   3.252   5.795  14.361  0.3236 -0.1821 -0.2472
16893TIP3    H172094   3.234   5.827  14.449  0.4728 -1.2517  0.1898
16893TIP3    H272095   3.289   5.708  14.375  1.3608  0.0559 -1.3266
16894TIP3   OH272096   0.010   4.223  13.480  0.1052  0.2240  0.5120
16894TIP3    H172097  -0.011   4.163  13.551  1.9234 -0.7731  0.2736
16894TIP3    H272098  -0.073   4.265  13.458 -1.7007 -3.4081 -0.4329
16895TIP3   OH272099   1.773   0.220   4.889 -0.1937  0.3596  0.4149
16895TIP3    H172100   1.837   0.287   4.913 -0.4688  0.8795 -0.2552
16895TIP3    H272101   1.695   0.242   4.941 -0.9837  1.8287 -1.2743
16896TIP3   OH272102   0.757   2.771  15.929 -0.5819  0.0709 -0.0528
16896TIP3    H172103   0.849   2.747  15.936 -0.3918  0.2301 -1.6889
16896TIP3    H272104   0.733   2.798  16.018  0.9360  0.0263  0.4050
16897TIP3   OH272105   2.797   1.534   3.385  0.0425 -0.1687  0.3584
16897TIP3    H172106   2.794   1.514   3.479  2.0632 -3.4719 -0.1034
16897TIP3    H272107   2.886   1.509   3.359 -0.7271 -0.1466 -2.6026
16898TIP3   OH272108   3.185   0.072  13.859 -0.5952 -0.7654 -0.1186
16898TIP3    H172109   3.253   0.099  13.797  0.8517 -3.7639 -0.0295
16898TIP3    H272110   3.111   0.129  13.839  1.7728  2.5480 -0.3844
16899TIP3   OH272111   2.211   5.006  11.519 -0.7034 -0.2241  0.5398
16899TIP3    H172112   2.225   4.930  11.575 -0.9795 -0.7615 -0.1036
16899TIP3    H272113   2.298   5.027  11.485 -0.1667  1.3546  2.6994
16900TIP3   OH272114   4.267   4.682   6.353 -0.2649 -0.6899 -0.8588
16900TIP3    H172115   4.209   4.714   6.284 -1.2588 -0.7326 -0.0653
16900TIP3    H272116   4.210   4.632   6.411 -0.0167  1.3669  1.3495
16901TIP3   OH272117   3.359   3.240   3.696  0.3111  0.4275  0.0588
16901TIP3    H172118   3.443   3.275   3.664  0.5470 -1.4590 -1.5814
16901TIP3    H272119   3.342   3.164   3.640 -1.2581 -0.7552  2.0132
16902TIP3   OH272120   2.440   4.573   4.141  0.5016  0.1033  0.1970
16902TIP3    H172121   2.459   4.542   4.052  0.6965  0.0188  0.2672
16902TIP3    H272122   2.450   4.495   4.195  0.1533  0.1041  0.2623
16903TIP3   OH272123   0.336   3.467   5.967  0.0617  0.5018  0.0189
16903TIP3    H172124   0.367   3.421   6.045  1.4906 -0.4021 -1.0359
16903TIP3    H272125   0.399   3.537   5.953 -0.9691  1.5339  0.4499
16904TIP3   OH272126   6.642   4.699   1.651  0.5526  0.0108  0.1764
16904TIP3    H172127   6.618   4.610   1.675  1.3413  0.0386  1.1076
16904TIP3    H272128   6.666   4.693   1.558 -0.0687 -0.5954  0.0461
16905TIP3   OH272129   5.779   1.320   4.496  0.2206 -0.1454 -0.2890
16905TIP3    H172130   5.840   1.383   4.458 -1.2626  0.8657 -1.1205
16905TIP3    H272131   5.757   1.261   4.423  0.2674 -0.5504  0.0211
16906TIP3   OH272132   1.753   3.395   1.878 -0.4535  0.6748  0.2302
16906TIP3    H172133   1.735   3.327   1.942 -0.6732  0.5895  0.0775
16906TIP3    H272134   1.781   3.471   1.931 -1.4650  0.8773  0.4824
16907TIP3   OH272135   0.494   5.194   2.851  0.0833  0.3187 -0.1848
16907TIP3    H172136   0.452   5.130   2.793  0.5525  1.8727 -2.3264
16907TIP3    H272137   0.566   5.145   2.892 -0.1112 -0.7611 -1.0745
16908TIP3   OH272138   6.742   2.872   1.993 -0.7960  0.2080  0.0037
16908TIP3    H172139   6.838   2.876   1.991 -0.8266  1.8173  0.5480
16908TIP3    H272140   6.716   2.875   1.901 -0.3343 -1.0907 -0.2034
16909TIP3   OH272141   0.160   0.195   4.348  0.3847  0.1310  0.2651
16909TIP3    H172142   0.153   0.103   4.323  0.8750 -0.0854  0.8976
16909TIP3    H272143   0.071   0.230   4.336  0.0249 -0.6031  0.6842
16910TIP3   OH272144   6.009   6.277  12.059  0.6095  0.2103 -0.3744
16910TIP3    H172145   5.992   6.207  12.123  1.0308  1.1642  0.8156
16910TIP3    H272146   6.066   6.338  12.105 -1.9681  2.7884 -0.3678
16911TIP3   OH272147   5.094   2.991   0.085  0.2197 -0.5521 -0.6115
16911TIP3    H172148   5.055   2.904   0.083  0.7599 -0.7921 -1.2682
16911TIP3    H272149   5.188   2.975   0.089  0.3791 -0.0202 -1.6877
16912TIP3   OH272150   5.468   0.374   3.068  1.1560 -0.5630  0.2048
16912TIP3    H172151   5.560   0.398   3.072  0.9487  0.2414  0.4212
16912TIP3    H272152   5.468   0.282   3.042  2.0100 -0.5302  0.0596
16913TIP3   OH272153   4.610   6.663   4.390  0.0652 -1.1092  0.4475
16913TIP3    H172154   4.593   6.622   4.474 -0.9201  0.1633  0.8955
16913TIP3    H272155   4.524   6.677   4.351  0.3148  0.7267  0.4427
16914TIP3   OH272156   2.123   4.557  14.347 -0.1081  0.6012 -0.0107
16914TIP3    H172157   2.215   4.574  14.323 -0.1421 -0.6237 -1.1306
16914TIP3    H272158   2.104   4.621  14.415  1.7290  0.5640  0.5923
16915TIP3   OH272159   5.643   3.653   5.964 -0.1862 -0.2606  0.3069
16915TIP3    H172160   5.729   3.627   5.932  1.1327  0.7275  2.7206
16915TIP3    H272161   5.594   3.571   5.973  1.3616 -1.1270  1.1243
16916TIP3   OH272162   6.014   4.885   1.671  0.2687 -0.6501  0.1533
16916TIP3    H172163   6.094   4.834   1.657 -0.5874 -2.1135  0.2941
16916TIP3    H272164   5.970   4.884   1.586  0.9323  1.1952 -0.2599
16917TIP3   OH272165   6.148   5.080  14.796 -0.2966  0.1834  0.0712
16917TIP3    H172166   6.150   5.160  14.743 -0.2455 -1.5669 -2.7648
16917TIP3    H272167   6.062   5.083  14.839 -1.0403  0.9445 -1.3798
16918TIP3   OH272168   2.594   1.697   2.617  0.0083  0.5802 -0.0227
16918TIP3    H172169   2.643   1.690   2.699  1.6986  1.1458 -0.9390
16918TIP3    H272170   2.600   1.789   2.593 -0.6777  0.4652 -0.6751
16919TIP3   OH272171   2.513   3.720  13.860 -0.3841 -0.8671 -0.2117
16919TIP3    H172172   2.454   3.795  13.867  1.4162  0.6421 -0.3955
16919TIP3    H272173   2.596   3.757  13.830  0.2238 -3.1298 -1.5607
16920TIP3   OH272174   0.706   4.045   1.020 -0.0420 -0.0327  0.0894
16920TIP3    H172175   0.801   4.054   1.009 -0.1612 -0.4555 -1.4946
16920TIP3    H272176   0.672   4.134   1.010  0.3250  0.5367  2.9624
16921TIP3   OH272177   3.245   2.800   3.135  0.5105  0.2636 -0.4767
16921TIP3    H172178   3.151   2.810   3.126  0.4959 -0.3018 -1.0712
16921TIP3    H272179   3.281   2.832   3.052  0.9623  1.8676  0.3156
16922TIP3   OH272180   3.318   0.166   3.843 -0.6452  0.1056 -0.1056
16922TIP3    H172181   3.313   0.158   3.939 -1.1685  0.8833 -0.0567
16922TIP3    H272182   3.308   0.077   3.811 -0.0234 -0.2285  0.5767
16923TIP3   OH272183   3.621   5.731  16.111  0.6486 -0.3807  0.2704
16923TIP3    H172184   3.687   5.772  16.055  0.6168  0.6063  0.9397
16923TIP3    H272185   3.563   5.802  16.137  0.8051 -0.7514  1.7576
16924TIP3   OH272186   3.479   0.836   1.471  0.4913  0.4793  0.2060
16924TIP3    H172187   3.488   0.825   1.376  1.1958 -1.2289  0.4452
16924TIP3    H272188   3.563   0.809   1.507  0.9630  2.9730  1.2500
16925TIP3   OH272189   4.286   5.059   5.214  0.3272  0.0661 -0.5814
16925TIP3    H172190   4.271   5.046   5.121 -0.0928  0.4071 -0.5665
16925TIP3    H272191   4.378   5.085   5.221 -0.1265  1.9610 -1.1131
16926TIP3   OH272192   4.530   0.560   0.644 -0.2036 -1.1536 -0.1169
16926TIP3    H172193   4.615   0.598   0.664 -0.4781  2.5983 -4.3065
16926TIP3    H272194   4.468   0.631   0.661 -1.4363 -1.1453 -3.7224
16927TIP3   OH272195   2.435   2.779   0.640 -0.3869  0.1195  0.1304
16927TIP3    H172196   2.491   2.703   0.655 -1.0529 -0.9739 -2.3547
16927TIP3    H272197   2.457   2.839   0.711  1.3706 -1.6859  1.2378
16928TIP3   OH272198   3.542   1.235   0.866 -0.0514 -0.5540 -0.1938
16928TIP3    H172199   3.605   1.243   0.795  0.9361  2.3421  0.8477
16928TIP3    H272200   3.460   1.267   0.829  0.5290  1.2384 -0.0323
16929TIP3   OH272201   0.164   3.644   2.221  0.2263  0.2507 -0.1417
16929TIP3    H172202   0.106   3.652   2.146 -0.8894 -1.4870  0.4884
16929TIP3    H272203   0.142   3.720   2.276 -4.2967 -2.1478  1.8720
16930TIP3   OH272204   1.436   3.283  12.367 -0.1526  0.1832 -0.0541
16930TIP3    H172205   1.462   3.234  12.289 -2.6581  0.2211 -1.0083
16930TIP3    H272206   1.472   3.233  12.440  0.0334 -1.3383 -1.1419
16931TIP3   OH272207   3.097   4.049   6.339  0.2485 -0.3442 -0.2079
16931TIP3    H172208   3.013   4.095   6.340  0.1820 -0.4680  0.0181
16931TIP3    H272209   3.089   3.984   6.408  1.4002  1.1982  1.4580
16932TIP3   OH272210   1.427   2.090   4.049  0.1357  0.3492 -0.0541
16932TIP3    H172211   1.428   2.090   3.953 -1.3566 -2.2830 -0.1715
16932TIP3    H272212   1.465   2.005   4.072 -1.4849  0.0337  1.5914
16933TIP3   OH272213   2.613   6.583  10.631 -0.3664  0.1958 -0.3337
16933TIP3    H172214   2.684   6.639  10.662  0.7133 -0.4322 -1.5840
16933TIP3    H272215   2.543   6.644  10.609  0.3928  0.9677 -0.6514
16934TIP3   OH272216   0.918   5.045   4.217  0.0462  0.7210 -0.2566
16934TIP3    H172217   0.892   4.991   4.142 -0.9237  0.9196 -0.0766
16934TIP3    H272218   0.877   5.002   4.292  0.8841  0.6130  0.1393
16935TIP3   OH272219   0.758   2.407   2.939  0.0666 -0.1679 -0.6312
16935TIP3    H172220   0.754   2.452   3.024  1.8135  0.8207 -1.0104
16935TIP3    H272221   0.667   2.399   2.911 -0.5690 -0.7996  1.4582
16936TIP3   OH272222   4.533   4.247  12.823 -0.0128  0.4556  0.0335
16936TIP3    H172223   4.568   4.200  12.898 -2.3894  3.7945  3.6463
16936TIP3    H272224   4.465   4.190  12.788  0.6413 -0.8655  0.8629
16937TIP3   OH272225   1.417   5.881  10.538 -0.1809 -0.0886 -0.7579
16937TIP3    H172226   1.324   5.891  10.516 -0.0708  0.5245 -0.9478
16937TIP3    H272227   1.456   5.965  10.516  0.0315  0.4030  1.2862
16938TIP3   OH272228   3.665   5.023  13.848  0.6959 -0.0586 -0.1773
16938TIP3    H172229   3.716   4.991  13.773 -0.9767 -0.7333 -1.0876
16938TIP3    H272230   3.595   4.959  13.858  0.0187  0.8298  1.0337
16939TIP3   OH272231   6.161   0.913  13.212  0.8751  0.0861 -0.4144
16939TIP3    H172232   6.079   0.864  13.200  1.1433 -0.1817 -1.1785
16939TIP3    H272233   6.195   0.925  13.124  0.5899  2.0642 -0.2921
16940TIP3   OH272234   1.885   0.580   1.479  0.2397 -0.3783  0.2228
16940TIP3    H172235   1.884   0.662   1.529 -0.9551  0.0082 -0.4048
16940TIP3    H272236   1.811   0.530   1.514 -0.2597 -0.3373 -0.7592
16941TIP3   OH272237   0.872   0.356  16.638  0.0304  0.0901 -0.4712
16941TIP3    H172238   0.795   0.376  16.691  0.2822  1.0263 -0.4422
16941TIP3    H272239   0.881   0.261  16.645 -0.8935  0.0121 -0.1691
16942TIP3   OH272240   0.957   2.630   4.683  0.1064 -0.7875 -0.2052
16942TIP3    H172241   0.909   2.555   4.719  0.5499 -1.2776 -0.6201
16942TIP3    H272242   1.038   2.592   4.649  1.2866  0.1561  1.3845
16943TIP3   OH272243   1.606   6.096   4.639  0.5971 -0.5250  0.4851
16943TIP3    H172244   1.545   6.080   4.711 -0.6738 -2.3802 -0.9100
16943TIP3    H272245   1.552   6.093   4.560  2.2563 -0.6641 -0.7137
16944TIP3   OH272246   4.380   3.817  16.696  0.0953  0.0789  0.4634
16944TIP3    H172247   4.410   3.904  16.670 -0.3809 -0.2320 -1.1890
16944TIP3    H272248   4.289   3.831  16.722  0.7412  0.5047  2.7534
16945TIP3   OH272249   6.498   4.723   5.400  0.0293  0.6358  0.0230
16945TIP3    H172250   6.476   4.635   5.370 -0.8545  0.3978  1.2846
16945TIP3    H272251   6.512   4.713   5.494  1.2871  1.6064 -0.0331
16946TIP3   OH272252   2.913   3.918  15.372  0.9452 -0.1811  0.8458
16946TIP3    H172253   2.961   3.970  15.307 -0.2390  0.8363  0.7442
16946TIP3    H272254   2.980   3.863  15.412  1.8073 -0.4110 -0.8189
16947TIP3   OH272255   3.073   6.569  17.034 -0.0653  0.2508 -0.0194
16947TIP3    H172256   3.142   6.636  17.026  0.2138 -0.0571 -0.2057
16947TIP3    H272257   3.074   6.545  17.126 -0.1658  0.5018  0.0498
16948TIP3   OH272258   5.744   1.418  17.243  0.3413 -0.4567 -0.0626
16948TIP3    H172259   5.836   1.414  17.270 -0.0178 -0.0147  1.3382
16948TIP3    H272260   5.743   1.388  17.152  1.8967 -0.2352 -0.1666
16949TIP3   OH272261   0.132   0.578   1.657 -0.6289  0.1818  0.1001
16949TIP3    H172262   0.042   0.552   1.675 -1.5016  2.6774 -0.2859
16949TIP3    H272263   0.182   0.497   1.662 -2.6759 -1.0708  1.6710
16950TIP3   OH272264   6.115   5.995  12.212  0.2788 -0.1087 -0.1818
16950TIP3    H172265   6.152   5.977  12.125  0.9239 -1.0646  0.2679
16950TIP3    H272266   6.021   5.990  12.199  0.3520  0.2353 -0.9193
16951TIP3   OH272267   6.159   0.271  12.906 -0.4863  0.2511  0.2913
16951TIP3    H172268   6.200   0.224  12.833  0.1200 -0.5651  1.1365
16951TIP3    H272269   6.076   0.224  12.921  0.1426 -0.6249  1.1688
16952TIP3   OH272270   0.035   3.383  14.246  0.1222  0.1047  0.1023
16952TIP3    H172271  -0.018   3.318  14.292  0.9325 -0.4921  0.2014
16952TIP3    H272272   0.099   3.332  14.196 -0.7802  0.7245 -1.8019
16953TIP3   OH272273   2.858   6.590  15.062 -0.0741 -1.0870 -0.4697
16953TIP3    H172274   2.766   6.563  15.064 -0.5052  0.2895 -0.6720
16953TIP3    H272275   2.877   6.617  15.152  0.3547 -2.0269 -0.2670
16954TIP3   OH272276   2.994   2.744  16.105 -0.0932  0.0095 -0.2032
16954TIP3    H172277   2.915   2.718  16.058  0.4556 -2.0305 -0.0775
16954TIP3    H272278   3.024   2.823  16.060 -1.2443 -0.1780 -1.3432
16955TIP3   OH272279   1.964   4.802  12.963  0.3369 -0.9497 -0.0066
16955TIP3    H172280   1.920   4.735  13.014  0.6060 -0.1579  1.3219
16955TIP3    H272281   1.893   4.857  12.929  0.2246 -0.0784  1.5555
16956TIP3   OH272282   0.989   3.508   4.597  0.5085  0.1439  0.9475
16956TIP3    H172283   0.991   3.431   4.654 -0.8555 -0.0406  0.7727
16956TIP3    H272284   0.983   3.582   4.657  0.1012  0.0129  1.0678
16957TIP3   OH272285   4.447   1.707  13.813 -0.0935 -0.3035  0.2487
16957TIP3    H172286   4.436   1.686  13.720  0.3730  0.3080  0.0431
16957TIP3    H272287   4.396   1.787  13.826  1.2518  0.6348  0.0728
16958TIP3   OH272288   6.725   3.407   0.827  0.2994  0.5499  0.4060
16958TIP3    H172289   6.796   3.414   0.762  1.6690 -1.6053  1.5463
16958TIP3    H272290   6.733   3.318   0.861 -1.4513  1.0625  2.3273
16959TIP3   OH272291   5.219   5.688   3.455 -0.0163  0.0153  0.2089
16959TIP3    H172292   5.243   5.728   3.539 -1.0854  2.0263 -0.3752
16959TIP3    H272293   5.124   5.690   3.454 -0.0345 -0.7535 -0.7074
16960TIP3   OH272294   0.580   6.029  13.485  0.1204  0.0125  0.4009
16960TIP3    H172295   0.515   6.099  13.489  0.6176  0.4631  3.6408
16960TIP3    H272296   0.663   6.073  13.500  0.9513 -0.8611 -1.3590
16961TIP3   OH272297   5.224   6.137  12.427 -0.3778 -0.0736 -0.3771
16961TIP3    H172298   5.263   6.082  12.495 -0.2643  1.5628  0.9393
16961TIP3    H272299   5.218   6.080  12.351  2.0290 -1.2034  0.1836
16962TIP3   OH272300   1.107   0.245   5.721 -0.0580 -0.0963  0.2565
16962TIP3    H172301   1.072   0.327   5.756  0.2899  0.5474 -0.8525
16962TIP3    H272302   1.202   0.252   5.732  0.0146 -0.1119 -0.3324
16963TIP3   OH272303   2.708   3.571   2.465 -0.1956  0.2282 -0.2093
16963TIP3    H172304   2.703   3.540   2.374 -4.1960  2.0713 -0.8356
16963TIP3    H272305   2.669   3.501   2.516  0.3546 -0.0313 -0.1341
16964TIP3   OH272306   5.709   2.735   4.107  0.1259  0.3615 -0.2339
16964TIP3    H172307   5.791   2.752   4.155 -0.1901 -0.6763  0.7069
16964TIP3    H272308   5.737   2.698   4.024  0.6049 -1.0572  0.5335
16965TIP3   OH272309   1.800   2.564  13.599  0.3614  0.2272  0.4268
16965TIP3    H172310   1.883   2.533  13.563  0.3030  0.6584 -0.1076
16965TIP3    H272311   1.820   2.650  13.635  0.2120  0.2035  0.5654
16966TIP3   OH272312   3.218   4.974  15.168 -0.7523 -0.2594 -0.1388
16966TIP3    H172313   3.289   4.960  15.105 -0.7288  0.2609 -0.2339
16966TIP3    H272314   3.164   5.043  15.128 -0.7336  0.0778  0.4130
16967TIP3   OH272315   4.681   3.474  10.908 -0.1158  0.8374  0.5024
16967TIP3    H172316   4.636   3.479  10.823  1.6871  1.0865 -0.5045
16967TIP3    H272317   4.760   3.423  10.890  1.0103  2.0715  1.6872
16968TIP3   OH272318   5.902   0.568   6.132 -0.2894  0.4391 -0.0141
16968TIP3    H172319   5.834   0.615   6.179 -1.9825  0.7810 -2.6280
16968TIP3    H272320   5.881   0.475   6.144 -0.5492  0.5152  0.1157
16969TIP3   OH272321   1.350   2.060   0.350  0.0463  0.0214 -0.4033
16969TIP3    H172322   1.397   2.020   0.276 -0.0148  2.0622 -1.6125
16969TIP3    H272323   1.277   2.106   0.309  0.5221  1.9535  0.8345
16970TIP3   OH272324   0.538   0.178  13.031 -0.4795 -0.0186  0.6550
16970TIP3    H172325   0.609   0.242  13.035  0.1205 -0.7019  1.5979
16970TIP3    H272326   0.459   0.229  13.013 -0.0441  1.0089  1.5593
16971TIP3   OH272327   1.050   5.379   0.658  0.4438 -0.0791 -0.4765
16971TIP3    H172328   1.123   5.340   0.706  0.3884  1.2026  0.7152
16971TIP3    H272329   1.039   5.466   0.697 -1.6423 -0.1841 -0.7039
16972TIP3   OH272330   2.233   6.327  16.039 -0.3669 -0.1217  0.1325
16972TIP3    H172331   2.255   6.251  16.093  1.0492 -0.6772 -1.1558
16972TIP3    H272332   2.314   6.378  16.036 -1.5455  2.0345  1.7986
16973TIP3   OH272333   2.232   3.633  14.104 -0.4043 -0.9877 -0.0620
16973TIP3    H172334   2.248   3.553  14.054 -2.6310 -0.3867 -1.9702
16973TIP3    H272335   2.235   3.703  14.038  0.0359  0.3212  1.2896
16974TIP3   OH272336   4.835   4.020  13.597 -0.2235 -0.0015 -0.1795
16974TIP3    H172337   4.874   4.060  13.519  0.1378  0.5393  0.2702
16974TIP3    H272338   4.827   3.927  13.575  1.4538 -0.1641 -0.2363
16975TIP3   OH272339   5.448   0.704  13.411 -0.2293  0.2733  0.0176
16975TIP3    H172340   5.416   0.677  13.497  1.9006 -0.4750  0.6397
16975TIP3    H272341   5.525   0.756  13.430 -0.6931  1.5490 -1.4257
16976TIP3   OH272342   1.764   0.484  13.754 -0.2890 -0.2989  0.1093
16976TIP3    H172343   1.750   0.575  13.726  0.5145  0.0338  0.7344
16976TIP3    H272344   1.727   0.480  13.842  1.6503  0.0704  0.9994
16977TIP3   OH272345   6.473   1.344   3.578 -0.2337 -0.2948 -0.0638
16977TIP3    H172346   6.444   1.362   3.667  1.2890 -0.8556  0.5948
16977TIP3    H272347   6.543   1.280   3.589  0.6492  0.3541 -1.5906
16978TIP3   OH272348   3.578   6.646   5.046  0.0051 -0.0795  0.1402
16978TIP3    H172349   3.532   6.693   5.115 -1.8302  1.4334 -2.0009
16978TIP3    H272350   3.513   6.632   4.978  1.9189 -0.7755 -1.6724
16979TIP3   OH272351   5.101   2.648   2.001  0.0131 -0.3940  0.7859
16979TIP3    H172352   5.044   2.658   2.077  0.4369 -1.5455  1.2828
16979TIP3    H272353   5.154   2.727   2.000 -1.8491  0.9026  0.0619
16980TIP3   OH272354   4.712   0.948   2.173 -0.4522  0.1147  0.3687
16980TIP3    H172355   4.619   0.928   2.163 -0.6379  0.9209  0.3914
16980TIP3    H272356   4.723   1.032   2.127  0.0187  0.6151  1.3639
16981TIP3   OH272357   6.464   0.672  11.485 -0.6047  0.1146  0.0623
16981TIP3    H172358   6.394   0.737  11.490 -1.4189 -0.7145 -0.3367
16981TIP3    H272359   6.499   0.668  11.574 -0.1932  1.4616 -0.0137
16982TIP3   OH272360   2.032   6.197   1.102 -0.0455 -0.0171 -0.2417
16982TIP3    H172361   2.113   6.146   1.100  1.2053  1.8462  0.3183
16982TIP3    H272362   2.036   6.252   1.024 -1.2644 -0.5666 -0.7184
16983TIP3   OH272363   4.496   6.153   0.468  0.1696 -0.1518  0.3107
16983TIP3    H172364   4.508   6.079   0.408  1.9160  1.1987 -1.1266
16983TIP3    H272365   4.585   6.176   0.495 -0.2542  1.9280  0.0475
16984TIP3   OH272366   0.218   2.113   1.576  0.2519  0.3643  0.0394
16984TIP3    H172367   0.142   2.089   1.629 -0.0254 -0.0751 -0.5486
16984TIP3    H272368   0.214   2.054   1.500 -0.3914  2.1885 -1.4003
16985TIP3   OH272369   6.705   0.709   4.121 -0.4582 -0.2799  0.2599
16985TIP3    H172370   6.769   0.666   4.177 -0.5422 -0.9865 -0.1790
16985TIP3    H272371   6.637   0.644   4.107 -0.3606 -0.1756 -0.7952
16986TIP3   OH272372   5.791   2.616   3.867 -0.2890  0.3077  0.6699
16986TIP3    H172373   5.847   2.540   3.845 -0.9790  0.7385 -3.2438
16986TIP3    H272374   5.704   2.591   3.837 -0.9116  1.9884  0.9819
16987TIP3   OH272375   5.701   0.634   1.914 -0.1370 -0.2307  0.0651
16987TIP3    H172376   5.749   0.703   1.868 -2.7224  0.6833 -1.5270
16987TIP3    H272377   5.682   0.670   2.000 -0.3517  0.5503 -0.2992
16988TIP3   OH272378   4.685   2.509   3.741 -0.2456  0.4364  0.6096
16988TIP3    H172379   4.652   2.557   3.817  2.1381  1.2087  1.2458
16988TIP3    H272380   4.663   2.418   3.758 -1.5840  0.8451  1.1947
16989TIP3   OH272381   4.480   4.118  13.957  0.0940 -0.2827 -0.0871
16989TIP3    H172382   4.438   4.032  13.959  1.0268 -0.7419  0.6989
16989TIP3    H272383   4.564   4.104  13.913  0.5507  0.0627  0.6357
16990TIP3   OH272384   3.030   2.776  17.115  0.6651 -0.4903 -0.3775
16990TIP3    H172385   2.954   2.759  17.060  0.4317  0.3103 -0.3105
16990TIP3    H272386   3.066   2.689  17.133  0.4113 -0.7981 -1.3132
16991TIP3   OH272387   5.907   5.935   0.193  0.0736 -1.0222  0.3299
16991TIP3    H172388   5.844   5.864   0.181 -0.5138 -0.4110 -0.2835
16991TIP3    H272389   5.923   5.936   0.287 -0.7972 -1.2310  0.4959
16992TIP3   OH272390   1.301   3.751   0.638  0.4847  0.0042  0.1850
16992TIP3    H172391   1.264   3.839   0.645  0.3977 -0.0536  0.4582
16992TIP3    H272392   1.387   3.764   0.598  0.9813  0.3345  1.3252
16993TIP3   OH272393   3.033   3.885   3.089  0.2362 -0.8101 -0.4182
16993TIP3    H172394   2.947   3.881   3.130 -0.1520 -0.3932 -1.1676
16993TIP3    H272395   3.047   3.797   3.055  0.4603 -1.0948  0.3949
16994TIP3   OH272396   5.420   0.448  15.814 -0.0260 -0.3280 -0.0012
16994TIP3    H172397   5.431   0.481  15.903  1.8220  0.5886 -0.5198
16994TIP3    H272398   5.466   0.364  15.814  0.4644 -0.0650 -0.2164
16995TIP3   OH272399   2.582   2.181  12.831 -0.4011  0.0385 -0.2490
16995TIP3    H172400   2.658   2.123  12.819 -0.6263  0.1127 -2.3716
16995TIP3    H272401   2.594   2.250  12.767 -1.8641  0.5002 -0.0644
16996TIP3   OH272402   4.441   2.592  13.955  0.1052 -0.0912  0.2678
16996TIP3    H172403   4.399   2.664  14.003  0.1524  0.4978 -0.5522
16996TIP3    H272404   4.504   2.556  14.017 -2.7704 -2.1874  2.2311
16997TIP3   OH272405   0.528   5.837   5.397  0.1633  0.8100  0.4919
16997TIP3    H172406   0.481   5.753   5.405  0.9720  0.0960 -1.6226
16997TIP3    H272407   0.621   5.812   5.400  0.4181  1.8144  1.2326
16998TIP3   OH272408   5.115   5.834   0.988  0.1832 -0.3702  0.4743
16998TIP3    H172409   5.108   5.894   0.914  1.7367 -0.7636 -0.0418
16998TIP3    H272410   5.059   5.872   1.056 -1.5781 -0.1927 -0.9956
16999TIP3   OH272411   5.119   1.112  14.516  0.2076 -0.0770  0.1420
16999TIP3    H172412   5.040   1.165  14.529  0.0559 -0.8240  2.9309
16999TIP3    H272413   5.183   1.150  14.577  2.2081  0.7246 -2.2794
17000TIP3   OH272414   2.581   1.370  14.618 -0.1387 -0.2685 -0.3138
17000TIP3    H172415   2.573   1.300  14.683  2.4385 -0.8974 -0.5893
17000TIP3    H272416   2.633   1.438  14.662 -0.9710  0.6723 -0.7237
17001TIP3   OH272417   4.416   6.294   0.723  0.3046 -0.2501  0.6213
17001TIP3    H172418   4.410   6.369   0.665 -0.9788  0.0391  1.1025
17001TIP3    H272419   4.462   6.227   0.671  0.7149  0.5707 -0.0987
17002TIP3   OH272420   6.566   0.058   0.226  0.1122 -0.0679 -0.7533
17002TIP3    H172421   6.576   0.153   0.227  1.1372 -0.1626 -1.0576
17002TIP3    H272422   6.483   0.043   0.181  1.1664  0.6110 -3.0559
17003TIP3   OH272423   3.776   1.851   3.312 -0.0958  0.0761  0.5059
17003TIP3    H172424   3.711   1.868   3.243 -1.3325 -0.2190  1.5511
17003TIP3    H272425   3.801   1.760   3.299  1.5519  0.7079 -1.0445
17004TIP3   OH272426   0.987   1.727  13.772 -0.2025  0.3647  0.5926
17004TIP3    H172427   0.995   1.658  13.705 -0.7432 -0.3403  1.2342
17004TIP3    H272428   1.071   1.725  13.817  0.7895  1.9444 -1.0608
17005TIP3   OH272429   4.165   2.248   5.214  0.0262  0.3697  0.0807
17005TIP3    H172430   4.210   2.307   5.154  0.0207 -0.3740 -0.6816
17005TIP3    H272431   4.072   2.270   5.204  0.0066  0.1211 -0.3526
17006TIP3   OH272432   3.118   0.950  16.798 -0.1868  0.3634  0.4771
17006TIP3    H172433   3.070   1.031  16.814  0.1892  0.8331 -0.6805
17006TIP3    H272434   3.055   0.892  16.755  0.4926  1.3852 -2.1177
17007TIP3   OH272435   1.980   5.299   5.033  0.0792 -0.4821 -0.0284
17007TIP3    H172436   2.023   5.265   4.955 -1.5985 -0.4522 -1.0280
17007TIP3    H272437   1.980   5.394   5.020 -0.9505 -0.5197 -0.4566
17008TIP3   OH272438   2.673   3.782   4.123  0.6235  0.0184 -0.5203
17008TIP3    H172439   2.599   3.773   4.182  0.6139  1.7201 -0.2066
17008TIP3    H272440   2.749   3.758   4.176  0.3113 -2.0358 -0.9353
17009TIP3   OH272441   4.254   6.127   2.174  0.2966  0.1934  0.5019
17009TIP3    H172442   4.286   6.217   2.166  1.2940 -0.1987 -0.2397
17009TIP3    H272443   4.285   6.084   2.094 -1.8520 -0.3215 -0.1300
17010TIP3   OH272444   6.090   4.930   5.975 -0.0053 -0.5773 -0.5273
17010TIP3    H172445   6.139   4.970   6.046 -0.6886 -1.0502  0.2404
17010TIP3    H272446   6.146   4.859   5.943  1.3336  1.1106 -2.0937
17011TIP3   OH272447   0.711   1.182   5.834 -0.1339 -0.2887 -0.4591
17011TIP3    H172448   0.709   1.219   5.746  0.3026  1.0428  0.0636
17011TIP3    H272449   0.666   1.246   5.889 -1.0180 -1.4291  0.1877
17012TIP3   OH272450   2.118   5.099   3.750  0.4618  0.0011  0.3989
17012TIP3    H172451   2.157   5.185   3.732  1.4115 -0.5760 -0.4234
17012TIP3    H272452   2.025   5.117   3.760  0.4760  0.9745 -0.9397
17013TIP3   OH272453   3.641   5.742   3.307  0.8506  0.2519  0.7335
17013TIP3    H172454   3.578   5.779   3.245  0.5967  0.7129  1.2520
17013TIP3    H272455   3.614   5.651   3.319  1.3640 -0.0604 -0.4161
17014TIP3   OH272456   6.374   6.140   1.110  0.3113  0.6945 -0.1756
17014TIP3    H172457   6.436   6.178   1.048  1.0566 -0.1978  0.0028
17014TIP3    H272458   6.373   6.047   1.088  1.3635  0.1746  1.7723
17015TIP3   OH272459   3.654   0.014   3.534 -0.2965 -0.1221 -0.2272
17015TIP3    H172460   3.560   0.014   3.516 -0.2836  0.3093 -0.3042
17015TIP3    H272461   3.683  -0.073   3.506 -0.4476  0.1869 -1.4090
17016TIP3   OH272462   5.159   4.121  15.278  0.1013  0.3357 -0.4608
17016TIP3    H172463   5.215   4.186  15.321 -0.3403 -0.6329  1.7277
17016TIP3    H272464   5.078   4.168  15.258 -0.6386  0.3230  2.0805
17017TIP3   OH272465   0.530   1.040   6.078  0.1469  0.4808  0.0120
17017TIP3    H172466   0.583   1.026   6.157  0.9093  0.2003 -0.5385
17017TIP3    H272467   0.441   1.056   6.111  0.4617  0.3875  0.9247
17018TIP3   OH272468   2.427   5.191   4.998 -0.6852  0.2149  0.5499
17018TIP3    H172469   2.350   5.193   4.941 -1.2868 -0.2683  1.3331
17018TIP3    H272470   2.394   5.161   5.082  0.2232  0.7652  1.1188
17019TIP3   OH272471   4.010   1.797   4.163 -0.2816 -0.0870  0.6266
17019TIP3    H172472   3.957   1.718   4.179 -0.0956 -0.2328  0.5208
17019TIP3    H272473   3.946   1.861   4.131 -0.5397 -0.0024  1.2940
17020TIP3   OH272474   2.311   6.177  10.436 -0.1530  0.1622  0.1441
17020TIP3    H172475   2.295   6.246  10.371  1.1854 -0.1090 -0.4993
17020TIP3    H272476   2.401   6.192  10.465 -0.4113 -0.3318  1.2144
17021TIP3   OH272477   1.547   3.822   1.226 -0.2428 -0.1913  0.0842
17021TIP3    H172478   1.457   3.853   1.243 -0.5489 -1.6600  1.3949
17021TIP3    H272479   1.540   3.774   1.144 -0.9120 -1.1416  0.6714
17022TIP3   OH272480   0.255   2.257   4.909  0.4243 -0.1196 -0.4033
17022TIP3    H172481   0.168   2.225   4.934  0.8973 -0.7838  0.4643
17022TIP3    H272482   0.268   2.334   4.964 -0.5145  1.3720 -2.1481
17023TIP3   OH272483   6.105   0.238   5.320 -0.4184 -0.3019  0.2880
17023TIP3    H172484   6.099   0.209   5.411  0.6651  0.0197  0.4790
17023TIP3    H272485   6.081   0.331   5.323  0.0028 -0.1913  0.3157
17024TIP3   OH272486   4.105   3.798  12.245 -0.3315  0.1845  0.3088
17024TIP3    H172487   4.165   3.866  12.277 -0.1334  0.2861 -0.2640
17024TIP3    H272488   4.025   3.811  12.296  0.6040 -0.8986  2.1442
17025TIP3   OH272489   3.834   0.634  16.533  0.2654  0.2870 -0.4041
17025TIP3    H172490   3.879   0.623  16.449  0.1255 -1.9472 -0.2527
17025TIP3    H272491   3.899   0.608  16.598  0.5918  2.6292  0.2956
17026TIP3   OH272492   4.377   5.211  11.831  0.1299  0.6024 -0.4061
17026TIP3    H172493   4.406   5.227  11.741  0.2880  1.1495 -0.2634
17026TIP3    H272494   4.419   5.129  11.856  1.8786  1.5546 -0.0828
17027TIP3   OH272495   4.098   3.408  11.067 -0.5222 -0.2111  0.1059
17027TIP3    H172496   4.066   3.486  11.112 -2.4680 -0.5869 -0.5431
17027TIP3    H272497   4.105   3.342  11.137 -1.9253 -0.3179  0.1823
17028TIP3   OH272498   6.311   4.155  17.333  0.6556  0.2719 -0.1193
17028TIP3    H172499   6.407   4.155  17.332  0.6805  0.0582  0.9328
17028TIP3    H272500   6.287   4.207  17.256  1.6325  1.3957  0.2824
17029TIP3   OH272501   6.318   1.358  12.416 -0.4844 -0.5972 -0.2148
17029TIP3    H172502   6.232   1.399  12.405 -0.7530 -1.5608 -2.3311
17029TIP3    H272503   6.359   1.365  12.329  2.1965  1.0460  1.0554
17030TIP3   OH272504   6.307   1.718  15.059 -0.5343  0.6830 -0.3955
17030TIP3    H172505   6.322   1.759  14.973 -0.0629  0.3020 -0.4956
17030TIP3    H272506   6.215   1.737  15.078 -0.9022 -0.0003 -1.3999
17031TIP3   OH272507   0.847   6.077  17.233  1.0419  0.4163 -0.0549
17031TIP3    H172508   0.856   5.985  17.208  0.1644  0.4196 -0.4288
17031TIP3    H272509   0.860   6.125  17.151 -0.0140  0.5276 -0.1744
17032TIP3   OH272510   3.211   2.980  16.958 -0.0751  0.2574 -0.3858
17032TIP3    H172511   3.300   2.955  16.931  0.1485  1.0981 -0.4451
17032TIP3    H272512   3.168   2.897  16.978  0.0823 -0.3317 -2.2986
17033TIP3   OH272513   2.330   3.805  13.206 -0.6812 -0.6008 -0.2385
17033TIP3    H172514   2.344   3.843  13.292  2.1244 -0.8538 -0.4683
17033TIP3    H272515   2.286   3.873  13.156 -0.8036  0.1943  0.9169
17034TIP3   OH272516   1.644   3.641  11.662 -0.0046 -0.0339 -0.5258
17034TIP3    H172517   1.677   3.633  11.573 -1.5479 -0.0717 -1.1240
17034TIP3    H272518   1.621   3.734  11.670 -1.3203 -0.3359 -0.7134
17035TIP3   OH272519   3.834   3.436  15.700 -0.1689  0.0585 -0.2653
17035TIP3    H172520   3.918   3.406  15.666 -0.9107 -2.3221 -0.2598
17035TIP3    H272521   3.781   3.451  15.621 -0.0570  0.5258 -0.2517
17036TIP3   OH272522   5.462   1.707  14.744 -0.3380 -0.1829 -0.2254
17036TIP3    H172523   5.459   1.801  14.757 -0.6016 -0.3364  0.9811
17036TIP3    H272524   5.529   1.694  14.677  0.0639  0.8241 -0.0392
17037TIP3   OH272525   1.670   1.758  12.337 -0.0564 -0.3674  0.3199
17037TIP3    H172526   1.664   1.749  12.432  1.4271 -0.5443  0.4086
17037TIP3    H272527   1.605   1.696  12.303 -0.1311 -0.7789  1.1911
17038TIP3   OH272528   6.750   5.024   4.622  0.0130 -0.0474 -0.4200
17038TIP3    H172529   6.765   4.975   4.542 -1.6420 -1.9059  0.3223
17038TIP3    H272530   6.684   5.090   4.598  1.3376  1.0756 -1.1216
17039TIP3   OH272531   6.719   2.004  12.569 -0.1191  0.4423 -0.2757
17039TIP3    H172532   6.628   2.007  12.540 -0.3310 -1.0989  0.1228
17039TIP3    H272533   6.714   1.978  12.661  0.7085  0.8578 -0.1029
17040TIP3   OH272534   2.610   1.277  14.954  0.0565 -0.4403 -0.3146
17040TIP3    H172535   2.519   1.270  14.923  0.0437 -1.7802 -0.0322
17040TIP3    H272536   2.660   1.222  14.894  0.3156 -1.5544  0.8750
17041TIP3   OH272537   5.421   4.909  15.345 -0.2316 -0.4219 -0.2690
17041TIP3    H172538   5.430   4.961  15.425  1.7881  1.8830 -1.8757
17041TIP3    H272539   5.434   4.819  15.375 -2.4317  0.0116  2.3956
17042TIP3   OH272540   5.225   3.442  12.014 -1.1587  0.0276 -0.0787
17042TIP3    H172541   5.301   3.500  12.016 -0.7783 -0.4454 -0.6591
17042TIP3    H272542   5.154   3.497  11.980 -0.7438  0.0977 -0.8558
17043TIP3   OH272543   0.033   2.064   0.892  0.0594  0.2122 -0.3210
17043TIP3    H172544   0.115   2.057   0.844  0.0618  0.7024 -0.3907
17043TIP3    H272545   0.059   2.091   0.981 -0.1653  3.1005 -1.0233
17044TIP3   OH272546   1.294   2.981  11.305  0.1273  0.1136  0.0572
17044TIP3    H172547   1.386   2.995  11.328  0.2538 -1.1387  0.3723
17044TIP3    H272548   1.296   2.968  11.210  0.2326  0.3979  0.0190
17045TIP3   OH272549   1.736   3.273  11.493  0.1598 -0.2851 -0.8246
17045TIP3    H172550   1.760   3.355  11.451 -0.1493  0.6461  0.7484
17045TIP3    H272551   1.817   3.240  11.531  0.0071  0.0866 -0.1578
17046TIP3   OH272552   1.893   2.905  15.082 -0.1497 -0.0211 -0.5098
17046TIP3    H172553   1.945   2.891  15.003 -0.0823 -0.5398 -0.3755
17046TIP3    H272554   1.852   2.990  15.068  0.6163  0.3237 -0.6784
17047TIP3   OH272555   0.505   6.459   2.711 -0.0901 -0.2003 -0.6613
17047TIP3    H172556   0.426   6.414   2.680  0.1331 -0.7176 -0.4954
17047TIP3    H272557   0.562   6.388   2.743  0.3370  0.1880 -0.5496
17048TIP3   OH272558   6.116   2.840   5.953 -0.0845 -0.2899  0.8249
17048TIP3    H172559   6.170   2.779   6.003  0.3953 -1.2988 -0.8379
17048TIP3    H272560   6.168   2.919   5.947  1.3944 -1.2978 -0.8828
17049TIP3   OH272561   1.908   1.358  15.645 -0.3212 -0.4407  0.3086
17049TIP3    H172562   1.815   1.360  15.671 -0.3776 -2.8663  0.5653
17049TIP3    H272563   1.954   1.392  15.721 -0.9947  1.2178  0.0156
17050TIP3   OH272564   2.171   3.455  16.572  0.2883 -0.5331  0.6541
17050TIP3    H172565   2.192   3.362  16.573  0.1576 -0.5673  2.1877
17050TIP3    H272566   2.222   3.492  16.644  1.3543  0.8457 -0.7237
17051TIP3   OH272567   0.022   5.562   5.753 -0.5777  0.8612 -0.0453
17051TIP3    H172568  -0.039   5.605   5.813 -0.2976  1.8989 -0.4816
17051TIP3    H272569   0.063   5.493   5.806 -0.5367  1.5811  0.8931
17052TIP3   OH272570   2.247   4.621  15.194  0.1781 -0.4234 -0.3262
17052TIP3    H172571   2.314   4.556  15.214 -1.0361 -1.9854 -1.0243
17052TIP3    H272572   2.191   4.622  15.271  1.8434  2.1566  1.0000
17053TIP3   OH272573   2.711   5.915  11.239 -0.0080 -0.2751 -0.0895
17053TIP3    H172574   2.722   5.988  11.300 -3.0328  1.0653 -0.9686
17053TIP3    H272575   2.781   5.926  11.175  0.4584  1.0306  0.6137
17054TIP3   OH272576   6.089   1.761  13.078  0.2503  0.4479 -0.2328
17054TIP3    H172577   6.039   1.804  13.147  0.4845  1.1155 -0.4764
17054TIP3    H272578   6.030   1.694  13.044 -0.1007  0.5461  0.1728
17055TIP3   OH272579   4.851   4.919   2.410  0.0504  0.2751  0.0265
17055TIP3    H172580   4.926   4.896   2.356  0.2356 -1.5250  0.9869
17055TIP3    H272581   4.887   4.927   2.499 -1.2637 -4.1961  1.2282
17056TIP3   OH272582   5.396   6.432   5.969 -0.1932  0.3487 -0.0274
17056TIP3    H172583   5.397   6.457   6.061 -0.7378 -1.6522  0.5683
17056TIP3    H272584   5.306   6.404   5.952  0.0702  0.0240 -0.9835
17057TIP3   OH272585   2.248   1.473   2.574  0.8036 -0.4523 -0.1077
17057TIP3    H172586   2.245   1.390   2.526  0.8098 -0.9125  0.6656
17057TIP3    H272587   2.163   1.513   2.557  0.0649 -1.4880  0.9858
17058TIP3   OH272588   6.415   3.990  14.081 -0.1135 -0.3057  0.4104
17058TIP3    H172589   6.399   4.023  14.170 -0.0752 -2.7278  1.4007
17058TIP3    H272590   6.425   3.895  14.092 -0.0344 -0.6781 -2.1898
17059TIP3   OH272591   3.429   5.757   0.102  0.4575 -0.7369  0.4737
17059TIP3    H172592   3.497   5.794   0.046  1.8378 -1.1689  1.7892
17059TIP3    H272593   3.357   5.738   0.043  0.3695  2.2948 -0.5531
17060TIP3   OH272594   5.081   1.530   5.617  0.3239 -0.0077  0.3953
17060TIP3    H172595   5.104   1.513   5.709  0.3511  1.8004  0.7647
17060TIP3    H272596   5.133   1.607   5.594 -0.8749  0.5251 -0.6332
17061TIP3   OH272597   2.744   6.518  11.475  0.3841  0.3431  0.0309
17061TIP3    H172598   2.824   6.466  11.466 -0.0894 -0.2374 -1.1233
17061TIP3    H272599   2.713   6.530  11.385 -0.7745  0.6261  0.4435
17062TIP3   OH272600   0.325   1.882  11.090  0.0978 -0.1966 -0.1192
17062TIP3    H172601   0.412   1.842  11.090 -0.2600 -1.0063  0.5200
17062TIP3    H272602   0.327   1.942  11.164 -0.3421 -1.2966  0.8213
17063TIP3   OH272603   3.733   2.899  14.432  0.4935  0.7608 -0.8290
17063TIP3    H172604   3.744   2.806  14.411 -0.0251  0.1517  1.3685
17063TIP3    H272605   3.814   2.940  14.402  0.8807 -0.4443 -1.5044
17064TIP3   OH272606   0.366   1.720  12.843 -0.3004 -0.0360 -0.4593
17064TIP3    H172607   0.299   1.761  12.897  0.9959 -0.5502  1.6408
17064TIP3    H272608   0.423   1.675  12.905  2.4618  1.0267 -2.0324
17065TIP3   OH272609   1.737   2.557   0.826 -0.0397  0.0895 -0.7166
17065TIP3    H172610   1.673   2.506   0.777  0.3243  0.2092 -1.3374
17065TIP3    H272611   1.687   2.629   0.864 -0.7524 -1.2602  1.0328
17066TIP3   OH272612   2.252   3.617   4.805  0.2242 -0.6514 -0.1114
17066TIP3    H172613   2.291   3.700   4.831 -2.6339  0.8158 -0.0698
17066TIP3    H272614   2.284   3.602   4.716 -0.4416  1.4047 -0.7575
17067TIP3   OH272615   2.638   0.635   0.179 -0.0166  0.5017 -0.1811
17067TIP3    H172616   2.732   0.628   0.168  0.0801  0.8000  0.3990
17067TIP3    H272617   2.604   0.652   0.091  0.6134  1.8368 -0.1960
17068TIP3   OH272618   2.272   1.010   6.663  0.4230 -0.0256 -0.4600
17068TIP3    H172619   2.187   1.042   6.693 -0.2807 -0.6717 -1.6541
17068TIP3    H272620   2.269   0.916   6.678  1.3599  0.0625  0.4311
17069TIP3   OH272621   5.563   4.644  10.740  0.1018  0.1210  0.5078
17069TIP3    H172622   5.565   4.548  10.745  0.3062  0.1515  1.0303
17069TIP3    H272623   5.494   4.669  10.802  0.1268  0.3206  0.4538
17070TIP3   OH272624   4.502   0.570   1.649  0.2621  0.2122  0.3346
17070TIP3    H172625   4.468   0.645   1.600 -1.1260 -0.4514  0.2370
17070TIP3    H272626   4.437   0.501   1.636  2.3341 -1.6220 -1.0258
17071TIP3   OH272627   3.419   6.073  12.542  0.0483 -0.2002  0.0114
17071TIP3    H172628   3.437   6.167  12.544  0.3871 -0.2413 -0.6399
17071TIP3    H272629   3.504   6.032  12.559 -0.1485 -0.3952  0.5618
17072TIP3   OH272630   5.270   3.412  10.982  0.1836 -0.0385 -0.4815
17072TIP3    H172631   5.195   3.359  11.009 -0.4025  1.3731  0.8376
17072TIP3    H272632   5.234   3.469  10.913 -0.2257  1.1424  0.6457
17073TIP3   OH272633   6.515   1.369   1.564  0.3460  0.2822  0.0081
17073TIP3    H172634   6.430   1.412   1.566  1.3732  3.1752 -4.6192
17073TIP3    H272635   6.495   1.275   1.556 -2.4211  0.8764 -0.9231
17074TIP3   OH272636   4.157   1.874   0.581 -0.0614 -0.0604 -0.0273
17074TIP3    H172637   4.106   1.953   0.598  1.6163  0.9071  0.8992
17074TIP3    H272638   4.242   1.907   0.551  0.8085 -1.4711  0.7625
17075TIP3   OH272639   0.007   2.822   5.018 -1.1435  0.1335  0.2610
17075TIP3    H172640   0.040   2.889   5.078  0.5135 -1.0502  0.7668
17075TIP3    H272641   0.035   2.851   4.931 -2.0824  1.0071  0.2280
17076TIP3   OH272642   2.528   6.092  17.263  0.3743  0.1758 -0.1969
17076TIP3    H172643   2.470   6.024  17.296  1.4384 -0.6403  0.0500
17076TIP3    H272644   2.469   6.161  17.232 -0.7163 -0.6556 -0.0364
17077TIP3   OH272645   2.977   3.126   3.945 -0.2054  0.1264  0.2867
17077TIP3    H172646   3.058   3.124   3.893  0.0829 -0.2847  0.7363
17077TIP3    H272647   2.910   3.156   3.884  0.6968  2.8398  0.4898
17078TIP3   OH272648   6.403   6.098  13.011 -0.5360  0.4813 -0.1864
17078TIP3    H172649   6.469   6.055  13.065 -0.4426  1.8981  0.9013
17078TIP3    H272650   6.438   6.185  12.995 -3.0496  2.1481  2.3945
17079TIP3   OH272651   1.623   1.319  15.050  0.0490 -0.6483 -0.3670
17079TIP3    H172652   1.714   1.346  15.060 -0.3144  0.7411 -0.5952
17079TIP3    H272653   1.619   1.232  15.091  0.6522  0.8002  3.0377
17080TIP3   OH272654   6.549   1.954  16.489 -0.3599 -0.1364  0.7198
17080TIP3    H172655   6.479   1.891  16.474 -0.9410  0.5350  0.5420
17080TIP3    H272656   6.572   1.985  16.402  2.2129 -2.4559  0.4321
17081TIP3   OH272657   2.211   6.725  15.007 -0.4201  0.1187  0.0992
17081TIP3    H172658   2.266   6.803  15.020  1.0259 -0.7565 -0.4566
17081TIP3    H272659   2.144   6.753  14.945 -0.4128  1.1248  0.5189
17082TIP3   OH272660   1.936   2.059   0.271  0.3771  0.0537  0.2048
17082TIP3    H172661   1.857   2.034   0.319 -0.3137 -0.1496 -0.9987
17082TIP3    H272662   1.910   2.057   0.179  1.8690 -0.2772 -0.2340
17083TIP3   OH272663   0.482   4.562  13.710  0.3495 -0.1255 -0.2524
17083TIP3    H172664   0.457   4.545  13.620  1.1034 -0.3180 -0.4340
17083TIP3    H272665   0.429   4.502  13.763  1.2875 -1.3944 -0.7092
17084TIP3   OH272666   2.452   3.182  14.268 -0.4513  0.1954 -0.1552
17084TIP3    H172667   2.484   3.271  14.279  0.7674 -0.3403  0.9815
17084TIP3    H272668   2.440   3.150  14.358 -0.5763 -0.8793 -0.5420
17085TIP3   OH272669   6.523   4.236   0.262  0.0549  0.0999 -0.2109
17085TIP3    H172670   6.598   4.254   0.320 -0.1725  1.9716 -0.4440
17085TIP3    H272671   6.561   4.234   0.174  0.1855 -1.4356 -0.1551
17086TIP3   OH272672   6.078   5.175  17.153  0.5319 -0.3184 -0.1542
17086TIP3    H172673   5.993   5.219  17.142 -0.9379 -2.1356  2.7862
17086TIP3    H272674   6.064   5.088  17.116  0.3360 -1.3434  2.1710
17087TIP3   OH272675   0.745   1.577   1.269 -0.1396 -0.1978 -0.4685
17087TIP3    H172676   0.661   1.613   1.297  1.7741  2.3936  2.8248
17087TIP3    H272677   0.757   1.499   1.323  0.3410  0.5877  0.6107
17088TIP3   OH272678   0.327   6.726   0.592 -0.2286 -0.0346  0.3475
17088TIP3    H172679   0.250   6.732   0.649 -0.6642  0.2906 -0.2726
17088TIP3    H272680   0.401   6.730   0.652 -0.6869  0.1555  0.9075
17089TIP3   OH272681   3.406   3.647   1.848  0.2241 -0.2982  0.3700
17089TIP3    H172682   3.365   3.572   1.803 -1.7794  1.2074 -0.4527
17089TIP3    H272683   3.485   3.665   1.797  0.5389 -1.5840  0.3561
17090TIP3   OH272684   0.797   4.665   1.300 -0.7818 -0.0219  0.0396
17090TIP3    H172685   0.791   4.599   1.369 -1.3449 -0.5764 -0.5214
17090TIP3    H272686   0.716   4.654   1.249  0.3171 -0.7396 -1.6559
17091TIP3   OH272687   1.729   4.959  12.493 -0.1433  0.0250 -0.5795
17091TIP3    H172688   1.697   5.049  12.498  1.7487  0.8772 -2.1343
17091TIP3    H272689   1.789   4.951  12.567  0.0060  0.1925 -0.6812
17092TIP3   OH272690   4.410   1.246  12.172  0.3923 -0.3438  0.3487
17092TIP3    H172691   4.492   1.209  12.206  1.0624 -0.0899 -0.9190
17092TIP3    H272692   4.431   1.338  12.153 -0.0246 -0.4027 -0.4506
17093TIP3   OH272693   6.131   6.514   2.040  0.3264 -0.3230  0.7850
17093TIP3    H172694   6.194   6.477   2.102  0.6206 -0.3294  0.4898
17093TIP3    H272695   6.070   6.442   2.022  0.5736 -0.4989  0.6348
17094TIP3   OH272696   5.949   0.409   0.864 -0.2375  0.2358  1.2294
17094TIP3    H172697   5.919   0.324   0.831 -0.8063  1.1353 -0.7106
17094TIP3    H272698   6.032   0.425   0.820 -0.9096  1.3723  0.2919
17095TIP3   OH272699   4.063   4.189  10.370  0.3069  0.4871 -0.1679
17095TIP3    H172700   4.088   4.266  10.319 -0.2540  1.0652  0.4121
17095TIP3    H272701   4.079   4.215  10.461  0.0118 -0.0408  0.0364
17096TIP3   OH272702   2.236   3.930  16.913 -0.0003  0.1382  0.3315
17096TIP3    H172703   2.196   4.012  16.885 -1.0671 -0.3656  0.3057
17096TIP3    H272704   2.259   3.944  17.005  1.0562  0.8977 -0.0340
17097TIP3   OH272705   4.463   0.273   4.857  0.4873 -0.0147  0.1882
17097TIP3    H172706   4.380   0.295   4.815  1.2823  1.8598 -0.5543
17097TIP3    H272707   4.471   0.178   4.849 -0.7189 -0.0129 -1.4007
17098TIP3   OH272708   0.449   6.297  16.614  0.0176  0.3851 -0.1604
17098TIP3    H172709   0.528   6.322  16.663  0.6294  1.4297 -1.6004
17098TIP3    H272710   0.435   6.205  16.637  0.1001  0.8793  2.1417
17099TIP3   OH272711   2.653   6.455  10.383 -0.1652 -0.2083 -0.1831
17099TIP3    H172712   2.735   6.423  10.346  0.4493  1.3323 -0.2325
17099TIP3    H272713   2.680   6.510  10.457 -1.0387  1.3830 -0.9833
17100TIP3   OH272714   5.584   4.165   2.518 -0.3722  0.3033  0.1781
17100TIP3    H172715   5.554   4.182   2.429  1.9281  2.0072 -0.3734
17100TIP3    H272716   5.583   4.251   2.560  1.0363 -0.0187  0.9374
17101TIP3   OH272717   1.560   4.930  13.616  0.2561 -0.1344  0.1636
17101TIP3    H172718   1.493   4.886  13.563  1.1265  0.3466 -1.4334
17101TIP3    H272719   1.642   4.887  13.590  0.8925  1.1776 -0.0609
17102TIP3   OH272720   6.608   3.736  16.932  0.1649  0.2206 -0.1417
17102TIP3    H172721   6.621   3.678  17.007  0.3774  2.2089  1.4501
17102TIP3    H272722   6.690   3.732  16.883  0.7690  0.3783  0.8402
17103TIP3   OH272723   5.009   5.150   2.835  0.3836 -0.4739  0.1507
17103TIP3    H172724   5.060   5.140   2.915 -0.7451 -1.2859  0.7906
17103TIP3    H272725   5.007   5.245   2.820  0.0624 -0.2494  1.4625
17104TIP3   OH272726   6.571   0.756   2.231 -0.0313  0.4683  0.4081
17104TIP3    H172727   6.568   0.789   2.141 -0.8083  1.4667  0.7798
17104TIP3    H272728   6.583   0.662   2.221 -2.4404  0.2249 -0.8194
17105TIP3   OH272729   5.395   3.366   1.414  0.0002  0.8367  0.0375
17105TIP3    H172730   5.347   3.328   1.487 -0.6576  1.6692  0.0466
17105TIP3    H272731   5.329   3.378   1.345  0.3780  1.1404 -0.2807
17106TIP3   OH272732   6.241   0.100  14.217 -0.1215 -0.0288 -0.1154
17106TIP3    H172733   6.330   0.133  14.234 -0.1273  0.8186 -1.5962
17106TIP3    H272734   6.184   0.175  14.231 -0.2562  0.3453 -2.3737
17107TIP3   OH272735   0.821   6.358  17.314  0.5848  0.4143 -0.1355
17107TIP3    H172736   0.829   6.266  17.287 -0.4524  0.2677  0.0332
17107TIP3    H272737   0.728   6.377  17.308  0.9450  1.9369 -1.6884
17108TIP3   OH272738   5.754   5.720   3.031  0.3718 -0.6928 -0.2179
17108TIP3    H172739   5.839   5.732   3.074  0.7068 -0.7034 -0.8780
17108TIP3    H272740   5.692   5.766   3.088  0.3001 -3.2556  1.9818
17109TIP3   OH272741   3.897   4.443  16.434  0.0476  0.0667  0.1408
17109TIP3    H172742   3.922   4.516  16.378 -0.5340  0.6835  0.6638
17109TIP3    H272743   3.804   4.428  16.413  0.0209 -0.1597  0.4218
17110TIP3   OH272744   4.851   3.387  15.663 -0.3908 -0.1199 -0.0818
17110TIP3    H172745   4.788   3.445  15.620 -0.4026  0.9371  1.2587
17110TIP3    H272746   4.919   3.446  15.696  0.6092 -1.0955 -0.3354
17111TIP3   OH272747   0.676   1.599   4.355 -0.2120  0.3667  0.4705
17111TIP3    H172748   0.700   1.569   4.443  1.6516  0.4312  0.0243
17111TIP3    H272749   0.709   1.689   4.351  1.4772 -0.2714 -0.9192
17112TIP3   OH272750   3.497   0.203   6.549  0.3401 -0.3650  0.2854
17112TIP3    H172751   3.455   0.118   6.560 -1.6763  0.6049  0.5719
17112TIP3    H272752   3.574   0.200   6.606  0.2140 -1.9147  0.4020
17113TIP3   OH272753   4.741   0.675   4.084  0.0420 -0.1881  0.2126
17113TIP3    H172754   4.827   0.709   4.108 -0.3230  0.6790  0.3374
17113TIP3    H272755   4.747   0.663   3.989 -0.1827  1.3396 -0.0134
17114TIP3   OH272756   1.755   4.518  16.591  0.5537 -0.0454  0.1398
17114TIP3    H172757   1.827   4.580  16.577  0.2657  0.7710  1.9079
17114TIP3    H272758   1.732   4.487  16.503  1.0048  2.0323 -0.7712
17115TIP3   OH272759   4.520   6.250   2.882  0.2460  0.2152 -0.3494
17115TIP3    H172760   4.552   6.160   2.885  0.6003  0.3621  0.4524
17115TIP3    H272761   4.436   6.244   2.837 -0.9459 -0.9124  1.8432
17116TIP3   OH272762   5.885   2.879  15.585 -0.1599  1.0186  0.0108
17116TIP3    H172763   5.855   2.956  15.633  1.0149  2.5114 -1.5323
17116TIP3    H272764   5.881   2.904  15.493  0.4506 -0.7025 -0.5327
17117TIP3   OH272765   2.769   4.518  16.627 -0.8565  0.2161 -0.1372
17117TIP3    H172766   2.714   4.459  16.678  0.3151 -1.4756 -0.7648
17117TIP3    H272767   2.775   4.597  16.681 -0.9654 -0.9092  1.5997
17118TIP3   OH272768   0.237   5.959   2.043 -0.2314 -0.1587 -0.4002
17118TIP3    H172769   0.186   6.035   2.069 -2.4501 -1.5235 -0.4568
17118TIP3    H272770   0.183   5.915   1.978  1.6023 -1.0783 -1.3751
17119TIP3   OH272771   5.984   2.324  12.340 -0.3513  0.1683  0.7344
17119TIP3    H172772   5.915   2.325  12.406 -0.1884 -1.1433  0.9377
17119TIP3    H272773   6.057   2.279  12.382  0.4962  1.1651  0.3697
17120TIP3   OH272774   4.291   6.326   0.328 -0.3052  0.5268  0.2752
17120TIP3    H172775   4.357   6.285   0.384 -1.1624 -0.3509  0.6700
17120TIP3    H272776   4.224   6.357   0.389 -1.2876 -0.5074 -0.2242
17121TIP3   OH272777   0.510   3.688   6.004  0.0776  0.3315 -0.6392
17121TIP3    H172778   0.495   3.783   6.009  0.7586  0.3795  1.0691
17121TIP3    H272779   0.600   3.676   6.035 -0.8684 -1.0732  1.8507
17122TIP3   OH272780   0.414   2.104   5.319  0.4694 -0.3379 -0.0570
17122TIP3    H172781   0.398   2.155   5.239  1.2273 -0.4194 -0.2750
17122TIP3    H272782   0.340   2.045   5.325  1.5820 -2.1139 -2.1457
17123TIP3   OH272783   5.632   0.339   0.966  0.3765 -0.1533  0.1952
17123TIP3    H172784   5.603   0.334   0.875 -1.5775  0.7412  0.7036
17123TIP3    H272785   5.697   0.409   0.967  2.3562 -1.8653 -0.9004
17124TIP3   OH272786   6.319   3.200  15.473 -0.2651  0.1079 -0.3627
17124TIP3    H172787   6.282   3.277  15.429 -1.8458 -0.9335 -0.9881
17124TIP3    H272788   6.251   3.173  15.534  0.0401 -1.0833 -0.5277
17125TIP3   OH272789   4.748   5.934   0.247 -0.2778  0.9299 -0.0356
17125TIP3    H172790   4.652   5.935   0.253 -0.3439  1.3788 -0.9107
17125TIP3    H272791   4.771   5.842   0.239 -0.6705  0.8412 -0.1626
17126TIP3   OH272792   6.729   1.307   3.358  0.6612 -0.3275 -0.3715
17126TIP3    H172793   6.685   1.264   3.431  0.5555  0.9026  0.3139
17126TIP3    H272794   6.781   1.377   3.398 -0.1954  1.0312 -1.5088
17127TIP3   OH272795   5.702   3.246  11.291 -0.0525 -0.7847 -0.6469
17127TIP3    H172796   5.764   3.213  11.226  1.7868  1.1144  0.0612
17127TIP3    H272797   5.748   3.238  11.375 -0.3766  1.4451 -0.1973
17128TIP3   OH272798   1.063   5.240  10.937  0.1717  0.2366  0.1244
17128TIP3    H172799   1.039   5.237  10.844  1.4906  0.0736 -0.2334
17128TIP3    H272800   1.146   5.193  10.941  0.4931  0.8800  1.2720
17129TIP3   OH272801   0.700   6.708  13.332 -0.3847  0.0608 -0.1868
17129TIP3    H172802   0.723   6.618  13.356  1.1700 -0.5520 -3.4298
17129TIP3    H272803   0.639   6.699  13.259 -2.8754  1.7735  1.4937
17130TIP3   OH272804   5.172   6.255   5.941  0.8466  0.7725  0.1959
17130TIP3    H172805   5.138   6.176   5.899  0.6329  0.6414  0.6082
17130TIP3    H272806   5.119   6.265   6.020  0.6581  1.5036 -0.0119
17131TIP3   OH272807   1.258   6.026  15.824  0.1705  0.0788  0.1602
17131TIP3    H172808   1.226   6.054  15.910 -0.6835 -0.0075 -0.1229
17131TIP3    H272809   1.179   6.013  15.772  0.6543 -0.5867 -0.4239
17132TIP3   OH272810   4.773   1.967   0.830  0.0807 -0.0678  0.3230
17132TIP3    H172811   4.696   1.991   0.777 -0.8412 -1.8237  0.7940
17132TIP3    H272812   4.846   1.967   0.768 -0.3109  1.4516 -0.1717
17133TIP3   OH272813   6.490   4.208  14.659 -0.1535 -0.3610  0.7124
17133TIP3    H172814   6.424   4.145  14.689 -0.6571  0.2225  0.8498
17133TIP3    H272815   6.492   4.275  14.727  0.2461 -0.1293  0.4760
17134TIP3   OH272816   3.546   3.533  14.780  0.0646  0.5200  0.0230
17134TIP3    H172817   3.473   3.588  14.806 -0.2681  1.2407 -2.2239
17134TIP3    H272818   3.613   3.594  14.750 -0.0139 -0.2100 -1.7726
17135TIP3   OH272819   5.899   6.304   5.606 -0.9904  0.6040 -0.8658
17135TIP3    H172820   5.932   6.317   5.517  1.4093 -0.6329 -0.2610
17135TIP3    H272821   5.861   6.216   5.604  0.1743  0.0691 -0.4223
17136TIP3   OH272822   0.176   4.851  13.047  0.6271  0.2313  0.4235
17136TIP3    H172823   0.267   4.871  13.025  0.4692 -0.9696 -1.6157
17136TIP3    H272824   0.141   4.934  13.080  2.0592  1.1299 -0.1928
17137TIP3   OH272825   6.200   1.529  15.776 -0.5229  0.1307 -0.0236
17137TIP3    H172826   6.232   1.448  15.817  0.1888 -0.1851 -1.1513
17137TIP3    H272827   6.261   1.596  15.806  0.0529 -0.1154 -0.6375
17138TIP3   OH272828   5.441   2.709  12.333 -0.0563  0.1723  0.1387
17138TIP3    H172829   5.504   2.779  12.347 -0.1480  0.1714  0.5634
17138TIP3    H272830   5.355   2.751  12.344 -0.1422  0.2348 -0.7041
17139TIP3   OH272831   2.782   3.366  12.008  0.0588  0.3932 -0.1371
17139TIP3    H172832   2.702   3.334  12.050 -0.2825  2.0115  0.5441
17139TIP3    H272833   2.751   3.433  11.948  0.8399  0.3651 -0.5704
17140TIP3   OH272834   1.813   6.742  12.233 -0.8616 -0.0265  0.1367
17140TIP3    H172835   1.834   6.682  12.304 -0.7918 -0.9369 -0.6229
17140TIP3    H272836   1.898   6.768  12.197 -0.9075 -0.1817 -0.0920
17141TIP3   OH272837   3.868   4.429  16.856  0.2705  0.8565  0.1362
17141TIP3    H172838   3.779   4.400  16.835  0.8502 -1.3311  0.4388
17141TIP3    H272839   3.922   4.392  16.786  1.3042 -0.4591  1.5642
17142TIP3   OH272840   5.549   2.149   2.111  0.3787  0.5243  0.1747
17142TIP3    H172841   5.471   2.189   2.072 -0.9741 -2.7361 -0.8105
17142TIP3    H272842   5.544   2.172   2.204 -2.5973 -0.6497  0.4167
17143TIP3   OH272843   5.640   5.130  15.770  0.0921  0.0852  0.0273
17143TIP3    H172844   5.573   5.109  15.835 -1.1240 -1.3626 -1.6151
17143TIP3    H272845   5.698   5.192  15.815 -1.8047  0.6867  1.8079
17144TIP3   OH272846   2.587   5.470  16.900 -0.7497 -0.0891  0.3147
17144TIP3    H172847   2.529   5.546  16.902 -1.0080 -0.2429 -0.6188
17144TIP3    H272848   2.584   5.441  16.809  0.9635  0.0326  0.1876
17145TIP3   OH272849   2.242   3.550  12.413 -0.4739  0.2002 -0.4805
17145TIP3    H172850   2.265   3.636  12.378  1.0222 -0.1747 -0.4653
17145TIP3    H272851   2.324   3.502  12.417 -1.2643 -1.2211 -0.4083
17146TIP3   OH272852   4.437   4.489  13.325 -0.7254 -0.3294 -0.0727
17146TIP3    H172853   4.370   4.493  13.394  0.3827  1.9971  0.9948
17146TIP3    H272854   4.508   4.544  13.358  0.7315 -0.8356 -2.1946
17147TIP3   OH272855   0.016   5.154   4.986  0.5362  0.3508  0.7338
17147TIP3    H172856  -0.058   5.183   4.933  1.5540  0.2475 -0.8067
17147TIP3    H272857  -0.001   5.191   5.073  0.0969  2.6856 -0.2711
17148TIP3   OH272858   1.563   5.318   5.455 -0.0314  0.3020  0.0041
17148TIP3    H172859   1.563   5.293   5.363  1.2289  1.8596 -0.4544
17148TIP3    H272860   1.563   5.235   5.502 -0.4571 -0.5197 -1.3942
17149TIP3   OH272861   3.738   1.434  16.574 -0.0770 -0.3537  0.7722
17149TIP3    H172862   3.737   1.530  16.579  0.4315 -0.3830  1.7477
17149TIP3    H272863   3.809   1.414  16.513  0.4135 -0.1154  1.2555
17150TIP3   OH272864   4.133   2.832   0.566  0.3157 -0.4101 -0.3444
17150TIP3    H172865   4.131   2.905   0.628  0.4943  0.3279 -1.1904
17150TIP3    H272866   4.220   2.836   0.527  0.0210 -0.5531 -1.0177
17151TIP3   OH272867   3.866   1.791   2.661 -0.0966 -0.1781  0.2776
17151TIP3    H172868   3.845   1.848   2.735 -0.4492  2.8901 -1.9752
17151TIP3    H272869   3.961   1.792   2.656 -0.1164  1.3757 -0.4693
17152TIP3   OH272870   1.312   1.163   4.318  0.0473 -0.1077  0.2082
17152TIP3    H172871   1.316   1.214   4.237  1.6376 -0.8676 -0.2101
17152TIP3    H272872   1.365   1.213   4.380 -2.3766  1.2796  1.3084
17153TIP3   OH272873   2.742   0.956   0.658 -0.4790 -0.0933  0.8604
17153TIP3    H172874   2.811   1.012   0.623  0.8130 -1.9961  0.2366
17153TIP3    H272875   2.661   1.001   0.633  0.4855  1.3642  0.1939
17154TIP3   OH272876   4.050   1.623  17.177 -0.6356  0.2426  0.2741
17154TIP3    H172877   4.125   1.665  17.218  0.3164 -0.8505 -0.3034
17154TIP3    H272878   3.982   1.691  17.176  1.3037  2.3658 -2.1328
17155TIP3   OH272879   6.319   2.422   3.094 -0.0357 -0.1851 -0.5034
17155TIP3    H172880   6.286   2.510   3.115  0.8350  0.4500 -1.6711
17155TIP3    H272881   6.388   2.438   3.029  3.2215 -1.3493  2.4024
17156TIP3   OH272882   2.285   4.322  15.543  0.1239  0.5862  0.0363
17156TIP3    H172883   2.229   4.258  15.588 -0.4405  0.8260 -0.3098
17156TIP3    H272884   2.363   4.273  15.518  0.0970  0.2597  0.5807
17157TIP3   OH272885   0.828   5.254  16.193  0.1974  0.2730 -0.1893
17157TIP3    H172886   0.830   5.217  16.104 -1.5454  1.2769 -0.6941
17157TIP3    H272887   0.763   5.325  16.188 -0.6917 -0.2840  2.1392
17158TIP3   OH272888   5.435   5.852   1.733 -0.0584  0.1758  0.2053
17158TIP3    H172889   5.421   5.935   1.687 -0.0819 -0.3511 -0.7648
17158TIP3    H272890   5.481   5.877   1.814  2.0200  0.9234 -1.1279
17159TIP3   OH272891   2.798   2.527  15.795 -0.0748 -0.0097 -0.8828
17159TIP3    H172892   2.769   2.436  15.789 -2.9318  0.7010  0.1540
17159TIP3    H272893   2.892   2.522  15.812 -0.0578 -2.7172 -1.3576
17160TIP3   OH272894   6.466   5.539   3.285 -0.1194  0.1574 -0.5760
17160TIP3    H172895   6.482   5.452   3.251  0.0130  0.7865 -2.1815
17160TIP3    H272896   6.541   5.557   3.342 -0.4452 -0.9781  0.2506
17161TIP3   OH272897   6.516   2.840   5.106 -0.1431  0.1783 -0.3489
17161TIP3    H172898   6.594   2.834   5.051 -1.0666  0.7963 -1.8089
17161TIP3    H272899   6.538   2.792   5.186  0.9121 -1.6492 -1.6599
17162TIP3   OH272900   0.324   1.726  12.272  0.1461 -0.2331 -0.0574
17162TIP3    H172901   0.252   1.691  12.325 -1.2063  0.8358 -1.1096
17162TIP3    H272902   0.327   1.669  12.195 -0.5881  0.6030 -0.7205
17163TIP3   OH272903   0.741   0.000  11.892  0.0595  0.6407  0.5839
17163TIP3    H172904   0.811  -0.033  11.836  0.0156  0.2751  0.7485
17163TIP3    H272905   0.726   0.089  11.860 -2.5214 -0.7088 -2.5127
17164TIP3   OH272906   2.252   1.136   1.251  0.0924 -0.5197  0.7584
17164TIP3    H172907   2.177   1.190   1.223  1.4681  1.7451  1.1986
17164TIP3    H272908   2.317   1.149   1.182 -0.6021 -4.3667 -0.8835
17165TIP3   OH272909   0.743   2.725  11.658 -0.8418 -0.3768  0.2595
17165TIP3    H172910   0.733   2.745  11.565 -3.1338  1.3042  0.7827
17165TIP3    H272911   0.835   2.698  11.666  0.4730  2.7322 -1.9515
17166TIP3   OH272912   3.876   1.045   0.983  0.0434 -0.5992  0.0409
17166TIP3    H172913   3.780   1.053   0.978 -0.0052 -1.5408 -1.1649
17166TIP3    H272914   3.901   1.014   0.896  1.4478 -0.4437  0.3741
17167TIP3   OH272915   4.075   1.221  15.461  0.0646 -0.1019  0.1917
17167TIP3    H172916   4.167   1.244  15.472 -0.3970  2.4819 -0.4847
17167TIP3    H272917   4.034   1.243  15.545 -0.0034 -0.9088  0.3754
17168TIP3   OH272918   0.902   3.123   3.978  0.1088  0.1772 -0.2602
17168TIP3    H172919   0.926   3.041   3.935 -1.9175 -1.3107  1.2719
17168TIP3    H272920   0.810   3.112   4.001 -0.6596  3.4738 -1.2432
17169TIP3   OH272921   3.669   0.815  12.208 -0.1998 -0.1145 -0.1533
17169TIP3    H172922   3.628   0.889  12.164  0.7221  0.2256 -0.4812
17169TIP3    H272923   3.738   0.787  12.147 -0.2153 -0.9283  0.1901
17170TIP3   OH272924   4.352   0.036  11.516 -0.0618  0.6566  0.2464
17170TIP3    H172925   4.347  -0.055  11.487 -0.9979  1.1077 -1.0993
17170TIP3    H272926   4.416   0.035  11.588  1.0976 -0.7950 -0.7391
17171TIP3   OH272927   4.118   5.927   1.189 -0.1270  0.4523  0.5380
17171TIP3    H172928   4.124   5.832   1.180  2.4468  0.6276 -0.3452
17171TIP3    H272929   4.170   5.947   1.267 -0.9914  1.1064  0.9560
17172TIP3   OH272930   2.407   1.412   3.442  0.3439  0.2347  0.2863
17172TIP3    H172931   2.469   1.340   3.448  1.6383  1.2669 -0.1340
17172TIP3    H272932   2.425   1.451   3.356  0.7264  1.9512  1.1020
17173TIP3   OH272933   1.121   1.998  13.999  0.3022 -0.0204  0.3617
17173TIP3    H172934   1.093   2.060  14.067  0.4286  1.1215 -0.5948
17173TIP3    H272935   1.197   2.040  13.958 -0.5199 -0.0787 -1.2954
17174TIP3   OH272936   0.462   1.531  14.597 -0.4769  0.0514  0.7303
17174TIP3    H172937   0.509   1.549  14.515 -1.9143 -1.6859 -0.5399
17174TIP3    H272938   0.401   1.605  14.605  0.5348  0.8889  0.9372
17175TIP3   OH272939   0.143   3.652  12.724  0.2650 -0.4971 -0.5169
17175TIP3    H172940   0.114   3.736  12.689  0.3075 -0.3579 -0.2165
17175TIP3    H272941   0.238   3.654  12.714  0.1951 -0.8652 -1.3037
17176TIP3   OH272942   2.942   6.009   3.665 -0.5799  0.4126 -0.3423
17176TIP3    H172943   3.024   6.051   3.638 -1.1190  2.1975  0.6234
17176TIP3    H272944   2.963   5.965   3.748 -0.6838  1.2498  0.1383
17177TIP3   OH272945   3.714   1.175   1.862 -0.3747  0.1138 -0.3033
17177TIP3    H172946   3.729   1.145   1.772 -1.8439  0.6468 -0.7673
17177TIP3    H272947   3.728   1.097   1.916 -0.3235 -0.4310 -1.0865
17178TIP3   OH272948   2.580   3.949   4.574 -0.2794  0.7161  0.1888
17178TIP3    H172949   2.603   4.018   4.512  0.2712  0.1658 -0.2388
17178TIP3    H272950   2.541   3.995   4.648  0.4761  1.5261  0.1052
17179TIP3   OH272951   0.817   1.957   5.071 -0.0137 -0.0777  0.1084
17179TIP3    H172952   0.893   1.899   5.073  0.0812  0.0427 -0.0040
17179TIP3    H272953   0.831   2.017   5.144  0.4768  0.5460 -0.4814
17180TIP3   OH272954   6.670   0.344  14.060  0.3091 -0.3276  0.1591
17180TIP3    H172955   6.734   0.302  14.118  0.3150 -1.2554 -0.5094
17180TIP3    H272956   6.626   0.272  14.016  0.5675  0.3760 -1.2877
17181TIP3   OH272957   3.891   2.700   0.303  0.3446 -0.1855  0.3088
17181TIP3    H172958   3.819   2.666   0.250  1.0525 -0.1825 -0.6730
17181TIP3    H272959   3.931   2.768   0.249  0.6230  0.3409  1.1532
17182TIP3   OH272960   6.318   1.330  12.988  0.3699  0.6789 -0.1631
17182TIP3    H172961   6.358   1.372  13.064  0.7113  1.2754 -0.6617
17182TIP3    H272962   6.274   1.402  12.942 -0.9639  0.1057  0.1748
17183TIP3   OH272963   3.833   0.836   5.477  0.5714 -0.1299 -0.8793
17183TIP3    H172964   3.831   0.753   5.526  3.0079 -0.9935 -2.0916
17183TIP3    H272965   3.910   0.882   5.510 -0.1696  1.2264 -0.9562
17184TIP3   OH272966   1.420   3.139   5.819  0.0965 -0.3774 -0.5684
17184TIP3    H172967   1.345   3.197   5.834  0.5032 -0.1058  0.4962
17184TIP3    H272968   1.413   3.115   5.727 -1.8901 -1.1911 -0.2663
17185TIP3   OH272969   0.840   1.549   6.754 -0.5452 -0.1687 -0.5991
17185TIP3    H172970   0.896   1.591   6.689 -0.9519 -0.1742 -0.9536
17185TIP3    H272971   0.853   1.600   6.834  0.3552 -0.4716 -0.5330
17186TIP3   OH272972   4.781   0.616   0.091  0.5510 -0.3456  0.1890
17186TIP3    H172973   4.771   0.710   0.107  2.2214  0.1981 -1.5421
17186TIP3    H272974   4.705   0.593   0.037  1.0342  0.4160 -0.8334
17187TIP3   OH272975   6.287   1.359  15.983 -0.7078  0.0641 -0.0144
17187TIP3    H172976   6.337   1.278  15.992  1.2389  1.3395  1.8108
17187TIP3    H272977   6.248   1.372  16.070 -0.3669  1.4224 -0.0410
17188TIP3   OH272978   4.009   2.611   4.008 -0.3174 -0.0830 -0.0794
17188TIP3    H172979   4.004   2.688   4.065 -0.9331  0.1971 -0.5015
17188TIP3    H272980   4.098   2.612   3.974  0.3830 -0.8225  1.6533
17189TIP3   OH272981   1.078   4.647   1.192  0.2520  0.2709  0.2895
17189TIP3    H172982   0.985   4.636   1.209  0.3300  0.4898  0.8921
17189TIP3    H272983   1.121   4.610   1.269  0.6169  1.3806  0.6377
17190TIP3   OH272984   0.130   4.448  11.252  0.5310 -0.2448  0.8923
17190TIP3    H172985   0.211   4.443  11.201 -0.0872  0.5663 -0.2093
17190TIP3    H272986   0.085   4.525  11.218  0.1165  0.3824  2.7320
17191TIP3   OH272987   2.587   5.782   6.412 -0.3976 -0.1829  0.3660
17191TIP3    H172988   2.528   5.853   6.439  0.0736  0.4826 -0.3144
17191TIP3    H272989   2.670   5.802   6.454 -0.3930 -0.6040  0.5628
17192TIP3   OH272990   4.056   6.636   2.578  0.0567 -0.3358  0.3702
17192TIP3    H172991   3.974   6.588   2.589  1.1821 -2.1760  1.2461
17192TIP3    H272992   4.114   6.601   2.646  1.4600  1.1689  0.0099
17193TIP3   OH272993   3.373   3.780   3.808  0.4331  0.1105  0.1197
17193TIP3    H172994   3.304   3.821   3.756  0.2316 -0.5191 -0.1252
17193TIP3    H272995   3.328   3.749   3.886  0.6375  0.5956  0.4327
17194TIP3   OH272996   2.878   2.317  12.247 -0.4551  0.3896  0.0116
17194TIP3    H172997   2.818   2.382  12.212  1.1997  1.2596 -1.3479
17194TIP3    H272998   2.870   2.242  12.188 -0.4153  0.3966 -0.0033
17195TIP3   OH272999   4.627   4.841  14.426 -0.9328 -0.7942 -0.4437
17195TIP3    H173000   4.610   4.827  14.333 -0.1277  0.1497 -0.7627
17195TIP3    H273001   4.624   4.937  14.436 -0.3398 -0.8527  0.3542
17196TIP3   OH273002   5.157   3.708  12.571  0.4239  0.2119  0.1252
17196TIP3    H173003   5.074   3.748  12.543 -0.2831 -0.7987  0.7383
17196TIP3    H273004   5.206   3.695  12.489  0.2687  1.4102 -0.1817
17197TIP3   OH273005   1.683   4.685  16.091  0.6805 -0.0328  0.6275
17197TIP3    H173006   1.708   4.593  16.084  0.3144 -0.0460 -0.8229
17197TIP3    H273007   1.636   4.691  16.174  1.4256 -0.9700  1.1311
17198TIP3   OH273008   0.816   2.943  13.924 -0.3269 -0.4044 -1.0370
17198TIP3    H173009   0.835   2.861  13.968 -1.6290 -1.3007 -2.0827
17198TIP3    H273010   0.775   2.998  13.991 -0.1831 -0.8810 -0.5519
17199TIP3   OH273011   5.714   5.400  14.464  0.0047  0.9181  0.4630
17199TIP3    H173012   5.779   5.345  14.420  0.8884  0.3965  2.3320
17199TIP3    H273013   5.660   5.337  14.513  0.7634  1.6439  2.2971
17200TIP3   OH273014   2.672   0.073   3.164 -0.6159  0.3157  0.0464
17200TIP3    H173015   2.669   0.130   3.241 -2.0349  0.2027  0.0967
17200TIP3    H273016   2.693  -0.014   3.199  3.0808  0.9550 -0.1740
17201TIP3   OH273017   0.623   1.584  12.333  0.0377 -0.1287 -0.1196
17201TIP3    H173018   0.588   1.496  12.347  1.6396 -0.6299  1.0205
17201TIP3    H273019   0.693   1.573  12.269 -0.8805  0.6371 -1.3076
17202TIP3   OH273020   4.143   0.559  15.656  0.0587 -0.0058  0.2832
17202TIP3    H173021   4.116   0.553  15.564 -0.3345  2.2277  0.1858
17202TIP3    H273022   4.065   0.534  15.706 -0.4539  0.9267 -0.0164
17203TIP3   OH273023   1.295   3.157   0.724  0.1509 -0.4716 -0.5285
17203TIP3    H173024   1.327   3.156   0.815  1.0015  0.0804 -0.8076
17203TIP3    H273025   1.230   3.088   0.721  1.4094 -1.7287  0.0471
17204TIP3   OH273026   1.606   5.009  14.021 -0.4413  0.2454 -0.2859
17204TIP3    H173027   1.650   4.959  14.089 -1.5735  1.3126  1.3173
17204TIP3    H273028   1.613   4.955  13.942  0.8955 -1.0387  0.6670
17205TIP3   OH273029   1.137   0.807   1.391 -0.3390 -0.0661 -0.4818
17205TIP3    H173030   1.152   0.714   1.376 -0.3131 -0.0503 -0.5564
17205TIP3    H273031   1.184   0.827   1.471  1.4231  0.3480 -1.5715
17206TIP3   OH273032   0.965   1.005   0.014 -0.3166 -0.2285  0.1155
17206TIP3    H173033   1.040   1.056   0.043  0.6720 -0.9735 -1.0263
17206TIP3    H273034   0.945   1.039  -0.073  0.5165 -1.8931 -0.7752
17207TIP3   OH273035   6.094   1.846   1.409 -0.0287  0.0556 -0.1800
17207TIP3    H173036   6.153   1.771   1.407  0.3489  0.3509 -0.1407
17207TIP3    H273037   6.036   1.828   1.483  0.7894  0.3510  0.5462
17208TIP3   OH273038   0.617   5.599  15.981  0.0163 -0.4906 -0.2335
17208TIP3    H173039   0.674   5.648  15.921 -1.2778  0.2733 -0.8775
17208TIP3    H273040   0.533   5.645  15.977 -0.8701 -2.0168  0.1444
17209TIP3   OH273041   3.638   0.003  16.808 -0.3284  0.7806 -0.0190
17209TIP3    H173042   3.683   0.040  16.884 -0.6517  0.7440  0.1906
17209TIP3    H273043   3.573   0.069  16.785 -0.9575  0.3187  0.3981
17210TIP3   OH273044   2.239   4.534   5.665  0.1908  0.2147 -0.1484
17210TIP3    H173045   2.158   4.487   5.644 -0.3217  1.1801 -0.3763
17210TIP3    H273046   2.275   4.486   5.740 -0.1704 -0.7031 -0.5461
17211TIP3   OH273047   3.862   5.174  15.032 -0.0860  0.5298  0.3692
17211TIP3    H173048   3.833   5.243  15.092 -0.4059 -0.0819  0.9365
17211TIP3    H273049   3.841   5.208  14.945  1.1951  1.8117  0.5201
17212TIP3   OH273050   6.423   2.097   4.930 -0.7678  0.5561  0.1374
17212TIP3    H173051   6.498   2.142   4.891 -2.0634 -0.1931 -3.6907
17212TIP3    H273052   6.349   2.155   4.914 -1.7156 -0.7937 -0.5907
17213TIP3   OH273053   4.574   5.906  14.853 -0.1562  0.0557 -0.4951
17213TIP3    H173054   4.596   5.907  14.760 -0.4235 -1.1382 -0.5935
17213TIP3    H273055   4.642   5.852  14.893 -0.1630  0.3845 -0.0318
17214TIP3   OH273056   3.525   4.473  16.013  0.7835 -0.8235  0.0044
17214TIP3    H173057   3.584   4.401  16.033 -0.5237 -1.4468  2.0064
17214TIP3    H273058   3.449   4.431  15.973 -0.0908 -0.6744  1.4037
17215TIP3   OH273059   0.990   3.437   0.142  0.3148  0.2308  0.5231
17215TIP3    H173060   1.022   3.514   0.096 -1.3105 -0.2054 -1.4508
17215TIP3    H273061   1.060   3.372   0.132 -0.3218 -0.1368 -2.1680
17216TIP3   OH273062   5.232   5.225  12.647  0.2601 -0.1661  0.0959
17216TIP3    H173063   5.257   5.314  12.673  0.7809 -0.4545  0.6090
17216TIP3    H273064   5.171   5.197  12.715 -0.4248  0.0303 -0.4211
17217TIP3   OH273065   1.389   5.910   0.119 -0.0942  0.4207 -0.3317
17217TIP3    H173066   1.411   5.950   0.035  0.1891 -1.0134 -0.9844
17217TIP3    H273067   1.316   5.851   0.098  1.1784 -1.3521  0.0149
17218TIP3   OH273068   2.173   2.077  17.223  0.3380  0.4602  0.5682
17218TIP3    H173069   2.262   2.102  17.198 -0.1068  1.7005  0.1543
17218TIP3    H273070   2.133   2.045  17.142  0.7619 -1.2588  1.0036
17219TIP3   OH273071   0.973   1.123  11.725 -0.2268 -0.1876 -0.1250
17219TIP3    H173072   1.050   1.152  11.676 -0.1975 -0.0886 -0.0229
17219TIP3    H273073   0.955   1.196  11.785  0.8241 -1.0135  1.2811
17220TIP3   OH273074   1.177   0.337  10.855  0.1212 -0.6351  0.1689
17220TIP3    H173075   1.237   0.263  10.866 -0.1370 -0.8171  0.3711
17220TIP3    H273076   1.091   0.302  10.881 -0.3813 -0.8580 -1.6838
17221TIP3   OH273077   5.081   2.573  14.096  0.2221 -0.2303 -0.2110
17221TIP3    H173078   5.114   2.515  14.027  0.2894 -0.4681  0.0200
17221TIP3    H273079   4.987   2.580  14.079  0.0662 -1.0711  0.2385
17222TIP3   OH273080   2.363   6.579  10.939  0.3061 -0.4740 -0.1819
17222TIP3    H173081   2.352   6.663  10.895  2.1410  1.1944  2.2222
17222TIP3    H273082   2.284   6.569  10.992  0.4354  0.1784  0.1438
17223TIP3   OH273083   1.726   0.066   5.224  0.5326  0.0160 -0.7403
17223TIP3    H173084   1.719   0.134   5.292 -0.2891 -0.7795  0.0007
17223TIP3    H273085   1.668   0.097   5.154  0.3439  0.1876 -0.5094
17224TIP3   OH273086   5.515   6.243  17.037  0.1857  0.4711 -0.2869
17224TIP3    H173087   5.430   6.229  16.995  0.4010  0.0846 -0.6054
17224TIP3    H273088   5.576   6.254  16.964  0.6125 -0.4971 -0.0991
17225TIP3   OH273089   6.124   5.810  16.684  0.0677  0.1339  0.5070
17225TIP3    H173090   6.194   5.873  16.700  0.5791 -0.4138  0.4900
17225TIP3    H273091   6.170   5.727  16.669 -0.5545 -0.0661 -0.3398
17226TIP3   OH273092   1.835   1.460   3.094  0.7326  0.1286  0.3608
17226TIP3    H173093   1.881   1.376   3.087  0.1907 -0.1630  0.1982
17226TIP3    H273094   1.903   1.526   3.080  0.5290 -0.2815 -4.4756
17227TIP3   OH273095   2.169   0.445  12.736 -0.0903 -0.3766 -0.0858
17227TIP3    H173096   2.110   0.393  12.682  2.4464  0.2521 -3.8515
17227TIP3    H273097   2.231   0.381  12.772  0.5854 -0.4710 -1.3474
17228TIP3   OH273098   3.880   3.606   1.348  0.3481  0.3866 -0.8297
17228TIP3    H173099   3.785   3.603   1.363  0.5500 -0.5729  0.4520
17228TIP3    H273100   3.916   3.543   1.410  1.8111  0.4893 -1.5301
17229TIP3   OH273101   3.373   0.891  14.099 -0.6024  0.7321 -0.1003
17229TIP3    H173102   3.381   0.806  14.143 -0.9517  0.7793  0.0598
17229TIP3    H273103   3.306   0.877  14.032  0.9871  0.2399 -1.6719
17230TIP3   OH273104   0.847   6.184  15.225  0.3812 -0.1631  0.0588
17230TIP3    H173105   0.751   6.192  15.222  0.3729  0.3838  1.3809
17230TIP3    H273106   0.867   6.120  15.156 -1.0167 -0.9953  0.3725
17231TIP3   OH273107   3.513   6.054  15.171 -0.8602  0.2609  0.0853
17231TIP3    H173108   3.428   6.025  15.139 -0.6682  0.5939 -0.7651
17231TIP3    H273109   3.521   6.015  15.258 -1.3808 -0.7260 -0.2902
17232TIP3   OH273110   3.351   2.798  12.160  0.5172  0.1675 -0.1545
17232TIP3    H173111   3.413   2.766  12.225 -0.1366 -1.5073 -0.3005
17232TIP3    H273112   3.406   2.827  12.087  1.1612 -1.0812 -0.1974
17233TIP3   OH273113   0.400   5.876   2.310 -0.0114  0.0195 -0.5361
17233TIP3    H173114   0.385   5.962   2.272  0.3023  0.0912 -0.4999
17233TIP3    H273115   0.388   5.889   2.405  1.4256  0.3414 -0.3807
17234TIP3   OH273116   1.540   2.408   0.679  0.2493  0.1851 -0.0887
17234TIP3    H173117   1.461   2.457   0.702 -0.6546 -0.7956 -0.9730
17234TIP3    H273118   1.510   2.317   0.672  1.4700 -0.2108 -0.4011
17235TIP3   OH273119   3.362   6.551   3.309  0.4861 -0.0775  0.3979
17235TIP3    H173120   3.402   6.595   3.234 -1.0430  2.1137  0.7569
17235TIP3    H273121   3.420   6.478   3.328  1.5075 -0.0548 -2.2083
17236TIP3   OH273122   0.349   3.809   5.625  0.2055 -0.3606 -0.2001
17236TIP3    H173123   0.439   3.775   5.622 -0.0860 -1.1294 -1.7583
17236TIP3    H273124   0.299   3.747   5.572 -0.7813  1.3191 -1.3371
17237TIP3   OH273125   0.271   1.546  17.339 -0.1171  0.2062 -0.2359
17237TIP3    H173126   0.347   1.507  17.384 -1.4349 -1.5787  0.5653
17237TIP3    H273127   0.198   1.528  17.397 -1.4502  0.2944 -1.8323
17238TIP3   OH273128   1.424   2.889  13.413  0.8169 -0.0842 -0.1229
17238TIP3    H173129   1.498   2.831  13.430  0.9820  0.3024  0.4909
17238TIP3    H273130   1.347   2.832  13.422  1.0103 -0.3545 -0.1750
17239TIP3   OH273131   1.555   5.482  13.672 -0.1037 -0.0873 -0.2215
17239TIP3    H173132   1.587   5.551  13.730 -2.5189 -0.8162  2.2007
17239TIP3    H273133   1.602   5.495  13.590  1.4765  2.7412  1.0064
17240TIP3   OH273134   4.405   5.387   5.889  0.0296 -0.0674 -0.1801
17240TIP3    H173135   4.473   5.452   5.904 -0.9099  0.4087  2.4791
17240TIP3    H273136   4.323   5.435   5.900 -0.7870 -0.8433 -2.3542
17241TIP3   OH273137   3.592   5.704  16.953  0.2703  0.0827  0.7641
17241TIP3    H173138   3.511   5.754  16.944  1.0048  0.9665 -2.4243
17241TIP3    H273139   3.574   5.640  17.021 -2.5770  1.2080  1.1930
17242TIP3   OH273140   5.113   6.311  16.749 -0.6676  0.5760  0.5780
17242TIP3    H173141   5.038   6.336  16.804 -2.0792 -0.0063 -1.0008
17242TIP3    H273142   5.108   6.369  16.673 -0.0877 -0.1286 -0.0133
17243TIP3   OH273143   3.438   3.432   2.106  0.3187 -0.5801 -0.3081
17243TIP3    H173144   3.493   3.354   2.115  1.4755  0.1784 -0.6254
17243TIP3    H273145   3.500   3.504   2.095 -0.7097  0.4656  0.5108
17244TIP3   OH273146   1.641   4.117   6.232  0.1082  0.2694  0.4810
17244TIP3    H173147   1.708   4.151   6.291 -0.0711  0.1434  0.7572
17244TIP3    H273148   1.562   4.110   6.286 -0.4306  1.4579 -0.1112
17245TIP3   OH273149   3.180   4.213  11.517 -0.6822  0.3915  0.2683
17245TIP3    H173150   3.269   4.213  11.482 -0.5231 -0.8966  0.6407
17245TIP3    H273151   3.177   4.291  11.573  0.5264 -0.0533  1.0094
17246TIP3   OH273152   2.354   5.276  10.404 -0.4719  0.6132 -0.1320
17246TIP3    H173153   2.398   5.326  10.473  0.0285  0.7023 -0.5086
17246TIP3    H273154   2.425   5.242  10.349 -0.7714 -1.0914  0.4882
17247TIP3   OH273155   2.270   0.638   5.919 -0.3038  0.5456  0.1500
17247TIP3    H173156   2.311   0.698   5.982  0.6287  0.3177 -0.2238
17247TIP3    H273157   2.235   0.568   5.973  0.7381  0.2111  0.4080
17248TIP3   OH273158   5.587   6.022   4.385 -0.2979 -0.0962  0.8006
17248TIP3    H173159   5.668   6.059   4.350 -0.6667 -0.0596 -0.0550
17248TIP3    H273160   5.605   6.008   4.478  0.9218 -0.7177  0.5012
17249TIP3   OH273161   0.924   4.258   1.734 -0.6219  0.4812  0.6930
17249TIP3    H173162   0.840   4.256   1.689 -0.2917 -0.8527  0.0672
17249TIP3    H273163   0.947   4.350   1.741 -0.9354  0.7534 -1.4271
17250TIP3   OH273164   5.969   4.167  13.948 -0.9275  0.6076  0.0350
17250TIP3    H173165   5.874   4.174  13.944 -1.0697 -1.3400 -0.9566
17250TIP3    H273166   5.985   4.092  14.004 -0.0387 -0.1648 -1.2120
17251TIP3   OH273167   2.843   0.298  13.190  0.5138  0.1715  0.4355
17251TIP3    H173168   2.843   0.379  13.241 -0.4170 -0.4337  1.4569
17251TIP3    H273169   2.834   0.229  13.256  0.2522 -0.7045 -0.4938
17252TIP3   OH273170   0.653   5.913   0.467 -0.5089  0.0808 -0.0918
17252TIP3    H173171   0.655   5.952   0.380 -1.8608  0.7558  0.1622
17252TIP3    H273172   0.669   5.820   0.452 -0.5339  0.2224 -1.0349
17253TIP3   OH273173   1.222   6.304   0.066  0.0472  0.2116  0.2229
17253TIP3    H173174   1.221   6.286  -0.028 -0.1004  1.7395 -0.0893
17253TIP3    H273175   1.148   6.254   0.101 -0.8621  0.8763 -0.7178
17254TIP3   OH273176   5.824   4.877   5.989 -0.0062  0.4863  0.3805
17254TIP3    H173177   5.815   4.875   6.084  0.6591 -1.9109  0.4805
17254TIP3    H273178   5.915   4.904   5.973 -0.4854  2.1630  0.3328
17255TIP3   OH273179   0.700   5.025   3.772 -0.3512  0.0238 -0.0754
17255TIP3    H173180   0.724   4.971   3.847  0.4623  0.6717  0.1425
17255TIP3    H273181   0.615   5.063   3.796  0.0338  0.4413  0.6358
17256TIP3   OH273182   6.213   6.280   2.545 -0.4673  0.2968 -0.2541
17256TIP3    H173183   6.152   6.349   2.522 -0.1090  0.1212 -1.8442
17256TIP3    H273184   6.192   6.208   2.485 -1.1649 -1.2039  1.6755
17257TIP3   OH273185   1.168   0.309   0.892 -0.2492  0.5744 -0.1129
17257TIP3    H173186   1.209   0.241   0.839  0.7303  0.6573  0.5237
17257TIP3    H273187   1.131   0.262   0.967 -2.5142  0.3138 -1.2934
17258TIP3   OH273188   6.532   6.623  13.250 -0.8096  0.1140 -0.1031
17258TIP3    H173189   6.541   6.599  13.157 -2.6812 -1.0030 -0.0387
17258TIP3    H273190   6.476   6.701  13.249 -1.0509 -0.0591  0.1106
17259TIP3   OH273191   2.837   3.194   0.028 -0.5128  0.5570  0.7806
17259TIP3    H173192   2.782   3.179   0.105 -1.3306 -1.6085 -0.1321
17259TIP3    H273193   2.797   3.140  -0.040  1.2551  0.9780 -0.6568
17260TIP3   OH273194   0.433   5.432   0.757  0.7802 -0.3515  0.2308
17260TIP3    H173195   0.445   5.451   0.850  2.6519 -1.6750  0.3081
17260TIP3    H273196   0.434   5.519   0.715  0.0634  0.2523  1.4018
17261TIP3   OH273197   5.977   2.632   3.029  0.4973 -0.2424 -0.4911
17261TIP3    H173198   6.064   2.671   3.032  1.2588 -1.8992  0.0388
17261TIP3    H273199   5.949   2.629   3.120 -0.0206  0.0478 -0.6360
17262TIP3   OH273200   4.380   4.581   1.597 -0.2127  0.0164 -0.2353
17262TIP3    H173201   4.450   4.639   1.568  0.1019  0.0455  0.5423
17262TIP3    H273202   4.301   4.615   1.556  0.0883  0.5433 -0.3833
17263TIP3   OH273203   3.157   5.111   4.119  0.2779  0.1833 -0.1801
17263TIP3    H173204   3.169   5.193   4.071 -2.8161  1.2874  0.7246
17263TIP3    H273205   3.155   5.044   4.051  0.6302  1.1181 -1.1394
17264TIP3   OH273206   3.269   2.910   0.710 -0.0248  0.0610 -0.0070
17264TIP3    H173207   3.343   2.889   0.653 -0.9760  0.3841 -1.4047
17264TIP3    H273208   3.207   2.955   0.653 -1.3534 -0.3061  1.1093
17265TIP3   OH273209   1.559   4.643  16.331  0.0167  0.2382  0.4158
17265TIP3    H173210   1.567   4.550  16.353 -1.7961  0.2108  1.1161
17265TIP3    H273211   1.590   4.689  16.409 -1.1667  0.1845  0.9328
17266TIP3   OH273212   1.203   6.328  11.378  0.6697  0.6639 -0.7842
17266TIP3    H173213   1.225   6.244  11.337 -0.1091  0.8770 -1.6781
17266TIP3    H273214   1.182   6.385  11.304  0.4823  1.4357 -0.1423
17267TIP3   OH273215   1.123   6.773   2.350  0.2362  0.0711  0.0419
17267TIP3    H173216   1.146   6.701   2.410  0.3882  1.6506  1.9683
17267TIP3    H273217   1.043   6.811   2.387  0.7460  1.5539 -0.3100
17268TIP3   OH273218   6.122   0.532  17.207  0.1263  0.2538  0.3410
17268TIP3    H173219   6.150   0.497  17.292 -0.8547 -0.1705  0.5002
17268TIP3    H273220   6.187   0.500  17.145  1.7704  1.8717  1.1275
17269TIP3   OH273221   3.051   5.302   5.414  0.3675 -0.4403  0.2177
17269TIP3    H173222   3.024   5.211   5.423 -1.3559  0.0996  0.8650
17269TIP3    H273223   2.998   5.350   5.478  0.5112  1.1525 -0.7825
17270TIP3   OH273224   3.851   4.803   4.405 -0.0076 -0.3214  0.1686
17270TIP3    H173225   3.896   4.759   4.333 -1.1354  0.6658 -1.1798
17270TIP3    H273226   3.856   4.896   4.384 -1.7466 -0.1144  0.5101
17271TIP3   OH273227   6.273   2.354  14.199  0.4033  0.2005  0.1404
17271TIP3    H173228   6.362   2.321  14.186  0.8866  1.2004  0.7208
17271TIP3    H273229   6.255   2.407  14.122  0.0210 -0.5792 -0.3156
17272TIP3   OH273230   0.569   1.076   1.410 -0.5393 -0.4898  0.2735
17272TIP3    H173231   0.559   1.059   1.316  0.7293 -0.1703  0.0507
17272TIP3    H273232   0.632   1.009   1.439 -0.5706 -0.2979  0.7952
17273TIP3   OH273233   0.968   3.329  12.440 -0.1505  0.5340 -0.0322
17273TIP3    H173234   0.979   3.238  12.413 -1.0782  0.1448  0.7991
17273TIP3    H273235   1.052   3.353  12.478 -0.1649 -0.3049  0.5800
17274TIP3   OH273236   3.030   3.861  13.855 -0.1424  0.0190 -0.1218
17274TIP3    H173237   3.041   3.875  13.949 -0.3086 -0.7365  0.0195
17274TIP3    H273238   3.120   3.854  13.821  0.0192  2.6366 -0.4302
17275TIP3   OH273239   4.492   5.762   1.372 -0.0953 -0.4207  0.4298
17275TIP3    H173240   4.472   5.683   1.422  0.4816 -0.4771  0.5721
17275TIP3    H273241   4.525   5.730   1.288 -0.6312 -0.3255  0.1767
17276TIP3   OH273242   3.315   1.660   1.214  0.4166 -0.0716  0.1685
17276TIP3    H173243   3.372   1.584   1.223 -0.9144 -0.9066  2.4267
17276TIP3    H273244   3.259   1.639   1.139 -0.0440 -1.4589  0.8526
17277TIP3   OH273245   0.061   3.514   3.994 -0.2280  0.0433  0.3722
17277TIP3    H173246   0.064   3.418   3.988  0.7188  0.0623  0.3248
17277TIP3    H273247  -0.020   3.532   4.042 -0.6071 -0.7588  0.0638
17278TIP3   OH273248   0.395   4.471   4.733  0.3367  0.1119 -0.2823
17278TIP3    H173249   0.435   4.555   4.713 -0.6562  0.2840 -1.6451
17278TIP3    H273250   0.454   4.406   4.695  0.9493  0.1834  0.5143
17279TIP3   OH273251   2.488   4.205   1.962 -0.0611 -0.3224  0.2570
17279TIP3    H173252   2.536   4.201   1.880 -0.2132  0.3849  0.1282
17279TIP3    H273253   2.526   4.136   2.016 -0.1816 -1.0040 -0.5207
17280TIP3   OH273254   4.670   4.738  12.711  0.9620  0.0103 -0.5850
17280TIP3    H173255   4.761   4.742  12.739  0.7314  2.2434  0.0248
17280TIP3    H273256   4.655   4.819  12.662 -1.1810  0.7156  1.0511
17281TIP3   OH273257   4.599   3.715   5.075  0.1292 -0.2958  0.8038
17281TIP3    H173258   4.650   3.666   5.011 -0.4336 -0.7235  0.6845
17281TIP3    H273259   4.524   3.749   5.026  0.7305  1.0636  0.7783
17282TIP3   OH273260   2.878   1.420   5.735  0.4487  0.1184  0.3834
17282TIP3    H173261   2.868   1.327   5.754  0.6815  0.0058 -0.0208
17282TIP3    H273262   2.870   1.425   5.639 -0.2709  0.6041  0.4627
17283TIP3   OH273263   2.032   6.120  10.344 -0.2768  0.2706 -0.3192
17283TIP3    H173264   1.986   6.036  10.346 -0.6324  0.4532  1.7482
17283TIP3    H273265   2.120   6.099  10.375 -0.1549  0.5545 -0.4706
17284TIP3   OH273266   1.373   3.604  12.315  0.5361  0.0491  0.1240
17284TIP3    H173267   1.316   3.669  12.274  0.1846  0.6187  1.4586
17284TIP3    H273268   1.321   3.523  12.315  0.5092  0.0602 -0.4512
17285TIP3   OH273269   2.889   2.025  14.752  0.6352  0.6854  0.7218
17285TIP3    H173270   2.899   1.952  14.813 -0.7738  0.6675  0.9468
17285TIP3    H273271   2.916   1.988  14.667  1.7581  0.4683  1.1569
17286TIP3   OH273272   1.738   4.456   5.589 -0.3474  0.0183 -1.0557
17286TIP3    H173273   1.682   4.423   5.659  2.1147 -2.7565 -0.2143
17286TIP3    H273274   1.712   4.408   5.511  0.2259 -0.6226 -0.8619
17287TIP3   OH273275   5.618   6.153  14.314 -0.4304  0.1406  0.1873
17287TIP3    H173276   5.566   6.074  14.299 -0.5362  0.1115  0.6917
17287TIP3    H273277   5.689   6.147  14.251 -0.1764 -0.5920  0.5230
17288TIP3   OH273278   2.355   1.561   5.259 -0.1603  0.1035 -0.2922
17288TIP3    H173279   2.319   1.511   5.186 -0.1989 -1.7034  0.8988
17288TIP3    H273280   2.450   1.559   5.246 -0.0048 -2.0145  0.7255
17289TIP3   OH273281   6.577   4.947  15.390 -0.4574  0.1297 -0.0668
17289TIP3    H173282   6.484   4.953  15.412 -0.3036  0.1512  0.5923
17289TIP3    H273283   6.622   4.985  15.465  0.1781 -1.7667  0.5402
17290TIP3   OH273284   5.872   6.584  13.164 -0.4528  0.0118  0.1584
17290TIP3    H173285   5.815   6.510  13.181 -0.5750  0.3109  1.0760
17290TIP3    H273286   5.815   6.651  13.125 -1.0041  0.7321  2.1063
17291TIP3   OH273287   2.711   2.473   5.954  0.1999 -0.3398 -0.1810
17291TIP3    H173288   2.707   2.525   5.875 -1.3048 -0.1556 -0.0075
17291TIP3    H273289   2.682   2.386   5.927 -0.5091 -0.2271  0.1957
17292TIP3   OH273290   2.620   5.130   4.064  0.2930 -0.2066  0.5439
17292TIP3    H173291   2.619   5.079   3.983  0.7441  0.6579 -0.0166
17292TIP3    H273292   2.704   5.109   4.104 -0.3855 -1.5090  1.3897
17293TIP3   OH273293   1.219   2.285   3.197  0.1938 -0.2878  0.2253
17293TIP3    H173294   1.245   2.377   3.204  0.4173 -0.4791  3.7093
17293TIP3    H273295   1.124   2.286   3.209  0.3429 -0.5452  1.6117
17294TIP3   OH273296   2.490   0.359   5.146 -0.3048 -0.0580 -0.9450
17294TIP3    H173297   2.549   0.326   5.079  0.1750 -0.1210 -0.4941
17294TIP3    H273298   2.545   0.413   5.203 -0.4951 -0.7981 -0.0343
17295TIP3   OH273299   4.203   0.351  16.647  0.1102 -0.0072  0.0858
17295TIP3    H173300   4.276   0.322  16.593  0.8694  1.3438  0.3482
17295TIP3    H273301   4.135   0.285  16.632  0.8774 -0.5414 -1.2405
17296TIP3   OH273302   3.818   0.202  16.932  0.1367  0.5553 -0.0089
17296TIP3    H173303   3.869   0.209  17.012  0.4770 -0.3202 -0.1409
17296TIP3    H273304   3.761   0.279  16.933  1.3165  1.4610  0.2309
17297TIP3   OH273305   5.073   0.934   3.515 -0.0631 -0.1846  0.8026
17297TIP3    H173306   5.152   0.950   3.568 -0.6222  0.4651  1.4517
17297TIP3    H273307   5.091   0.979   3.432  0.1604  0.1345  1.0213
17298TIP3   OH273308   5.268   0.707   3.644  0.1991  0.3725 -0.0579
17298TIP3    H173309   5.279   0.792   3.601 -0.3879  0.0330 -0.9181
17298TIP3    H273310   5.354   0.666   3.638  0.4629  0.8605  0.2792
17299TIP3   OH273311   4.800   1.951   5.232 -0.0851 -0.1101  0.5273
17299TIP3    H173312   4.853   1.879   5.195  0.0681  1.2630 -2.1778
17299TIP3    H273313   4.854   2.029   5.218 -1.2049  0.8273  1.3250
17300TIP3   OH273314   6.313   0.757  17.222 -0.5939  0.0490  0.0392
17300TIP3    H173315   6.389   0.717  17.264  0.5311 -0.2364 -2.1368
17300TIP3    H273316   6.240   0.699  17.244  0.5128 -1.7754 -0.8846
17301TIP3   OH273317   4.041   5.268   4.150  0.6010 -0.1441 -0.2342
17301TIP3    H173318   3.999   5.244   4.067  0.6947 -1.0561 -0.0292
17301TIP3    H273319   4.046   5.364   4.148 -0.7042 -0.0652 -0.6485
17302TIP3   OH273320   6.481   4.287   2.740  0.4948  0.1854  0.7067
17302TIP3    H173321   6.576   4.283   2.746  0.4611 -0.3430  0.9476
17302TIP3    H273322   6.463   4.296   2.646  0.7463 -1.2824  0.4945
17303TIP3   OH273323   1.227   0.506   0.182  0.1904  0.1643  0.1800
17303TIP3    H173324   1.314   0.473   0.159 -0.5524 -1.5713 -0.2727
17303TIP3    H273325   1.239   0.546   0.268  1.5631  0.5280 -0.1598
17304TIP3   OH273326   4.955   2.978  13.725 -0.4173  0.3771  0.9451
17304TIP3    H173327   4.927   3.042  13.659 -1.7366  0.2218  1.3265
17304TIP3    H273328   5.011   2.917  13.676 -0.0986  1.1426  0.3262
17305TIP3   OH273329   2.784   6.761  16.719 -0.4553  0.4095  0.2098
17305TIP3    H173330   2.854   6.796  16.773 -1.3934  1.7055  0.6353
17305TIP3    H273331   2.770   6.672  16.751  1.9720 -0.4352 -0.8773
17306TIP3   OH273332   2.358   2.130   0.347 -0.8989 -0.6263 -0.2600
17306TIP3    H173333   2.399   2.046   0.365  1.8924  0.5040 -0.7748
17306TIP3    H273334   2.376   2.145   0.254 -0.9831  0.6993 -0.0756
17307TIP3   OH273335   6.306   0.367  17.029  0.7667  0.3818  0.0201
17307TIP3    H173336   6.396   0.380  17.059  0.7275 -1.5380  1.1083
17307TIP3    H273337   6.275   0.291  17.078 -0.4821 -0.8251 -2.4559
17308TIP3   OH273338   1.314   1.808   1.352 -0.6194 -0.0615  0.1986
17308TIP3    H173339   1.242   1.866   1.376 -2.4463 -2.1310  0.1013
17308TIP3    H273340   1.293   1.780   1.262  0.7493 -0.0907 -0.1295
17309TIP3   OH273341   6.567   4.853   5.171  0.1895 -0.3931  0.2486
17309TIP3    H173342   6.552   4.813   5.256 -0.3191 -1.8121 -0.4601
17309TIP3    H273343   6.577   4.946   5.188 -4.4935  0.1252  1.4006
17310TIP3   OH273344   1.681   1.394   0.811 -0.3325  0.3042  0.0615
17310TIP3    H173345   1.635   1.331   0.755  1.6459 -1.9382  0.7659
17310TIP3    H273346   1.629   1.396   0.892  0.4044 -1.8193  0.6650
17311TIP3   OH273347   5.565   3.762  14.978  0.6006  0.3618  0.4100
17311TIP3    H173348   5.540   3.673  14.956  1.7841 -0.8783  3.5890
17311TIP3    H273349   5.490   3.816  14.951 -0.2740 -1.5643 -1.2710
17312TIP3   OH273350   3.280   1.088  12.556 -0.1643  0.9503  0.0729
17312TIP3    H173351   3.353   1.117  12.611  0.0427  1.1247 -0.2875
17312TIP3    H273352   3.261   0.999  12.585  0.3942  0.7930 -0.0412
17313TIP3   OH273353   1.727   0.370   1.586 -0.0282  0.5829  0.1358
17313TIP3    H173354   1.671   0.355   1.662 -0.6102  1.3649 -0.1230
17313TIP3    H273355   1.761   0.283   1.564 -1.4403  0.0107  0.0884
17314TIP3   OH273356   4.724   3.255  13.118  0.2738  0.8475  0.0974
17314TIP3    H173357   4.753   3.333  13.069  0.2515 -0.3274 -1.9169
17314TIP3    H273358   4.726   3.185  13.053  0.4616 -0.8855  1.8990
17315TIP3   OH273359   2.868   4.633  10.987  0.5739 -0.9221 -0.7890
17315TIP3    H173360   2.952   4.644  11.030 -0.1991  2.6719  0.1263
17315TIP3    H273361   2.870   4.694  10.914 -1.2601 -0.6260 -0.6513
17316TIP3   OH273362   1.751   2.360  14.121 -0.0025 -0.2115 -0.1874
17316TIP3    H173363   1.750   2.376  14.027 -1.7864 -0.4455 -0.2462
17316TIP3    H273364   1.774   2.267  14.129 -0.1289 -0.2603 -0.3991
17317TIP3   OH273365   6.433   4.088  12.131  0.1987 -0.3151 -0.7881
17317TIP3    H173366   6.407   4.146  12.060  0.0506  0.5361 -0.0580
17317TIP3    H273367   6.504   4.036  12.095 -1.7154 -1.9424 -2.4929
17318TIP3   OH273368   0.221   0.368   2.250  0.1907  0.4026 -0.1068
17318TIP3    H173369   0.225   0.374   2.155  1.8667  0.0248 -0.0906
17318TIP3    H273370   0.304   0.328   2.275 -0.0482  0.8633  1.5490
17319TIP3   OH273371   2.964   1.580  11.775  0.7590  0.0723  0.4464
17319TIP3    H173372   2.998   1.498  11.739 -0.5674  0.1577 -1.1390
17319TIP3    H273373   3.013   1.649  11.729  0.3977  0.1715  0.2037
17320TIP3   OH273374   5.326   6.600  12.487 -0.0986 -0.2677  0.2312
17320TIP3    H173375   5.322   6.692  12.513 -0.4677  0.1311 -1.1686
17320TIP3    H273376   5.389   6.598  12.414  0.5863 -1.2786  0.8216
17321TIP3   OH273377   1.579   1.033  10.403  0.2266 -0.1241  0.3586
17321TIP3    H173378   1.504   0.972  10.401 -0.7046  0.9928  0.2381
17321TIP3    H273379   1.550   1.104  10.459  1.4246  0.0802  0.7438
17322TIP3   OH273380   3.932   5.970  12.351 -0.0069  0.0292 -0.0835
17322TIP3    H173381   3.994   6.033  12.386 -0.6566  0.1985  0.7856
17322TIP3    H273382   3.934   5.897  12.412 -0.1023 -0.2958 -0.4618
17323TIP3   OH273383   5.737   4.212   5.973 -0.4191 -0.3091  0.4451
17323TIP3    H173384   5.760   4.296   6.013  0.0304 -0.3519  0.2818
17323TIP3    H273385   5.701   4.160   6.045  2.0488 -1.0454  1.2568
17324TIP3   OH273386   6.181   6.520  13.763  0.2954 -0.4639  0.1554
17324TIP3    H173387   6.097   6.540  13.722  0.6859  0.9095 -0.0102
17324TIP3    H273388   6.212   6.442  13.718 -0.5158 -0.5151 -0.3343
17325TIP3   OH273389   6.667   5.650  12.845  0.0442 -0.3183 -0.3743
17325TIP3    H173390   6.631   5.567  12.876  0.7705 -0.2707  0.6667
17325TIP3    H273391   6.743   5.625  12.792 -0.3356 -0.3467 -0.9114
17326TIP3   OH273392   2.971   5.387  14.694 -0.1444 -0.4070 -0.1707
17326TIP3    H173393   2.904   5.323  14.673  1.2358 -1.7718 -0.5460
17326TIP3    H273394   2.936   5.470  14.661 -2.2292 -0.8041  0.8733
17327TIP3   OH273395   6.531   2.887  14.318 -0.4980 -0.1135  0.0787
17327TIP3    H173396   6.582   2.943  14.377  1.3411 -0.6045 -0.9748
17327TIP3    H273397   6.535   2.931  14.233 -0.0162 -1.2314 -0.4987
17328TIP3   OH273398   6.477   2.371  15.233 -1.0885  0.4918  0.3528
17328TIP3    H173399   6.553   2.388  15.290 -0.0927 -0.3027 -0.6778
17328TIP3    H273400   6.434   2.296  15.274  0.6091 -1.2056 -0.7764
17329TIP3   OH273401   5.696   4.579  10.497 -0.3398 -0.2227 -0.2104
17329TIP3    H173402   5.617   4.603  10.546 -1.0185  0.3052 -1.5118
17329TIP3    H273403   5.745   4.521  10.557 -0.9412  0.6775  1.2084
17330TIP3   OH273404   3.383   5.176   4.283  0.3864 -0.2180  0.1005
17330TIP3    H173405   3.418   5.220   4.206 -0.2610 -0.5374 -0.3796
17330TIP3    H273406   3.297   5.144   4.256 -0.4308  0.8228  1.3566
17331TIP3   OH273407   1.673   5.067   3.988 -0.5363 -0.3071 -0.1929
17331TIP3    H173408   1.628   5.152   3.990 -1.5799 -0.8557  0.4498
17331TIP3    H273409   1.762   5.088   3.962 -0.5117  1.1099  0.9100
17332TIP3   OH273410   4.344   4.446  15.481 -0.4558  0.6101 -0.0538
17332TIP3    H173411   4.323   4.355  15.501 -1.4088  0.2732 -2.3036
17332TIP3    H273412   4.439   4.446  15.467 -0.8255 -0.8641 -3.4256
17333TIP3   OH273413   0.822   3.023  14.764 -0.2090  0.3053 -0.3211
17333TIP3    H173414   0.824   2.928  14.752 -0.5403 -0.2189  2.9658
17333TIP3    H273415   0.728   3.044  14.766 -0.1471  0.9288 -1.9746
17334TIP3   OH273416   1.287   0.566  15.473 -0.0456 -0.2435  0.0755
17334TIP3    H173417   1.336   0.502  15.524  0.5215 -2.0361 -2.4891
17334TIP3    H273418   1.350   0.638  15.458 -0.3369  0.4840  2.0530
17335TIP3   OH273419   2.799   2.318  14.180  0.0158  0.3024 -0.3672
17335TIP3    H173420   2.848   2.295  14.101  0.8274  0.8829 -0.0411
17335TIP3    H273421   2.798   2.414  14.182 -1.0001  0.3023 -0.2801
17336TIP3   OH273422   3.255   0.126   0.674  0.7324 -0.3624  0.1701
17336TIP3    H173423   3.239   0.068   0.599 -0.4716  0.0905  0.0573
17336TIP3    H273424   3.306   0.198   0.639  1.9870 -1.1875  0.2471
17337TIP3   OH273425   4.945   3.354  12.595 -0.1676  0.5942  0.3866
17337TIP3    H173426   5.008   3.284  12.614 -0.0944  0.9673  1.6072
17337TIP3    H273427   4.966   3.423  12.658 -0.1125  1.8244 -0.9216
17338TIP3   OH273428   1.713   1.880   5.579  0.7057 -0.4389 -0.3092
17338TIP3    H173429   1.638   1.902   5.634  0.6961  3.0952 -1.5195
17338TIP3    H273430   1.788   1.918   5.624  1.2363 -0.7732 -0.8980
17339TIP3   OH273431   0.792   2.055  13.131 -0.3587 -0.0095 -0.5349
17339TIP3    H173432   0.861   2.012  13.181  0.3968 -0.4681 -1.9279
17339TIP3    H273433   0.718   1.994  13.136 -0.2387 -0.1300 -0.1459
17340TIP3   OH273434   1.050   0.213  17.044  0.5951 -0.1071 -0.5173
17340TIP3    H173435   1.072   0.121  17.030  0.2892 -0.4214  0.8825
17340TIP3    H273436   0.976   0.230  16.986 -1.3006 -1.6189  1.2870
17341TIP3   OH273437   1.459   2.365   0.247  0.4842 -0.5025 -0.3137
17341TIP3    H173438   1.396   2.304   0.284  2.6961 -2.4000  0.5437
17341TIP3    H273439   1.543   2.339   0.284  1.6493  2.7773 -0.2985
17342TIP3   OH273440   0.686   3.394  12.173  0.3106 -0.1583 -0.1459
17342TIP3    H173441   0.629   3.325  12.140 -0.0573  1.4136 -3.2103
17342TIP3    H273442   0.773   3.353  12.177 -0.1836 -1.2473 -0.2763
17343TIP3   OH273443   4.842   2.788   4.501  0.3965  0.6745 -0.2086
17343TIP3    H173444   4.920   2.778   4.555 -0.1328  0.0867  0.4627
17343TIP3    H273445   4.801   2.869   4.533 -0.7208 -0.4640  1.3371
17344TIP3   OH273446   5.010   4.506  13.504  0.7918  0.0951  0.0256
17344TIP3    H173447   5.028   4.599  13.513  0.8516  0.0645  0.2417
17344TIP3    H273448   5.087   4.463  13.541  0.0776 -0.0394  1.4572
17345TIP3   OH273449   3.152   0.675   2.314 -0.3383 -0.0053  0.4391
17345TIP3    H173450   3.131   0.593   2.359 -2.0780  1.2345  2.0431
17345TIP3    H273451   3.191   0.729   2.383  2.4616 -0.0092 -1.0026
17346TIP3   OH273452   2.417   1.932   0.064  0.1273  0.1302 -0.4129
17346TIP3    H173453   2.322   1.920   0.072  0.4006 -0.8185  3.1870
17346TIP3    H273454   2.443   1.876  -0.009 -1.7671 -1.9895  0.4322
17347TIP3   OH273455   6.510   6.387   2.948 -0.4440 -0.5539 -0.1746
17347TIP3    H173456   6.573   6.319   2.973 -0.4769 -0.4059  0.3241
17347TIP3    H273457   6.440   6.339   2.903  0.3254 -0.6385 -1.3084
17348TIP3   OH273458   6.321   4.815   2.206 -0.1462  0.2918  0.2019
17348TIP3    H173459   6.275   4.735   2.235 -0.3692  0.3212 -0.0628
17348TIP3    H273460   6.398   4.783   2.160  0.2394  0.2452  0.8737
17349TIP3   OH273461   2.144   0.101   4.627 -0.6843  0.1564  0.1088
17349TIP3    H173462   2.202   0.155   4.574 -0.2727  0.3126  0.7023
17349TIP3    H273463   2.175   0.012   4.613 -0.8382  0.1592 -0.2362
17350TIP3   OH273464   4.980   2.469   4.365 -0.5587  0.4934  0.3199
17350TIP3    H173465   4.885   2.476   4.363 -0.5260  1.0641  0.5007
17350TIP3    H273466   4.999   2.383   4.329 -0.9795  1.6850 -3.1412
17351TIP3   OH273467   2.734   1.819  13.078 -0.0697 -0.3730  0.2147
17351TIP3    H173468   2.787   1.840  13.001 -1.8460 -0.8419 -1.1808
17351TIP3    H273469   2.711   1.905  13.114  0.7388 -0.1490  0.2214
17352TIP3   OH273470   5.758   5.689  15.711  0.4738  0.1134  0.0352
17352TIP3    H173471   5.786   5.745  15.783 -1.8251 -1.6865  2.5507
17352TIP3    H273472   5.675   5.726  15.681 -1.0924 -1.7484  1.7522
17353TIP3   OH273473   0.548   6.530   2.462 -0.3762  0.3200  0.1408
17353TIP3    H173474   0.641   6.526   2.438  0.9227  3.5521  3.4307
17353TIP3    H273475   0.546   6.502   2.554 -3.3113 -2.5923 -0.6341
17354TIP3   OH273476   4.796   2.594   1.035 -0.1059  0.6432 -0.4706
17354TIP3    H173477   4.767   2.506   1.060 -2.2105  1.1735 -0.9010
17354TIP3    H273478   4.772   2.649   1.109 -0.1422  1.0921 -0.8127
17355TIP3   OH273479   5.350   2.854  11.474  0.7311 -0.3299  0.6620
17355TIP3    H173480   5.310   2.941  11.477  1.3719 -0.0051 -0.0208
17355TIP3    H273481   5.363   2.837  11.381  3.2095  0.0692  0.8871
17356TIP3   OH273482   4.873   3.161  15.818 -0.0609 -0.2028 -0.6822
17356TIP3    H173483   4.888   3.231  15.755 -1.4664  0.4685 -0.3164
17356TIP3    H273484   4.792   3.120  15.789 -0.7000  0.0768  0.6294
17357TIP3   OH273485   4.679   2.071   0.245  1.2551  0.0744  0.4985
17357TIP3    H173486   4.661   1.984   0.280  0.2248 -0.3561 -0.9869
17357TIP3    H273487   4.763   2.061   0.200  0.3148 -0.7230 -1.2322
17358TIP3   OH273488   5.179   3.092   0.333 -0.0733 -0.1953 -0.2540
17358TIP3    H173489   5.114   3.076   0.264  0.1768 -0.7219 -0.3756
17358TIP3    H273490   5.188   3.187   0.336 -1.0588 -0.0951 -0.0411
17359TIP3   OH273491   4.672   3.381  15.233  0.0055 -0.1327  0.8875
17359TIP3    H173492   4.757   3.361  15.193  0.5933  0.3351  1.8662
17359TIP3    H273493   4.608   3.363  15.164  0.6874 -2.8005  0.8480
17360TIP3   OH273494   2.978   4.584  14.874 -0.2964 -0.8579  0.5182
17360TIP3    H173495   2.962   4.575  14.967 -1.1432  0.1681  0.4937
17360TIP3    H273496   2.932   4.511  14.834 -2.2556  0.1922  0.7213
17361TIP3   OH273497   5.920   3.894  12.406 -0.0640 -0.0371 -0.2288
17361TIP3    H173498   5.997   3.845  12.375 -0.6362 -1.4399  0.4789
17361TIP3    H273499   5.935   3.904  12.500 -1.2956 -1.4328  0.1525
17362TIP3   OH273500   2.296   6.328  13.300 -0.6384  0.5974 -0.2674
17362TIP3    H173501   2.272   6.320  13.208  0.4682 -0.1664 -0.5012
17362TIP3    H273502   2.391   6.339  13.300 -0.3924 -1.1420  0.8394
17363TIP3   OH273503   3.035   3.578   5.895 -0.1111 -0.1794  0.0804
17363TIP3    H173504   3.031   3.510   5.828 -0.5580  0.6760 -0.7878
17363TIP3    H273505   2.952   3.625   5.886 -0.3802 -0.3283  1.5507
17364TIP3   OH273506   4.412   3.615   1.697 -0.3769  0.5798  1.0067
17364TIP3    H173507   4.382   3.676   1.629  1.2551  1.0970  0.7193
17364TIP3    H273508   4.379   3.530   1.668 -1.0814  1.0352  0.4180
17365TIP3   OH273509   0.371   5.378   2.301 -0.5129 -0.3674 -0.0782
17365TIP3    H173510   0.412   5.461   2.277 -1.3869  1.0056  2.7033
17365TIP3    H273511   0.304   5.364   2.234 -0.2454  1.1155 -0.6980
17366TIP3   OH273512   0.652   5.894   4.399  0.1246  0.0045  0.6157
17366TIP3    H173513   0.572   5.946   4.391  0.3223  0.1684 -0.3093
17366TIP3    H273514   0.658   5.875   4.493 -0.9381  0.0836  0.7179
17367TIP3   OH273515   3.994   1.677   0.504  0.1985 -0.3948  0.0379
17367TIP3    H173516   4.028   1.754   0.550  0.1468  2.1946 -3.7389
17367TIP3    H273517   4.064   1.653   0.443 -0.6143 -2.0625 -0.3019
17368TIP3   OH273518   4.930   1.511   2.209 -0.0889 -0.2376  0.4101
17368TIP3    H173519   4.995   1.579   2.227  0.1764 -0.2455 -0.4602
17368TIP3    H273520   4.879   1.546   2.136 -1.4371  0.0156  1.4280
17369TIP3   OH273521   0.411   6.610   1.679 -0.0584 -0.6207  0.5228
17369TIP3    H173522   0.475   6.616   1.749 -1.8614 -1.4446  2.3646
17369TIP3    H273523   0.330   6.585   1.724 -1.7670  0.7301 -1.6207
17370TIP3   OH273524   5.763   5.041  13.828  0.2390 -0.1186  0.0786
17370TIP3    H173525   5.810   4.974  13.779 -1.7437 -0.8144 -0.9888
17370TIP3    H273526   5.743   5.108  13.762 -2.4154 -1.0392 -0.1494
17371TIP3   OH273527   0.252   6.242  12.766 -0.0234  0.2693 -0.4965
17371TIP3    H173528   0.210   6.220  12.682  1.5414  0.3979 -1.3483
17371TIP3    H273529   0.262   6.337  12.763 -0.7029  0.3708  0.2160
17372TIP3   OH273530   1.837   5.707  13.631 -0.2469 -0.4706 -0.1420
17372TIP3    H173531   1.908   5.758  13.591 -1.0742  0.8284  0.0084
17372TIP3    H273532   1.783   5.680  13.558  0.8862 -2.3054 -0.3665
17373TIP3   OH273533   5.953   3.556   0.715 -0.0741  0.3141  0.1492
17373TIP3    H173534   5.963   3.464   0.741 -0.2769 -0.1045 -1.1590
17373TIP3    H273535   6.030   3.600   0.751  2.0664 -1.1136 -2.3156
17374TIP3   OH273536   3.496   6.248   1.139  0.5373  0.3253 -0.0276
17374TIP3    H173537   3.534   6.288   1.217 -0.4909 -0.3386  0.8461
17374TIP3    H273538   3.420   6.302   1.118 -0.8894 -1.0798  1.1896
17375TIP3   OH273539   5.678   4.824   0.987 -0.7627 -0.2368 -0.2403
17375TIP3    H173540   5.592   4.842   0.950 -2.1579 -1.8988  1.9612
17375TIP3    H273541   5.675   4.859   1.076  1.4024  0.9672 -0.5696
17376TIP3   OH273542   4.405   3.370   3.452 -0.1109  0.0155 -0.1282
17376TIP3    H173543   4.312   3.387   3.434 -0.7313 -1.5006  1.4172
17376TIP3    H273544   4.412   3.373   3.548  1.4278 -0.0135 -0.2148
17377TIP3   OH273545   2.314   0.699  13.793 -0.0251  0.4032  0.3124
17377TIP3    H173546   2.389   0.642  13.812  1.2659  1.2731 -1.8869
17377TIP3    H273547   2.302   0.749  13.874  3.1852  1.7450  0.1171
17378TIP3   OH273548   5.288   5.198  14.671  0.2811  0.4226 -0.4723
17378TIP3    H173549   5.308   5.220  14.762  1.2056 -0.3167 -0.4715
17378TIP3    H273550   5.246   5.112  14.676  0.6063  0.2410 -0.7516
17379TIP3   OH273551   5.321   3.411   4.736 -0.2916 -0.4133 -0.3485
17379TIP3    H173552   5.282   3.333   4.695 -2.4415 -0.1579  1.0577
17379TIP3    H273553   5.253   3.478   4.730  0.7378  0.7329  0.3366
17380TIP3   OH273554   5.436   1.801  12.392  0.0632  0.0286  0.2996
17380TIP3    H173555   5.414   1.888  12.357  0.5641 -0.2893 -0.8704
17380TIP3    H273556   5.505   1.818  12.456 -0.1674  0.5386  0.4215
17381TIP3   OH273557   6.658   5.213   3.533 -0.3310  0.6528 -0.1693
17381TIP3    H173558   6.583   5.215   3.474  0.0227  0.5503 -0.6381
17381TIP3    H273559   6.730   5.183   3.478  0.0375  0.6823  0.2891
17382TIP3   OH273560   0.883   4.776   3.795 -0.2622 -0.4477  0.4186
17382TIP3    H173561   0.957   4.826   3.760  0.1899 -1.2460  0.2151
17382TIP3    H273562   0.905   4.764   3.888  0.1467 -1.1728  0.2331
17383TIP3   OH273563   0.076   5.613   5.488 -0.7374 -0.5494  0.7626
17383TIP3    H173564   0.053   5.572   5.571 -2.0040 -1.1113  0.1637
17383TIP3    H273565   0.074   5.707   5.506  0.7448 -0.6796  1.7800
17384TIP3   OH273566   4.476   2.928   1.192  0.2361  0.0405  0.1652
17384TIP3    H173567   4.493   2.921   1.098  0.7042  2.1426  0.0551
17384TIP3    H273568   4.529   2.858   1.231  0.9614 -0.1079 -1.0252
17385TIP3   OH273569   1.953   3.418  17.283  0.5457  0.2160  0.3539
17385TIP3    H173570   2.023   3.440  17.221  0.6714 -2.4662 -0.6045
17385TIP3    H273571   1.932   3.326  17.263 -2.4323  0.5605  1.4270
17386TIP3   OH273572   6.187   5.199  13.398 -0.6477  0.1054  0.8591
17386TIP3    H173573   6.173   5.134  13.330  1.0728 -0.1598  0.7167
17386TIP3    H273574   6.104   5.246  13.404 -1.1597 -0.5505 -0.6765
17387TIP3   OH273575   3.584   1.954  14.430 -0.6160  0.0376  0.3758
17387TIP3    H173576   3.607   1.977  14.520  0.1888 -1.2248  0.5101
17387TIP3    H273577   3.581   2.038  14.384  2.3398  0.4733  0.8138
17388TIP3   OH273578   2.119   0.774  17.354  0.4931 -0.0589 -0.0795
17388TIP3    H173579   2.042   0.824  17.380 -0.9240 -1.1166 -1.9904
17388TIP3    H273580   2.154   0.739  17.436 -0.4035  1.3239  0.9362
17389TIP3   OH273581   5.280   4.248  16.481 -0.7402 -0.0928  0.2837
17389TIP3    H173582   5.375   4.256  16.487 -0.5962 -0.7805 -0.7311
17389TIP3    H273583   5.246   4.303  16.551  0.4538 -1.1643  1.7656
17390TIP3   OH273584   4.691   0.301   5.471 -0.2797 -0.0581  0.3222
17390TIP3    H173585   4.782   0.272   5.465 -0.7966 -1.8741  0.5568
17390TIP3    H273586   4.683   0.339   5.558  0.3288  0.3830  0.1854
17391TIP3   OH273587   1.488   2.364   2.230 -0.0656  0.2963  0.0771
17391TIP3    H173588   1.531   2.321   2.156 -0.9705 -0.0919 -0.2246
17391TIP3    H273589   1.515   2.313   2.306  4.1056  2.8939  0.6997
17392TIP3   OH273590   4.322   3.391   4.151 -0.0838 -0.0477 -0.4716
17392TIP3    H173591   4.297   3.314   4.201 -2.3506  0.7920 -0.1813
17392TIP3    H273592   4.344   3.457   4.217 -0.2454  0.1934 -0.6555
17393TIP3   OH273593   0.795   3.611   3.046  0.1074  0.1051  0.0195
17393TIP3    H173594   0.832   3.699   3.042 -0.7410  0.4525 -0.3661
17393TIP3    H273595   0.752   3.606   3.131  1.6091 -0.5501  0.7798
17394TIP3   OH273596   3.029   2.419  14.957 -0.2391 -0.5450  0.4810
17394TIP3    H173597   3.113   2.437  14.916 -1.3037  3.8265 -0.2942
17394TIP3    H273598   3.051   2.397  15.048  1.7509 -1.8769 -0.2553
17395TIP3   OH273599   0.613   1.245  16.891  0.3805  0.0147 -0.2810
17395TIP3    H173600   0.596   1.263  16.984 -0.2035 -0.7255 -0.2448
17395TIP3    H273601   0.603   1.330  16.849 -0.7417  0.1045  0.1319
17396TIP3   OH273602   2.870   2.686   4.326 -0.4291 -0.1380 -0.1500
17396TIP3    H173603   2.892   2.779   4.323 -0.9915  0.0223  0.4304
17396TIP3    H273604   2.774   2.684   4.322 -0.5119 -0.5976  1.4938
17397TIP3   OH273605   6.095   2.720   2.710 -0.5235  0.2395 -0.3193
17397TIP3    H173606   6.018   2.665   2.726 -0.1606 -1.3603 -3.2839
17397TIP3    H273607   6.166   2.673   2.754 -0.6670 -0.2676 -0.6116
17398TIP3   OH273608   3.967   5.735   5.202  0.8378 -0.2880  0.0686
17398TIP3    H173609   3.950   5.829   5.211 -1.0680 -0.6148  0.2631
17398TIP3    H273610   3.940   5.715   5.112  0.1758 -0.8490  0.3869
17399TIP3   OH273611   4.837   3.444  11.678  0.4875 -0.0973  0.0765
17399TIP3    H173612   4.822   3.468  11.586 -2.3426 -0.0656  0.4418
17399TIP3    H273613   4.828   3.526  11.726  0.0429 -0.4061  0.5302
17400TIP3   OH273614   2.149   3.474   0.259  0.2490 -0.6015  0.0298
17400TIP3    H173615   2.065   3.431   0.241  0.8571 -2.1163  0.6389
17400TIP3    H273616   2.194   3.474   0.175 -0.8873  1.5350 -0.6477
17401TIP3   OH273617   5.851   5.377   6.651  0.1606 -0.2911 -0.3427
17401TIP3    H173618   5.845   5.468   6.623  2.2434  0.4649  1.4116
17401TIP3    H273619   5.797   5.372   6.730  2.4864  0.3115  1.3810
17402TIP3   OH273620   1.213   0.882  10.955 -0.2392  0.1318 -0.3779
17402TIP3    H173621   1.183   0.936  11.028  1.7057  1.7898 -0.7109
17402TIP3    H273622   1.135   0.870  10.901 -1.7609 -1.2736  1.9726
17403TIP3   OH273623   4.149   3.649   5.331  0.2514  0.6684 -0.0930
17403TIP3    H173624   4.148   3.733   5.377  1.7260  0.3900  0.5246
17403TIP3    H273625   4.203   3.592   5.386 -1.5126 -1.0136  0.0131
17404TIP3   OH273626   5.676   6.431  12.742  0.0498 -0.1582 -0.3488
17404TIP3    H173627   5.699   6.447  12.651  1.1560 -0.3953 -0.1287
17404TIP3    H273628   5.583   6.406  12.739  0.0608 -0.1328 -1.3964
17405TIP3   OH273629   3.378   3.070   0.075  0.4366 -0.8094  0.0656
17405TIP3    H173630   3.284   3.068   0.061  0.4056 -1.8432  0.3695
17405TIP3    H273631   3.403   3.161   0.058 -0.6832 -0.4209  0.4291
17406TIP3   OH273632   1.517   0.713  14.107  0.3199 -0.6161  0.2570
17406TIP3    H173633   1.573   0.638  14.089  0.2617 -0.6013  0.0131
17406TIP3    H273634   1.454   0.715  14.035 -1.5728 -2.0872  1.7596
17407TIP3   OH273635   5.134   6.535  16.571  0.0184  0.6232 -0.3588
17407TIP3    H173636   5.085   6.590  16.633  1.9832  1.3161  0.6806
17407TIP3    H273637   5.205   6.592  16.540 -0.5582  0.1040 -2.8556
17408TIP3   OH273638   3.950   2.504   5.599  0.3131  0.2214  0.1666
17408TIP3    H173639   3.987   2.574   5.652 -0.7874  0.7035  0.3202
17408TIP3    H273640   3.895   2.549   5.534 -0.4295 -0.4925  0.2876
17409TIP3   OH273641   0.745   1.467  15.146  0.2974  0.4146 -0.4823
17409TIP3    H173642   0.650   1.471  15.136  0.1998 -0.5625 -0.0477
17409TIP3    H273643   0.771   1.557  15.162 -0.8274  0.4138  1.7075
17410TIP3   OH273644   3.086   1.242   5.529 -0.1696 -0.1742  0.2627
17410TIP3    H173645   3.104   1.336   5.526 -2.2797  0.2746 -2.3014
17410TIP3    H273646   3.031   1.230   5.606 -0.0249  0.7016  0.5084
17411TIP3   OH273647   3.853   4.036   2.699 -0.0565  0.0300 -0.1128
17411TIP3    H173648   3.927   3.980   2.675  0.4478  0.0738  1.2299
17411TIP3    H273649   3.791   4.026   2.627  0.0777 -2.1601  0.0067
17412TIP3   OH273650   4.685   3.611   5.546 -0.1674 -0.4627 -0.1171
17412TIP3    H173651   4.644   3.574   5.468 -1.6595 -1.8169  1.2202
17412TIP3    H273652   4.613   3.621   5.608  0.8510  1.2343  0.8777
17413TIP3   OH273653   1.408   5.976  10.787 -0.0742 -0.4888  0.3171
17413TIP3    H173654   1.422   5.931  10.703 -0.3798 -0.6117  0.3295
17413TIP3    H273655   1.377   6.063  10.762  1.3470  0.0181  0.2800
17414TIP3   OH273656   3.125   6.196  10.994  1.0578 -0.0039  0.2560
17414TIP3    H173657   3.208   6.170  10.954  0.4188  2.0389 -2.6967
17414TIP3    H273658   3.059   6.148  10.944  0.2965  1.0026  0.2843
17415TIP3   OH273659   6.016   4.024   1.254 -0.5281  0.1327  0.0002
17415TIP3    H173660   6.028   3.957   1.187 -0.5121  0.9385 -0.8240
17415TIP3    H273661   5.966   4.094   1.210 -2.2714 -0.1540  1.3754
17416TIP3   OH273662   1.502   3.345  14.584 -0.0909 -0.1080 -0.1365
17416TIP3    H173663   1.445   3.333  14.660 -0.2307  1.0634 -0.0495
17416TIP3    H273664   1.498   3.261  14.538 -1.8297 -0.0751 -0.0982
17417TIP3   OH273665   2.636   3.088  11.955  0.2540  0.7446 -0.2638
17417TIP3    H173666   2.718   3.053  11.990 -0.0757  0.2377  0.0210
17417TIP3    H273667   2.571   3.069  12.022 -0.6804 -1.5197 -1.6935
17418TIP3   OH273668   1.098   3.824  14.411 -0.1417 -0.2320 -0.3341
17418TIP3    H173669   1.150   3.836  14.332  0.5196  0.1499  0.1428
17418TIP3    H273670   1.088   3.729  14.419  0.9856 -0.3429 -0.1273
17419TIP3   OH273671   3.007   2.908  15.574  0.0885 -0.4117  0.0423
17419TIP3    H173672   3.058   2.878  15.499 -1.7857 -2.1901 -0.6051
17419TIP3    H273673   2.916   2.892  15.550 -0.6364 -0.0554  2.2890
17420TIP3   OH273674   3.541   1.993  15.660 -0.4317 -0.1638 -0.1075
17420TIP3    H173675   3.453   2.026  15.644  0.0771  0.2962 -2.2482
17420TIP3    H273676   3.599   2.065  15.635  0.5916 -0.0493  2.2779
17421TIP3   OH273677   0.957   5.453   5.498 -0.8623  0.6510 -0.3167
17421TIP3    H173678   0.959   5.423   5.589  1.0702  0.6118 -0.3438
17421TIP3    H273679   1.021   5.524   5.495 -2.2293  1.9107 -1.2567
17422TIP3   OH273680   4.880   1.170   5.063 -0.0439  0.0976 -0.5581
17422TIP3    H173681   4.930   1.091   5.080 -0.8290 -0.3017 -0.0825
17422TIP3    H273682   4.789   1.142   5.063 -0.3416  1.0349 -0.1871
17423TIP3   OH273683   3.880   4.645  10.812  0.4977  0.0278  0.0882
17423TIP3    H173684   3.879   4.735  10.778  1.1931 -0.3402 -0.9441
17423TIP3    H273685   3.796   4.636  10.857  0.6576  1.3784  0.7187
17424TIP3   OH273686   4.220   6.115   4.809 -0.1552 -0.5192 -0.4093
17424TIP3    H173687   4.288   6.077   4.865 -0.3839 -0.4850 -0.1077
17424TIP3    H273688   4.147   6.132   4.868  0.3916  1.6079 -0.2512
17425TIP3   OH273689   3.920   0.247  13.266 -0.2176 -0.1684  0.1749
17425TIP3    H173690   3.935   0.331  13.223 -0.8064 -0.1298  0.0438
17425TIP3    H273691   3.994   0.193  13.239 -0.8839 -0.3380 -1.3773
17426TIP3   OH273692   2.301   2.750  16.652  0.1738  0.1089 -0.1815
17426TIP3    H173693   2.215   2.755  16.610 -0.9699 -0.4325  1.9559
17426TIP3    H273694   2.304   2.662  16.689  1.1719  0.5274  0.7716
17427TIP3   OH273695   6.385   2.716  16.257 -0.2140  0.6068 -0.1199
17427TIP3    H173696   6.419   2.687  16.342 -0.4517  2.9564  0.8519
17427TIP3    H273697   6.317   2.652  16.236  0.1541 -0.2823  1.2378
17428TIP3   OH273698   1.159   5.748   0.057 -0.2190 -0.5086 -0.0160
17428TIP3    H173699   1.078   5.718   0.017  0.2428 -0.0789 -1.3389
17428TIP3    H273700   1.221   5.676   0.043  0.2892  0.1267 -1.2662
17429TIP3   OH273701   2.385   3.050   0.097  0.2218 -0.2613  0.0766
17429TIP3    H173702   2.331   2.983   0.056  0.6663 -0.2919 -0.4741
17429TIP3    H273703   2.328   3.092   0.161 -1.0275  0.9227 -1.7282
17430TIP3   OH273704   2.908   0.063   5.031 -0.5648 -0.2844 -0.2157
17430TIP3    H173705   2.960   0.134   5.070 -2.4814  0.8608  0.3613
17430TIP3    H273706   2.864   0.022   5.105 -0.3493 -1.3826 -0.6769
17431TIP3   OH273707   2.950   2.960   1.020  0.3100  0.3260 -0.0362
17431TIP3    H173708   3.033   2.974   0.974 -0.0822 -0.6178 -1.0871
17431TIP3    H273709   2.898   3.037   0.997  0.6079  0.5268 -0.0485
17432TIP3   OH273710   4.324   2.051   2.600  0.3289 -0.1731  0.1939
17432TIP3    H173711   4.256   2.118   2.594  1.3830  0.8572 -0.5792
17432TIP3    H273712   4.362   2.063   2.687  1.7462  1.5048 -0.6025
17433TIP3   OH273713   3.779   4.683  12.393  0.0565 -0.3526  0.3686
17433TIP3    H173714   3.746   4.621  12.458  0.7552 -0.9478  0.1791
17433TIP3    H273715   3.874   4.687  12.410 -0.1402  1.7481  1.2789
17434TIP3   OH273716   0.103   3.485  15.451 -0.3861 -0.0595  0.0856
17434TIP3    H173717   0.089   3.492  15.357 -2.1879  1.1604  0.3905
17434TIP3    H273718   0.050   3.410  15.478 -0.3802 -0.0242  0.1988
17435TIP3   OH273719   1.875   2.667   3.940  0.6353 -0.2336 -0.0989
17435TIP3    H173720   1.918   2.659   4.025  1.8964 -1.8622 -0.8244
17435TIP3    H273721   1.792   2.620   3.950  0.5821 -0.0497  0.3351
17436TIP3   OH273722   0.454   2.141   0.005 -0.2031 -0.2122 -0.4023
17436TIP3    H173723   0.495   2.058  -0.017  0.4675 -0.0875  0.3368
17436TIP3    H273724   0.381   2.149  -0.056 -0.1968 -1.2793 -0.5580
17437TIP3   OH273725   4.076   3.734  12.887 -0.0447 -0.2421  0.4399
17437TIP3    H173726   4.141   3.803  12.877  1.2939 -1.5686 -0.3681
17437TIP3    H273727   4.089   3.702  12.977  0.2268 -0.3084  0.3778
17438TIP3   OH273728   0.624   1.543   6.149 -0.0970  0.8461 -0.0736
17438TIP3    H173729   0.677   1.620   6.129 -0.1080  0.9318  0.2176
17438TIP3    H273730   0.554   1.576   6.205 -0.3587  0.7002 -0.3111
17439TIP3   OH273731   6.305   4.531  15.343  0.4569 -0.0014  0.2676
17439TIP3    H173732   6.309   4.626  15.327  0.6633  0.2472  1.6592
17439TIP3    H273733   6.213   4.508  15.327  0.2215  0.5969  0.7075
17440TIP3   OH273734   2.989   6.616   6.022 -0.2345 -0.5622 -0.4073
17440TIP3    H173735   2.913   6.665   6.053 -0.4136  0.1809 -1.9422
17440TIP3    H273736   2.971   6.600   5.930  1.1615 -0.9926 -0.6255
17441TIP3   OH273737   3.451   2.965   1.312  0.0187  0.1221  0.3977
17441TIP3    H173738   3.407   2.922   1.239 -0.6008  1.0775  0.1875
17441TIP3    H273739   3.382   3.017   1.354  0.5387  0.1855  1.1931
17442TIP3   OH273740   0.414   4.927   1.877 -0.3701  0.3784 -0.3150
17442TIP3    H173741   0.488   4.906   1.820  0.0858  0.1671  0.3369
17442TIP3    H273742   0.433   5.015   1.910 -0.1293  0.1241  0.2564
17443TIP3   OH273743   2.046   3.903   0.030  0.6360  0.1655 -0.3186
17443TIP3    H173744   2.042   3.962  -0.046 -0.7712  0.3655 -0.1237
17443TIP3    H273745   2.139   3.882   0.039  1.1520  2.1377 -0.5623
17444TIP3   OH273746   2.894   4.514  16.383  0.0406 -0.6421 -0.3946
17444TIP3    H173747   2.847   4.544  16.461 -1.4708  0.7368 -1.7947
17444TIP3    H273748   2.909   4.421  16.400 -0.5521 -0.4556  1.3966
17445TIP3   OH273749   3.501   1.625   2.090 -0.1584  0.0784  0.5518
17445TIP3    H173750   3.474   1.538   2.059  0.9278  0.3823 -1.3939
17445TIP3    H273751   3.594   1.629   2.072 -0.2786  1.8246  0.1843
17446TIP3   OH273752   1.008   0.846  13.076  0.2171  0.0951  0.2954
17446TIP3    H173753   0.969   0.766  13.041  0.3584  0.0308  0.2843
17446TIP3    H273754   1.084   0.863  13.019  0.9819 -0.5098  1.1142
17447TIP3   OH273755   2.036   4.761  15.065  0.0138 -0.1375  0.0640
17447TIP3    H173756   2.108   4.720  15.113  1.0320  0.2841 -1.0423
17447TIP3    H273757   1.969   4.778  15.131  2.4672  3.0634  2.0438
17448TIP3   OH273758   1.382   5.282  13.579  0.2968 -1.0883  0.1799
17448TIP3    H173759   1.411   5.271  13.488  1.7809 -2.4607  0.7842
17448TIP3    H273760   1.418   5.366  13.605 -1.7933  0.2870 -1.0560
17449TIP3   OH273761   6.540   2.856   1.519  0.2706  0.1327 -0.3149
17449TIP3    H173762   6.467   2.849   1.581  0.5460 -0.5176 -0.0615
17449TIP3    H273763   6.604   2.912   1.564  0.0434  0.4877 -0.4297
17450TIP3   OH273764   0.827   2.904  15.407 -0.0482 -0.7152 -0.2624
17450TIP3    H173765   0.847   2.994  15.433 -1.5792 -0.3606 -0.2353
17450TIP3    H273766   0.778   2.912  15.325  0.9693 -1.6146 -0.9991
17451TIP3   OH273767   0.552   0.368   2.320 -0.4729 -0.3443  0.0879
17451TIP3    H173768   0.574   0.404   2.406  1.2035 -0.7893 -0.1202
17451TIP3    H273769   0.507   0.286   2.339  0.5072 -0.7925  0.5777
17452TIP3   OH273770   4.160   1.910  12.241 -0.0303 -0.0459  0.4192
17452TIP3    H173771   4.141   1.821  12.211 -1.2457  0.3630 -0.0762
17452TIP3    H273772   4.241   1.933  12.196 -0.0703 -0.6586  0.0178
17453TIP3   OH273773   4.473   5.911   0.287  0.2990  0.0779 -0.7967
17453TIP3    H173774   4.456   5.818   0.298 -0.5777  0.2044 -1.0516
17453TIP3    H273775   4.447   5.930   0.197 -0.2737  0.7295 -0.4989
17454TIP3   OH273776   1.929   6.545  12.667 -0.2160 -0.2052 -0.2812
17454TIP3    H173777   1.880   6.622  12.641 -0.7650 -0.1127  0.9262
17454TIP3    H273778   1.876   6.471  12.638  0.0257 -0.1297 -0.9231
17455TIP3   OH273779   0.780   0.538  12.371  0.0396 -0.2393 -0.2978
17455TIP3    H173780   0.697   0.555  12.325  0.0535 -1.0878 -0.6649
17455TIP3    H273781   0.757   0.474  12.439  0.1060  0.6864  0.6150
17456TIP3   OH273782   2.694   4.908  14.501 -0.5231  0.6844 -0.5240
17456TIP3    H173783   2.754   4.861  14.559  1.5704  3.5157 -0.1937
17456TIP3    H273784   2.608   4.897  14.541 -0.5034 -3.8594 -1.2219
17457TIP3   OH273785   5.069   2.814  14.247  0.2328 -0.0856 -0.1479
17457TIP3    H173786   5.156   2.854  14.246  0.0241  0.3809  0.3347
17457TIP3    H273787   5.080   2.732  14.197  1.2351 -0.6417  0.9349
17458TIP3   OH273788   2.865   3.492   3.687 -0.1414  0.1759  0.1755
17458TIP3    H173789   2.839   3.561   3.748 -1.8241  1.0939 -1.4697
17458TIP3    H273790   2.829   3.412   3.724 -0.4311  0.5869  0.7976
17459TIP3   OH273791   5.214   1.002   0.117 -0.6166 -0.4088 -0.0683
17459TIP3    H173792   5.259   0.972   0.038 -2.1945 -0.3532 -1.0375
17459TIP3    H273793   5.214   1.097   0.109 -0.0993 -0.3662  0.4048
17460TIP3   OH273794   4.331   2.201  14.435 -0.0686 -0.0622 -0.7511
17460TIP3    H173795   4.254   2.219  14.381  0.0344 -0.4811 -1.0397
17460TIP3    H273796   4.399   2.175  14.373  0.9089  2.1330 -0.7100
17461TIP3   OH273797   0.366   2.282   6.166  0.3726  0.6770  0.6046
17461TIP3    H173798   0.313   2.211   6.202  0.0908  1.5295  1.9715
17461TIP3    H273799   0.444   2.238   6.131  0.4947 -0.2797  1.9813
17462TIP3   OH273800   0.698   5.885   4.690  0.0353 -0.0015 -0.1059
17462TIP3    H173801   0.688   5.803   4.737 -1.1648 -1.2881 -2.4169
17462TIP3    H273802   0.658   5.951   4.747  0.8968 -0.9903  1.7373
17463TIP3   OH273803   5.770   4.570   0.612 -0.2416 -0.1507  0.7620
17463TIP3    H173804   5.746   4.570   0.704 -1.3503 -1.5427  0.5011
17463TIP3    H273805   5.732   4.489   0.577 -0.3378  0.6224 -1.0326
17464TIP3   OH273806   5.150   5.282   1.076 -0.1692 -0.6753 -0.6276
17464TIP3    H173807   5.070   5.310   1.120  0.8666  2.4129 -0.5076
17464TIP3    H273808   5.220   5.300   1.139  0.9395 -0.0619 -1.9981
17465TIP3   OH273809   5.287   6.181  16.894 -0.2591  0.0325 -0.4210
17465TIP3    H173810   5.210   6.216  16.849 -1.7292 -1.1739  1.0261
17465TIP3    H273811   5.324   6.119  16.832 -0.3630  0.7237 -1.1943
17466TIP3   OH273812   5.422   3.551   3.531 -0.1227  0.1419 -0.0955
17466TIP3    H173813   5.358   3.480   3.532  0.0514 -0.0165  1.1278
17466TIP3    H273814   5.398   3.606   3.606  1.0204  0.2019  0.2511
17467TIP3   OH273815   3.483   4.168  16.082 -0.5081 -0.2200 -0.0430
17467TIP3    H173816   3.456   4.137  16.168  0.1672 -1.6392 -0.3112
17467TIP3    H273817   3.563   4.119  16.063  0.1861  1.1571 -0.8470
17468TIP3   OH273818   2.452   6.375   1.048  0.2158  0.0613 -0.4098
17468TIP3    H173819   2.396   6.349   1.121  3.0341 -0.6375  1.6378
17468TIP3    H273820   2.409   6.453   1.013 -1.9649 -0.3577  1.0715
17469TIP3   OH273821   0.978   6.572   6.803 -0.3623  0.2659  0.4328
17469TIP3    H173822   0.908   6.525   6.757 -1.1912  0.1393  1.7713
17469TIP3    H273823   1.006   6.512   6.872 -0.0736  0.9663  0.9337
17470TIP3   OH273824   4.034   5.379  10.879  0.1928  0.1691 -0.5026
17470TIP3    H173825   4.015   5.456  10.826 -2.2471 -0.0498 -0.0714
17470TIP3    H273826   4.122   5.393  10.913  0.2975  2.1257 -1.4735
17471TIP3   OH273827   3.654   0.858   1.760 -0.4155 -0.1173 -0.3059
17471TIP3    H173828   3.722   0.922   1.739  1.2136 -1.6406  0.0871
17471TIP3    H273829   3.663   0.791   1.693 -0.5432 -1.0571  0.5960
17472TIP3   OH273830   0.499   3.920   4.256  0.0093  0.0066 -0.2233
17472TIP3    H173831   0.447   3.954   4.328  1.6578 -0.6037  1.3389
17472TIP3    H273832   0.589   3.948   4.275  0.6545 -1.0859 -1.4456
17473TIP3   OH273833   0.012   2.197   6.027  0.5601 -0.0187 -0.0477
17473TIP3    H173834  -0.052   2.268   6.026  1.4723  1.1286  3.9238
17473TIP3    H273835  -0.023   2.134   6.089  2.2021 -0.4332  0.5194
17474TIP3   OH273836   5.116   2.507   1.108 -0.0099  0.2706  0.3415
17474TIP3    H173837   5.062   2.582   1.131  1.2617  1.7751 -1.2678
17474TIP3    H273838   5.107   2.499   1.013  1.4471 -0.3164  0.2232
17475TIP3   OH273839   0.074   5.406  14.976  0.2899  0.2178  0.9932
17475TIP3    H173840   0.138   5.428  15.043  1.5338  0.2475 -0.1633
17475TIP3    H273841   0.100   5.319  14.945  0.4703  0.7006 -0.2587
17476TIP3   OH273842   0.826   0.213  12.595 -0.7099 -0.1953  0.0742
17476TIP3    H173843   0.751   0.254  12.552  0.5026  2.0529 -0.0318
17476TIP3    H273844   0.844   0.269  12.670 -1.1354 -2.5657  2.0706
17477TIP3   OH273845   0.033   3.962   4.223 -0.1733 -0.3834  0.3722
17477TIP3    H173846   0.083   3.904   4.165 -1.9278 -0.8335 -0.7628
17477TIP3    H273847  -0.034   4.001   4.167  0.6619  2.4943  1.1934
17478TIP3   OH273848   5.367   6.707  16.554  0.1606  0.4914 -0.0823
17478TIP3    H173849   5.393   6.690  16.464  0.7406 -0.2097  0.2090
17478TIP3    H273850   5.345   6.800  16.556  0.9879  0.7058 -0.7394
17479TIP3   OH273851   0.123   2.238  15.801 -0.2326 -0.3782  0.5426
17479TIP3    H173852   0.093   2.148  15.793  0.2477 -0.4642 -0.3968
17479TIP3    H273853   0.204   2.242  15.751  0.0005  0.4670  0.9546
17480TIP3   OH273854   0.084   1.714   1.392  0.3950 -0.2770  0.0196
17480TIP3    H173855   0.088   1.718   1.488  2.8362 -1.1447  0.0152
17480TIP3    H273856   0.132   1.635   1.369  0.3371  0.2067 -1.9720
17481TIP3   OH273857   3.835   2.396  15.247  0.1327 -0.0015 -0.2231
17481TIP3    H173858   3.915   2.343  15.246 -0.2107 -0.5511 -1.2768
17481TIP3    H273859   3.862   2.481  15.281  0.3377 -1.3349  3.3826
17482TIP3   OH273860   4.324   5.375  17.363  0.4958  0.5719 -0.0764
17482TIP3    H173861   4.373   5.341  17.288 -1.2514 -2.9008  0.1219
17482TIP3    H273862   4.261   5.436  17.324 -0.4437 -1.2301 -1.5345
17483TIP3   OH273863   6.333   4.980  16.869 -0.3266  0.1964 -0.2446
17483TIP3    H173864   6.392   4.993  16.795  2.2632 -1.1293  1.4615
17483TIP3    H273865   6.259   5.038  16.851  0.9462  1.1195 -3.0262
17484TIP3   OH273866   4.049   0.032  13.043 -0.2564 -0.3668 -0.2057
17484TIP3    H173867   4.099   0.112  13.052  1.7171 -1.2330 -2.5000
17484TIP3    H273868   3.998   0.043  12.963 -0.0172 -1.3369 -0.5163
17485TIP3   OH273869   1.974   6.756   5.247  0.4869  0.0924 -0.3233
17485TIP3    H173870   1.999   6.828   5.190 -0.3702  1.0092  0.4107
17485TIP3    H273871   1.878   6.752   5.239  0.2108  0.9775  1.8321
17486TIP3   OH273872   3.530   3.730   3.145 -0.2740  0.1167 -0.3692
17486TIP3    H173873   3.500   3.664   3.207  0.8147  0.3890  0.4771
17486TIP3    H273874   3.512   3.692   3.059  0.4006 -1.3193  0.0953
17487TIP3   OH273875   2.071   2.331  12.277 -0.0217  0.1526  0.1913
17487TIP3    H173876   2.078   2.243  12.314 -0.7050 -0.6987 -1.6029
17487TIP3    H273877   2.034   2.318  12.190 -0.1012  2.2260 -0.1392
17488TIP3   OH273878   6.146   5.246   1.505  0.7533  0.6556  0.2382
17488TIP3    H173879   6.131   5.313   1.571  2.6220  1.6135 -0.2422
17488TIP3    H273880   6.227   5.203   1.533 -0.1318 -1.0916  0.2561
17489TIP3   OH273881   6.006   6.606  12.104 -0.0967 -0.2454  0.6734
17489TIP3    H173882   5.997   6.597  12.009 -0.2254  0.6245  0.5971
17489TIP3    H273883   6.086   6.557  12.125 -0.4272 -1.0071  0.2173
17490TIP3   OH273884   4.400   0.674   6.391 -0.2948 -0.3323 -0.3958
17490TIP3    H173885   4.356   0.589   6.386  1.2837 -1.2892  0.7296
17490TIP3    H273886   4.477   0.664   6.336  0.0641  0.2647 -0.0086
17491TIP3   OH273887   3.931   1.712  16.268  0.5716  0.4507  0.1589
17491TIP3    H173888   3.895   1.787  16.315 -1.9375 -0.8070  0.4013
17491TIP3    H273889   3.893   1.635  16.311  1.3760 -0.8951 -1.3902
17492TIP3   OH273890   2.124   6.081  13.296 -0.2227  0.0812  0.3033
17492TIP3    H173891   2.036   6.116  13.308 -1.4823 -2.8154  0.3318
17492TIP3    H273892   2.168   6.144  13.239 -3.4583  0.0159 -2.5684
17493TIP3   OH273893   0.831   2.787   0.795 -0.2873 -0.0112  0.2992
17493TIP3    H173894   0.767   2.768   0.726 -0.7841 -0.0644  0.7632
17493TIP3    H273895   0.819   2.879   0.814 -0.0051  0.0524  0.1736
17494TIP3   OH273896   0.995   4.720  12.440 -0.0015  0.0388 -0.2405
17494TIP3    H173897   0.965   4.799  12.395  3.6075  1.3802 -0.5964
17494TIP3    H273898   0.961   4.730  12.529 -0.4039  1.5146 -0.5277
17495TIP3   OH273899   6.737   0.672  13.027 -0.0811  0.0941 -0.7684
17495TIP3    H173900   6.775   0.699  13.110  0.1567 -2.2722 -0.0129
17495TIP3    H273901   6.812   0.663  12.968  0.1337 -0.9099 -0.3776
17496TIP3   OH273902   2.232   6.101  16.199 -0.2763 -0.0155 -0.1335
17496TIP3    H173903   2.272   6.022  16.163  0.1774  0.4076 -0.5755
17496TIP3    H273904   2.276   6.114  16.283 -0.9311 -0.6807  0.3317
17497TIP3   OH273905   4.643   6.198   1.195 -0.1321 -0.0193 -0.5743
17497TIP3    H173906   4.555   6.182   1.230  0.0916  0.3984  0.1896
17497TIP3    H273907   4.638   6.286   1.156  0.4988  0.9055  1.3366
17498TIP3   OH273908   1.489   5.107   4.356 -0.0829  0.3760  0.1104
17498TIP3    H173909   1.495   5.199   4.329  0.4281  0.2958 -0.0506
17498TIP3    H273910   1.437   5.110   4.437  1.7079  1.0629  1.2894
17499TIP3   OH273911   4.636   0.874  11.123  0.5890  0.3012  0.2368
17499TIP3    H173912   4.625   0.780  11.143  1.4014  0.1065 -0.2283
17499TIP3    H273913   4.633   0.879  11.028 -2.3140  1.1190  0.2748
17500TIP3   OH273914   0.989   2.115   0.668 -0.2715 -0.3529 -0.1035
17500TIP3    H173915   1.039   2.050   0.618 -3.4344 -1.6515 -1.9140
17500TIP3    H273916   1.031   2.118   0.753  2.2484 -1.9931 -1.1750
17501TIP3   OH273917   6.342   0.949   5.878  0.4159 -0.1524  0.3029
17501TIP3    H173918   6.343   0.890   5.803 -2.5488 -1.0953  0.8830
17501TIP3    H273919   6.272   1.011   5.859  1.5444  1.4099  1.0355
17502TIP3   OH273920   4.946   5.158  16.562 -0.6622 -0.3082  0.0560
17502TIP3    H173921   4.969   5.250  16.576  1.1698 -0.4929 -1.3072
17502TIP3    H273922   4.888   5.136  16.635  1.4857  0.9977  2.3136
17503TIP3   OH273923   3.940   6.124  12.623 -0.1246  0.3471  0.3896
17503TIP3    H173924   3.913   6.194  12.683  1.0173  0.3453  0.9384
17503TIP3    H273925   4.014   6.160  12.575  0.3156 -0.3758  0.4975
17504TIP3   OH273926   2.674   2.088  11.310  0.2398 -0.3512 -0.2747
17504TIP3    H173927   2.685   2.156  11.377 -2.2275  1.6043 -1.6603
17504TIP3    H273928   2.713   2.126  11.231  0.5467 -1.4079 -0.6534
17505TIP3   OH273929   4.762   3.636   0.632  0.3330  0.6142 -0.6718
17505TIP3    H173930   4.770   3.542   0.615  1.3546  0.6920 -0.7033
17505TIP3    H273931   4.674   3.647   0.668 -0.6363 -0.0369 -2.7308
17506TIP3   OH273932   2.906   0.734  12.655 -0.3076  0.1531 -0.2546
17506TIP3    H173933   2.931   0.820  12.687  0.0524  0.2692 -0.8245
17506TIP3    H273934   2.917   0.676  12.730  1.8097  0.1895 -0.4782
17507TIP3   OH273935   5.985   3.088   3.971  0.7570  0.4890  0.5650
17507TIP3    H173936   5.982   3.006   3.921  1.8403  1.1597 -0.6626
17507TIP3    H273937   5.914   3.141   3.935 -0.1407 -0.0062  1.5705
17508TIP3   OH273938   5.214   3.644   1.177  0.7625  1.0027  0.6646
17508TIP3    H173939   5.248   3.670   1.262 -1.2090  3.8852  0.7103
17508TIP3    H273940   5.124   3.618   1.193  1.0259 -0.6735 -0.2780
17509TIP3   OH273941   5.315   5.172   5.524 -0.2209 -0.1774  0.5627
17509TIP3    H173942   5.342   5.087   5.560  0.0279  0.3349  1.6103
17509TIP3    H273943   5.323   5.233   5.597 -1.5053  0.5400  0.1335
17510TIP3   OH273944   6.521   4.165  14.989 -0.4638 -0.1860 -0.2360
17510TIP3    H173945   6.439   4.125  15.017 -1.2704  0.6600 -1.3137
17510TIP3    H273946   6.506   4.259  14.998  0.1822  0.0001 -1.0059
17511TIP3   OH273947   0.867   6.694   3.080 -0.1868 -0.5021  0.0803
17511TIP3    H173948   0.788   6.747   3.084  0.1770  0.1026 -0.5959
17511TIP3    H273949   0.843   6.618   3.028 -0.1430  0.0085 -0.6963
17512TIP3   OH273950   3.261   1.104   3.292  0.1657 -0.2694  0.1721
17512TIP3    H173951   3.191   1.077   3.233  0.9693  0.0336 -0.9453
17512TIP3    H273952   3.236   1.067   3.377 -0.6187 -1.3859 -0.5166
17513TIP3   OH273953   1.064   4.176  15.927 -0.3463 -0.3021  0.0056
17513TIP3    H173954   1.103   4.107  15.873 -1.9144 -0.1440 -1.4211
17513TIP3    H273955   1.040   4.132  16.009  1.0256 -0.8230  0.1467
17514TIP3   OH273956   5.062   0.590  15.589  0.0309  0.2193  0.3863
17514TIP3    H173957   5.046   0.590  15.684  1.6661 -0.5145  0.6985
17514TIP3    H273958   4.979   0.563  15.551 -1.2397  2.3377  1.4654
17515TIP3   OH273959   5.134   3.952   1.042  0.1201  0.0728  0.2946
17515TIP3    H173960   5.165   3.904   1.119  0.1016 -0.6288 -0.1295
17515TIP3    H273961   5.077   3.890   0.997  0.2910  0.4109 -0.3924
17516TIP3   OH273962   2.351   4.371  15.895 -0.0309  0.2442  0.2036
17516TIP3    H173963   2.431   4.342  15.850  0.5341  1.9040  0.0554
17516TIP3    H273964   2.293   4.398  15.824 -0.1226  0.4903  0.3721
17517TIP3   OH273965   1.475   4.623  12.864  0.0147  0.1610  0.4363
17517TIP3    H173966   1.570   4.615  12.858 -0.1883 -1.6550 -1.1270
17517TIP3    H273967   1.457   4.713  12.837  1.2216  0.2771 -0.0381
17518TIP3   OH273968   4.493   4.474   1.807  0.0224 -0.7088  0.0843
17518TIP3    H173969   4.449   4.505   1.728  1.3479 -0.8867 -0.7727
17518TIP3    H273970   4.444   4.512   1.879 -0.1186  1.0170 -0.8689
17519TIP3   OH273971   3.482   5.112  12.592 -0.5614  0.3613  0.3254
17519TIP3    H173972   3.476   5.151  12.504  1.2967 -0.6466 -0.3042
17519TIP3    H273973   3.530   5.177  12.643  0.5571 -0.0943 -0.1131
17520TIP3   OH273974   0.907   3.275  15.878 -0.5723 -0.6162  0.3860
17520TIP3    H173975   0.917   3.320  15.795 -2.1743  0.3062  0.6493
17520TIP3    H273976   0.990   3.287  15.923 -0.0421 -0.2677 -0.6662
17521TIP3   OH273977   1.677   2.449   3.341  0.3730  0.1417 -0.6377
17521TIP3    H173978   1.762   2.408   3.330  2.2729  3.1308  1.3782
17521TIP3    H273979   1.634   2.397   3.409  1.5672 -0.1444 -0.0678
17522TIP3   OH273980   0.712   1.014  12.588 -0.6215 -0.4886  0.0221
17522TIP3    H173981   0.730   0.921  12.595 -0.7093 -0.5469 -0.4839
17522TIP3    H273982   0.638   1.020  12.528 -0.0567 -0.0435 -0.6476
17523TIP3   OH273983   5.411   2.896  12.109  0.2362  1.0229 -0.1563
17523TIP3    H173984   5.380   2.810  12.139  0.4875  1.2731  0.8455
17523TIP3    H273985   5.331   2.944  12.087 -0.1063  1.4308  1.7844
17524TIP3   OH273986   5.012   4.408   4.696  0.2912  0.5089 -0.6256
17524TIP3    H173987   5.066   4.469   4.646  1.7999  1.1658  1.6729
17524TIP3    H273988   4.958   4.464   4.752 -0.9372 -0.2232 -1.0371
17525TIP3   OH273989   5.066   2.158  12.094 -0.4069  0.1650  0.8629
17525TIP3    H173990   5.006   2.229  12.070 -0.6815 -0.7217 -1.2964
17525TIP3    H273991   5.095   2.122  12.011  2.5674  0.0339  1.8464
17526TIP3   OH273992   4.013   3.735   6.054  0.1366  0.0296 -0.1197
17526TIP3    H173993   4.061   3.783   6.122  0.9938 -1.6209  0.4865
17526TIP3    H273994   3.949   3.798   6.021  1.3478  1.6449  0.4922
17527TIP3   OH273995   3.045   1.450  15.439 -0.3566 -0.0364  0.3924
17527TIP3    H173996   3.038   1.450  15.535  0.2489 -1.3386  0.4563
17527TIP3    H273997   2.978   1.387  15.411 -1.1283  0.9825 -0.1096
17528TIP3   OH273998   6.451   0.113  14.417  0.3563 -0.0439 -0.6818
17528TIP3    H173999   6.509   0.186  14.436  1.4253 -1.0616  0.1189
17528TIP3    H274000   6.500   0.035  14.445 -1.5978 -0.9150  0.5283
17529TIP3   OH274001   1.989   5.999  12.361  0.2067 -0.1589  0.0417
17529TIP3    H174002   2.028   5.944  12.429 -0.6924 -0.3193  0.4417
17529TIP3    H274003   2.022   6.087  12.381  1.5011 -0.4943 -0.4904
17530TIP3   OH274004   0.019   4.896  14.446 -0.8014  0.3795 -0.2525
17530TIP3    H174005  -0.072   4.867  14.448 -0.4899 -0.5715  1.1926
17530TIP3    H274006   0.068   4.826  14.489  0.6356  0.8390 -1.0685
17531TIP3   OH274007   1.786   3.410  15.106  0.3040  0.3464 -0.1471
17531TIP3    H174008   1.865   3.462  15.091  0.6042 -0.3507 -1.0818
17531TIP3    H274009   1.739   3.457  15.175  0.9219  1.4394 -0.4477
17532TIP3   OH274010   4.694   0.466  12.370  0.5239  0.4261 -0.1590
17532TIP3    H174011   4.661   0.439  12.285  0.2497  1.5211 -0.4076
17532TIP3    H274012   4.787   0.442  12.368  0.4020 -0.0346 -0.5516
17533TIP3   OH274013   3.055   5.071   0.198 -0.1303  0.1502 -0.3017
17533TIP3    H174014   3.081   5.160   0.223 -1.1322  0.4761 -0.3827
17533TIP3    H274015   3.041   5.075   0.104 -0.6204  0.0175 -0.2354
17534TIP3   OH274016   3.590   2.520  16.487  0.5476 -0.0045  0.3423
17534TIP3    H174017   3.541   2.454  16.536 -1.8891  1.3349 -0.1212
17534TIP3    H274018   3.554   2.515  16.398 -0.1401  2.2637  0.4247
17535TIP3   OH274019   3.146   6.548  17.301 -0.5822 -0.6266 -0.0179
17535TIP3    H174020   3.216   6.487  17.277  0.4933  0.0661  1.2297
17535TIP3    H274021   3.086   6.496  17.355 -0.2970 -0.8755  0.0612
17536TIP3   OH274022   0.901   2.681   3.408  0.0375 -0.1634 -0.1482
17536TIP3    H174023   0.908   2.618   3.480  0.2243  1.0221  0.8973
17536TIP3    H274024   0.987   2.722   3.402 -0.2098  0.3130 -0.5275
17537TIP3   OH274025   1.420   6.455   3.414 -0.3078 -0.3026  0.3566
17537TIP3    H174026   1.448   6.391   3.480 -0.6610  1.2152  2.0407
17537TIP3    H274027   1.327   6.468   3.432  0.0525  1.7053  1.0022
17538TIP3   OH274028   4.018   3.975  16.177 -0.0443  0.6051 -0.0296
17538TIP3    H174029   4.109   4.005  16.185 -0.2266  1.7347 -1.6189
17538TIP3    H274030   4.006   3.962  16.083 -2.1938  2.8592 -0.1775
17539TIP3   OH274031   6.658   2.606   2.348 -0.2016 -0.7012 -0.3307
17539TIP3    H174032   6.680   2.652   2.429  0.8293  0.7997 -1.4058
17539TIP3    H274033   6.732   2.549   2.332 -0.7006 -1.4874  0.0987
17540TIP3   OH274034   4.165   1.458  13.960  0.1016 -0.4399 -0.1095
17540TIP3    H174035   4.156   1.366  13.933 -2.1563 -0.2722 -0.1284
17540TIP3    H274036   4.157   1.507  13.878 -2.3732 -0.1239  0.2407
17541TIP3   OH274037   6.670   6.522   2.699  0.2160 -0.4850  0.2521
17541TIP3    H174038   6.614   6.492   2.771  0.8365 -1.5216  0.3189
17541TIP3    H274039   6.645   6.467   2.625 -0.3462  0.5055 -0.3245
17542TIP3   OH274040   0.350   1.698  15.798  0.2679 -0.3504  0.0226
17542TIP3    H174041   0.320   1.673  15.886  1.1824 -0.7282  0.2389
17542TIP3    H274042   0.443   1.719  15.809  1.4834 -4.1285 -1.4690
17543TIP3   OH274043   0.148   6.118   2.293 -0.5023  0.0249  0.0950
17543TIP3    H174044   0.122   6.051   2.356  1.1925 -1.3548 -0.5845
17543TIP3    H274045   0.244   6.120   2.299 -0.4302  1.3073 -1.0121
17544TIP3   OH274046   3.963   0.629   2.529  0.1145 -0.4671  0.1288
17544TIP3    H174047   3.929   0.582   2.452  2.2320  0.4676 -1.4797
17544TIP3    H274048   3.979   0.561   2.593 -0.2040 -1.4935 -0.8443
17545TIP3   OH274049   0.787   2.411  12.576  0.0683 -0.7864  0.0326
17545TIP3    H174050   0.860   2.393  12.635 -0.6292 -1.0923  0.8299
17545TIP3    H274051   0.766   2.503  12.591 -0.9114 -1.1663  1.2386
17546TIP3   OH274052   5.725   2.393  14.602  0.3844 -0.2312  0.5992
17546TIP3    H174053   5.780   2.389  14.680  0.8799  2.2499  0.4391
17546TIP3    H274054   5.725   2.485  14.577 -0.1716 -0.8770 -2.0521
17547TIP3   OH274055   4.371   0.667  14.754 -0.4021  0.3142 -0.6105
17547TIP3    H174056   4.297   0.625  14.799 -0.3040  1.9501  1.2047
17547TIP3    H274057   4.448   0.633  14.800 -0.0078 -0.9933 -2.1652
17548TIP3   OH274058   3.873   1.187   3.829 -0.3430 -0.3260 -0.4446
17548TIP3    H174059   3.887   1.201   3.735 -1.8730  0.6858 -0.5637
17548TIP3    H274060   3.788   1.229   3.846 -0.6042 -1.4533  1.1723
17549TIP3   OH274061   0.959   4.947   1.970  0.1341  0.5952  0.3895
17549TIP3    H174062   1.015   5.022   1.949 -0.0234  0.7740  0.5986
17549TIP3    H274063   0.880   4.962   1.918  0.6096 -0.0881 -0.5404
17550TIP3   OH274064   5.480   3.659   6.567 -0.4292  0.1956  0.6533
17550TIP3    H174065   5.482   3.650   6.662 -2.2233 -4.0111  0.4950
17550TIP3    H274066   5.544   3.595   6.535 -1.2579  0.1204 -0.9865
17551TIP3   OH274067   4.757   4.832  16.804  0.3765 -0.1955  0.3786
17551TIP3    H174068   4.680   4.806  16.854 -0.2457  0.2565 -0.3088
17551TIP3    H274069   4.750   4.783  16.722 -0.0905  1.0739 -0.3711
17552TIP3   OH274070   5.068   0.614   0.420 -0.4911  0.1209  0.3812
17552TIP3    H174071   5.011   0.568   0.359 -0.1042  0.9423 -0.6232
17552TIP3    H274072   5.148   0.632   0.371 -0.8422  2.3463  0.5133
17553TIP3   OH274073   5.490   1.575  11.843 -0.0955 -0.0659  0.6967
17553TIP3    H174074   5.544   1.654  11.841 -0.8479  0.4589 -1.3514
17553TIP3    H274075   5.553   1.505  11.862  1.1066  0.6858 -0.2926
17554TIP3   OH274076   5.392   6.096   1.626  0.1757 -0.4120  0.0517
17554TIP3    H174077   5.475   6.144   1.634  0.0979 -0.4061  0.8825
17554TIP3    H274078   5.330   6.145   1.679 -0.0405 -1.1210  0.4652
17555TIP3   OH274079   4.479   3.813  15.910 -0.0358  0.1960  0.1269
17555TIP3    H174080   4.476   3.880  15.978 -1.7772 -0.7984  1.0985
17555TIP3    H274081   4.500   3.732  15.956  3.4196  0.1534 -1.1960
17556TIP3   OH274082   3.641   4.682   2.823 -0.6099 -0.4629 -0.1732
17556TIP3    H174083   3.583   4.632   2.881  0.2903  1.4124  2.5426
17556TIP3    H274084   3.636   4.772   2.855 -1.8482  1.2965 -4.5880
17557TIP3   OH274085   5.703   4.538  11.021  0.3439 -0.0164  0.3998
17557TIP3    H174086   5.646   4.516  11.095  1.0092  1.4350  1.3902
17557TIP3    H274087   5.719   4.454  10.978 -1.5893 -0.6336  0.7609
17558TIP3   OH274088   6.440   4.285   2.480 -0.0191 -0.0300  0.0622
17558TIP3    H174089   6.411   4.332   2.402 -0.3080 -1.0217 -0.4496
17558TIP3    H274090   6.498   4.217   2.446 -0.9823 -1.1466  0.5981
17559TIP3   OH274091   2.263   3.723  16.167  0.3227 -0.4186 -0.5146
17559TIP3    H174092   2.290   3.713  16.259  0.4875  2.3755 -0.1694
17559TIP3    H274093   2.344   3.747  16.121  0.0742 -0.8952 -1.2113
17560TIP3   OH274094   3.561   3.437   5.516  0.0516 -0.5397  0.2278
17560TIP3    H174095   3.484   3.394   5.479 -0.4527 -0.1198  0.7636
17560TIP3    H274096   3.549   3.430   5.611 -0.1718  0.9882  0.3336
17561TIP3   OH274097   3.581   6.753  11.094 -0.1438 -0.5811  0.1370
17561TIP3    H174098   3.634   6.790  11.024  0.8902 -1.4625  0.4090
17561TIP3    H274099   3.561   6.827  11.151 -2.1191  0.3908 -1.7308
17562TIP3   OH274100   0.903   6.162  14.312 -0.2783 -0.2184 -0.8373
17562TIP3    H174101   0.866   6.093  14.367  1.0566 -0.2272  0.1121
17562TIP3    H274102   0.993   6.133  14.294  0.4060  1.3437 -0.2105
17563TIP3   OH274103   0.259   2.860   7.010  0.6127  1.2200  0.1180
17563TIP3    H174104   0.291   2.916   6.938 -0.8932  1.1943 -0.5963
17563TIP3    H274105   0.247   2.774   6.971 -1.7562  1.5754 -0.0571
17564TIP3   OH274106   3.447   4.049   3.110 -0.3435 -0.5571 -0.1970
17564TIP3    H174107   3.507   3.977   3.092 -0.1573 -0.9951  1.9022
17564TIP3    H274108   3.452   4.061   3.205 -1.0259  1.6595 -0.3914
17565TIP3   OH274109   0.145   3.098  12.692  0.5277 -0.3944  0.1253
17565TIP3    H174110   0.199   3.162  12.646 -1.2977  2.2132  1.3310
17565TIP3    H274111   0.142   3.129  12.782 -0.3968 -2.2285  0.7702
17566TIP3   OH274112   3.807   2.640  14.091 -0.1556  0.0555 -0.5151
17566TIP3    H174113   3.783   2.650  14.184  0.2635  1.0353 -0.5046
17566TIP3    H274114   3.806   2.545  14.077 -0.5065 -0.0962  0.4167
17567TIP3   OH274115   2.115   1.731   6.876  0.0828 -0.3146 -0.5831
17567TIP3    H174116   2.083   1.659   6.931  1.4320  0.0392  0.7282
17567TIP3    H274117   2.124   1.691   6.789  0.3997 -1.6365  0.0195
17568TIP3   OH274118   3.372   5.044  16.503 -0.2329  0.2774  0.0231
17568TIP3    H174119   3.390   5.104  16.575  0.7357  1.3236 -1.0392
17568TIP3    H274120   3.288   5.004  16.525 -1.1770  2.4281  0.5421
17569TIP3   OH274121   5.407   2.888  11.214 -0.1555 -0.6777  0.3276
17569TIP3    H174122   5.399   2.886  11.118 -1.9628 -2.0885  0.4541
17569TIP3    H274123   5.500   2.871  11.230  0.0253 -1.2967 -1.1636
17570TIP3   OH274124   2.172   0.410   2.365  0.4141  0.2633 -0.1353
17570TIP3    H174125   2.092   0.455   2.392  1.9839  1.3425  3.1255
17570TIP3    H274126   2.195   0.450   2.281 -2.7039 -0.5502 -1.5250
17571TIP3   OH274127   4.418   2.926   3.599  0.0071  0.3303 -0.4466
17571TIP3    H174128   4.326   2.899   3.603  0.2112 -0.2845  0.5408
17571TIP3    H274129   4.443   2.937   3.691  0.6174  1.5747 -0.7405
17572TIP3   OH274130   1.272   5.214  12.775 -0.2927 -0.2650  0.0629
17572TIP3    H174131   1.281   5.133  12.725 -0.5836  0.1872 -0.7373
17572TIP3    H274132   1.203   5.197  12.838 -0.8604 -0.4055 -0.5916
17573TIP3   OH274133   4.537   3.449   6.071  0.1876 -0.1617 -0.5372
17573TIP3    H174134   4.582   3.522   6.029 -1.2439 -0.6422 -3.1378
17573TIP3    H274135   4.488   3.488   6.143  2.1236  0.8503  0.2760
17574TIP3   OH274136   6.083   6.277  15.526  0.2846 -0.0439 -0.8805
17574TIP3    H174137   6.069   6.359  15.573 -1.3755 -0.1537 -1.1232
17574TIP3    H274138   6.083   6.210  15.595  1.4638  0.1066 -0.7026
17575TIP3   OH274139   6.617   0.723  12.013 -0.3048  0.0848  0.2196
17575TIP3    H174140   6.647   0.785  12.079 -1.5701  0.9477  0.0256
17575TIP3    H274141   6.635   0.637  12.050  1.3631  0.5434  0.5561
17576TIP3   OH274142   1.592   2.685   1.638 -0.3344 -0.1538  0.3148
17576TIP3    H174143   1.566   2.639   1.558 -0.8733 -0.2952  0.5682
17576TIP3    H274144   1.603   2.617   1.704  0.3375 -0.0597  0.3073
17577TIP3   OH274145   6.697   3.097   4.501 -0.4013 -0.1815  0.0734
17577TIP3    H174146   6.792   3.106   4.497 -0.3377 -0.1632  1.2918
17577TIP3    H274147   6.667   3.126   4.414  0.5278  2.0641  0.4299
17578TIP3   OH274148   1.343   2.919  11.004  0.1443  0.0631 -0.1182
17578TIP3    H174149   1.328   2.824  10.999  0.9858 -0.0249 -1.7627
17578TIP3    H274150   1.257   2.958  10.989  0.0229 -0.4517 -0.8229
17579TIP3   OH274151   6.745   4.895  16.086  0.5868  0.3566  0.0882
17579TIP3    H174152   6.677   4.894  16.153  0.1738 -1.0448 -0.3109
17579TIP3    H274153   6.825   4.868  16.132  0.2783 -0.7243  0.0038
17580TIP3   OH274154   1.107   3.951  13.202 -0.0929 -0.1738 -0.3551
17580TIP3    H174155   1.079   3.946  13.293  2.6218  0.0545  0.5921
17580TIP3    H274156   1.081   4.038  13.173 -1.2015 -0.3422  0.0984
17581TIP3   OH274157   1.208   1.642   5.776 -0.1688  0.4485 -0.5732
17581TIP3    H174158   1.285   1.672   5.728  0.9378 -0.6016  0.4517
17581TIP3    H274159   1.224   1.548   5.791 -1.0019  0.4924  0.8304
17582TIP3   OH274160   5.525   6.136   0.192 -0.3136  0.9074  0.3288
17582TIP3    H174161   5.612   6.104   0.169 -0.8620 -0.1642 -0.3557
17582TIP3    H274162   5.505   6.202   0.127 -0.3760  0.4972 -0.0727
17583TIP3   OH274163   4.590   5.011  11.459 -0.6298  0.3549  0.2330
17583TIP3    H174164   4.550   4.975  11.538  1.2338 -1.0883  0.6080
17583TIP3    H274165   4.649   4.941  11.429 -0.4393  1.3263 -1.7792
17584TIP3   OH274166   1.023   3.492  12.709 -0.0564  1.0015 -0.4270
17584TIP3    H174167   0.939   3.479  12.666 -0.4709  0.4839  0.5053
17584TIP3    H274168   1.032   3.588  12.716 -0.1876  1.0796 -1.2263
17585TIP3   OH274169   5.554   4.586  16.227  0.0140 -0.1523 -0.0127
17585TIP3    H174170   5.595   4.530  16.293  2.6997  1.2797 -0.3235
17585TIP3    H274171   5.626   4.639  16.192 -1.9131  1.5826 -1.6438
17586TIP3   OH274172   5.331   6.624   4.564 -0.5216 -0.0110 -0.3815
17586TIP3    H174173   5.353   6.709   4.526 -1.8200  0.4189 -0.2189
17586TIP3    H274174   5.316   6.643   4.657 -2.5615 -0.0677 -0.6693
17587TIP3   OH274175   6.493   2.440  16.023  0.5836  0.0770  0.1224
17587TIP3    H174176   6.489   2.437  15.928  0.5945  0.1771  0.1185
17587TIP3    H274177   6.453   2.357  16.051  1.9049 -0.6220  0.0015
17588TIP3   OH274178   3.233   6.444  11.036  0.1491 -0.1450 -0.4669
17588TIP3    H174179   3.213   6.350  11.033  1.2979 -0.3914 -1.8746
17588TIP3    H274180   3.164   6.485  10.984  1.0548 -0.5449 -2.0596
17589TIP3   OH274181   4.392   6.372   2.141 -0.5524  0.3207  0.2295
17589TIP3    H174182   4.420   6.446   2.194 -0.7688  0.1455  0.5959
17589TIP3    H274183   4.351   6.411   2.064  1.1918  0.5908 -0.6179
17590TIP3   OH274184   4.519   0.927  11.663  0.0069 -0.0152 -0.0199
17590TIP3    H174185   4.488   0.944  11.574  0.9330  3.3333  0.1574
17590TIP3    H274186   4.563   1.008  11.688  1.6866 -1.6475  2.7203
17591TIP3   OH274187   6.483   3.995   2.716 -0.1026 -0.1000 -0.4856
17591TIP3    H174188   6.573   3.978   2.743 -0.3182  0.1746  0.4664
17591TIP3    H274189   6.474   4.090   2.722 -0.6907 -0.1914  0.2505
17592TIP3   OH274190   4.329   0.773   5.149  0.2940 -0.0983  0.2085
17592TIP3    H174191   4.254   0.738   5.197 -0.3679  0.3516 -0.4640
17592TIP3    H274192   4.364   0.841   5.206  0.1952 -0.3136  0.5325
17593TIP3   OH274193   3.831   3.546  12.510 -0.2580  0.1153 -0.3958
17593TIP3    H174194   3.767   3.504  12.452 -0.0411 -0.2814 -0.3451
17593TIP3    H274195   3.793   3.536  12.597 -0.7402  0.9903 -0.4911
17594TIP3   OH274196   2.696   0.130   6.525  0.0362 -0.0356  0.1818
17594TIP3    H174197   2.723   0.220   6.510 -3.3376  0.7171 -2.2945
17594TIP3    H274198   2.755   0.078   6.469 -0.1587  0.9812 -1.0090
17595TIP3   OH274199   6.429   4.046  15.505 -0.6680 -0.2904 -0.5751
17595TIP3    H174200   6.339   4.071  15.525 -1.0269 -0.0352 -2.3242
17595TIP3    H274201   6.464   4.122  15.457  0.5659 -0.2838  0.3087
17596TIP3   OH274202   6.727   0.928  16.704 -0.7384  0.1612 -0.4106
17596TIP3    H174203   6.784   0.925  16.627 -0.3163 -1.3397 -0.0678
17596TIP3    H274204   6.786   0.922  16.778 -1.1088  2.0877  0.0748
17597TIP3   OH274205   3.204   6.395  16.459  0.0282 -0.1070 -0.2051
17597TIP3    H174206   3.296   6.412  16.476  0.3792 -0.8717 -1.2810
17597TIP3    H274207   3.192   6.414  16.366 -0.9006 -0.0296 -0.0847
17598TIP3   OH274208   5.537   2.287   2.751 -0.1161 -0.0781  0.4645
17598TIP3    H174209   5.501   2.262   2.836 -0.1165 -0.2939  0.4012
17598TIP3    H274210   5.534   2.207   2.699 -1.0136  0.2858 -0.0555
17599TIP3   OH274211   3.290   1.568   2.669 -0.3084 -0.2136 -0.5224
17599TIP3    H174212   3.351   1.507   2.628 -1.5713 -0.5855 -1.9272
17599TIP3    H274213   3.207   1.520   2.674 -1.4759  1.4665 -2.0911
17600TIP3   OH274214   4.350   0.757   4.432 -0.3823  0.4576  0.2614
17600TIP3    H174215   4.373   0.739   4.523 -0.6684 -2.7731 -0.1990
17600TIP3    H274216   4.432   0.787   4.392  0.0135  0.8358  1.3136
17601TIP3   OH274217   2.808   2.600   2.330  0.0675 -0.2406 -0.3126
17601TIP3    H174218   2.872   2.531   2.350 -0.3581 -0.7579 -0.7362
17601TIP3    H274219   2.848   2.649   2.258  0.1320 -0.3643 -0.3611
17602TIP3   OH274220   6.208   3.900   0.190 -0.4284 -0.3150 -0.4046
17602TIP3    H174221   6.249   3.855   0.116 -1.0131  2.0971 -2.3222
17602TIP3    H274222   6.277   3.905   0.256  0.4867 -1.4862 -1.2293
17603TIP3   OH274223   5.585   0.573  12.389  0.8815  0.7311 -0.2412
17603TIP3    H174224   5.637   0.522  12.451  1.0172  0.7174 -0.3665
17603TIP3    H274225   5.496   0.540  12.400  1.0009  0.3368 -0.4552
17604TIP3   OH274226   6.513   4.658   2.038 -0.2817 -0.4595 -0.6231
17604TIP3    H174227   6.564   4.578   2.050  1.3209  0.4587 -1.0913
17604TIP3    H274228   6.462   4.643   1.959  0.0160 -1.0169 -0.7089
17605TIP3   OH274229   4.136   5.222   1.618 -0.1870  0.2284 -0.3822
17605TIP3    H174230   4.114   5.162   1.547 -0.6970  0.5930 -0.5420
17605TIP3    H274231   4.230   5.211   1.631 -0.1589 -0.1180 -0.8574
17606TIP3   OH274232   1.824   5.881  14.108  0.0881 -0.6928 -0.5034
17606TIP3    H174233   1.862   5.825  14.176  1.7096  0.1990 -0.6107
17606TIP3    H274234   1.873   5.859  14.029 -0.7473 -0.6501 -1.0356
17607TIP3   OH274235   1.731   3.256  12.827 -0.8940  0.3351 -0.2739
17607TIP3    H174236   1.706   3.304  12.748  2.8646  1.1340 -1.1461
17607TIP3    H274237   1.732   3.322  12.896  3.1949  1.5565 -1.2522
17608TIP3   OH274238   3.299   1.001   3.617  0.0387 -0.1061  0.0964
17608TIP3    H174239   3.246   0.922   3.603 -0.1930  0.1535 -0.5223
17608TIP3    H274240   3.374   0.971   3.668  0.1644 -0.8092 -0.4797
17609TIP3   OH274241   0.773   0.577   0.072 -0.4301 -0.1233 -0.2267
17609TIP3    H174242   0.841   0.636   0.104  2.0275 -2.4818 -0.7633
17609TIP3    H274243   0.735   0.539   0.152  0.8485 -0.8344  0.0680
17610TIP3   OH274244   0.459   2.691   1.930  0.1710  0.3639 -0.2140
17610TIP3    H174245   0.463   2.718   2.022  2.7626 -0.3907 -0.0150
17610TIP3    H274246   0.551   2.680   1.905 -0.3862  1.9407 -3.3468
17611TIP3   OH274247   2.060   5.161  11.716  0.2398  0.0257 -0.0386
17611TIP3    H174248   2.109   5.131  11.639 -1.2748  2.1497 -1.9909
17611TIP3    H274249   2.119   5.223  11.759  0.8340 -0.6481  0.1442
17612TIP3   OH274250   0.563   4.444  15.666  0.4735 -0.3078 -0.3445
17612TIP3    H174251   0.574   4.362  15.714 -1.2466  0.4381  1.4334
17612TIP3    H274252   0.651   4.464  15.633  1.3735 -1.7275  1.0672
17613TIP3   OH274253   3.855   6.222   1.274  0.3789  0.1464 -0.1542
17613TIP3    H174254   3.857   6.174   1.357  1.8327  1.3605  0.5627
17613TIP3    H274255   3.798   6.297   1.291 -0.9411 -0.6493 -0.9087
17614TIP3   OH274256   3.030   0.923   1.019 -0.2646 -0.2634  0.4398
17614TIP3    H174257   3.124   0.912   1.033 -0.0553  1.0786  0.2271
17614TIP3    H274258   3.013   0.884   0.934  0.1572 -0.2665  0.3580
17615TIP3   OH274259   6.576   2.329   3.399 -0.4155 -0.3951  0.1598
17615TIP3    H174260   6.485   2.309   3.420 -1.0702  1.7156 -0.4066
17615TIP3    H274261   6.591   2.287   3.314 -1.2733  0.2206 -0.3171
17616TIP3   OH274262   4.511   1.575   4.158  0.2266 -0.1948  0.5150
17616TIP3    H174263   4.572   1.521   4.208 -0.1914 -0.4045  0.8029
17616TIP3    H274264   4.494   1.525   4.078  1.7144  0.6141 -0.3542
17617TIP3   OH274265   3.367   5.160   2.884  0.3533 -0.1897 -0.0198
17617TIP3    H174266   3.326   5.075   2.899  2.1559 -0.9081  1.1995
17617TIP3    H274267   3.390   5.191   2.972  0.4118  1.2053 -0.5095
17618TIP3   OH274268   0.309   0.611  15.838  0.0058 -0.1203 -0.0195
17618TIP3    H174269   0.401   0.637  15.834  0.1901 -0.7972 -0.3197
17618TIP3    H274270   0.295   0.583  15.928 -0.4049  1.7018  0.5419
17619TIP3   OH274271   2.762   2.290   4.734 -0.1871  0.1409  0.5994
17619TIP3    H174272   2.851   2.325   4.721 -0.6958  1.9961  1.7040
17619TIP3    H274273   2.712   2.322   4.659 -0.5511  1.5364  1.3970
17620TIP3   OH274274   3.444   3.412  10.531  0.0677 -0.1928 -0.4756
17620TIP3    H174275   3.465   3.503  10.509 -3.9710  0.7886 -1.2126
17620TIP3    H274276   3.400   3.378  10.453  0.4384 -2.4188  0.2225
17621TIP3   OH274277   0.018   4.641  15.067  0.0649 -0.4794 -0.6431
17621TIP3    H174278   0.018   4.616  15.160 -0.9840  2.2373  0.1812
17621TIP3    H274279   0.093   4.595  15.030  1.2127 -0.7484  1.8200
17622TIP3   OH274280   3.811   6.332  12.703 -0.3831 -0.1396  0.0280
17622TIP3    H174281   3.805   6.257  12.762  0.2473 -1.9758 -2.0691
17622TIP3    H274282   3.888   6.380  12.733 -0.9665 -0.1600  1.5945
17623TIP3   OH274283   0.627   2.183  12.570 -0.0505  0.3192 -0.0965
17623TIP3    H174284   0.557   2.245  12.588  0.4282  1.3519 -1.5961
17623TIP3    H274285   0.704   2.237  12.555  0.4983 -0.6560 -0.9009
17624TIP3   OH274286   4.396   6.090  14.682  0.2464 -0.1227  0.2348
17624TIP3    H174287   4.483   6.122  14.659  0.4657 -0.1959  0.9226
17624TIP3    H274288   4.396   5.998  14.653 -0.3976  0.4487 -1.7680
17625TIP3   OH274289   0.853   6.338  12.841 -0.3749 -0.4596  0.1522
17625TIP3    H174290   0.810   6.257  12.815 -0.3713 -0.5281  0.3597
17625TIP3    H274291   0.916   6.312  12.908 -0.2860 -0.3042  0.1294
17626TIP3   OH274292   1.517   1.992   5.138 -0.2602 -0.5697  0.4206
17626TIP3    H174293   1.605   2.023   5.114 -0.1108 -1.7432 -0.6512
17626TIP3    H274294   1.460   2.031   5.072 -0.2507 -1.4352 -0.1169
17627TIP3   OH274295   2.404   0.144   3.637  0.3059 -0.3927  0.2078
17627TIP3    H174296   2.452   0.083   3.693  0.5546 -0.1426  0.2629
17627TIP3    H274297   2.450   0.142   3.554  0.5607  0.0341  0.3363
17628TIP3   OH274298   0.463   4.628   3.015 -0.1114 -0.5639  0.3061
17628TIP3    H174299   0.432   4.619   2.924  1.6779 -1.2552 -0.2862
17628TIP3    H274300   0.555   4.601   3.011  0.1699  0.0039  2.2274
17629TIP3   OH274301   1.621   5.870  11.823 -0.2288 -0.1268  0.5603
17629TIP3    H174302   1.593   5.953  11.786  0.7653  0.6468  1.4925
17629TIP3    H274303   1.546   5.811  11.811 -1.3555  1.2030  0.8962
17630TIP3   OH274304   5.542   2.963   4.404 -0.0348  0.2350 -1.1133
17630TIP3    H174305   5.493   2.884   4.425 -0.8159  0.6233 -1.4398
17630TIP3    H274306   5.632   2.943   4.429 -0.4772 -0.2432  0.1746
17631TIP3   OH274307   1.747   2.087  15.036  0.8762 -0.2761 -0.4466
17631TIP3    H174308   1.666   2.081  14.985 -0.8511 -1.6661  2.2655
17631TIP3    H274309   1.757   2.180  15.054  0.5787  0.0391 -1.7899
17632TIP3   OH274310   2.506   2.301   2.668  0.2252  0.2265 -0.5832
17632TIP3    H174311   2.538   2.253   2.745 -0.4492  0.7790  0.0606
17632TIP3    H274312   2.433   2.248   2.635  0.0432  0.3595 -0.3973
17633TIP3   OH274313   2.863   5.027   6.008 -0.0227  0.7307  0.4610
17633TIP3    H174314   2.898   4.961   5.949 -0.1506  2.6992 -2.0189
17633TIP3    H274315   2.768   5.022   5.995 -0.2317 -0.1455  2.0986
17634TIP3   OH274316   1.042   6.618  13.404 -0.3590 -0.5335  0.1915
17634TIP3    H174317   1.026   6.688  13.341 -0.5133 -1.0787 -0.3818
17634TIP3    H274318   0.954   6.589  13.430 -0.3154  0.3396  1.4104
17635TIP3   OH274319   0.476   5.826  15.858  0.7185  0.0937 -0.0944
17635TIP3    H174320   0.434   5.892  15.803  3.1955  0.3388 -1.8394
17635TIP3    H274321   0.481   5.866  15.945  3.1841  2.7979 -1.3451
17636TIP3   OH274322   2.554   5.691   1.121  0.0366 -0.1499 -0.6470
17636TIP3    H174323   2.559   5.770   1.067 -1.1512  0.7889  0.5499
17636TIP3    H274324   2.586   5.719   1.207 -0.5879 -0.9127 -0.1525
17637TIP3   OH274325   2.879   4.733  13.229 -0.1402  0.3756 -0.2015
17637TIP3    H174326   2.949   4.778  13.181  2.0408 -4.3664 -2.1199
17637TIP3    H274327   2.814   4.712  13.162  0.9474 -2.7148 -0.4549
17638TIP3   OH274328   5.697   0.841  12.779  0.2558 -1.1063 -0.1141
17638TIP3    H174329   5.726   0.826  12.689 -3.3588  0.0826 -1.6734
17638TIP3    H274330   5.727   0.764  12.827  2.1753 -1.8683 -2.3203
17639TIP3   OH274331   0.467   0.389   3.392 -0.4057 -0.1714  0.0839
17639TIP3    H174332   0.420   0.427   3.467 -0.7897  1.2731 -0.8508
17639TIP3    H274333   0.448   0.448   3.319  0.8948 -0.9079 -0.8931
17640TIP3   OH274334   3.623   0.192   5.345  0.8169 -0.1729 -0.3171
17640TIP3    H174335   3.709   0.214   5.309  0.9082 -0.1630 -0.0894
17640TIP3    H274336   3.636   0.187   5.439  1.1062 -2.4823 -0.4232
17641TIP3   OH274337   0.216   3.261   0.101 -0.2164 -0.2400 -0.1266
17641TIP3    H174338   0.126   3.260   0.133 -0.0217  0.7290  0.5045
17641TIP3    H274339   0.227   3.177   0.056 -0.5706 -1.6355  2.2076
17642TIP3   OH274340   0.472   2.167   3.338  0.2985 -0.6821  0.3154
17642TIP3    H174341   0.470   2.252   3.382  1.0624 -0.2676 -0.4071
17642TIP3    H274342   0.549   2.123   3.374 -0.9018 -1.6814  1.7418
17643TIP3   OH274343   4.216   0.789  12.248 -0.2622 -0.7438  0.0027
17643TIP3    H174344   4.145   0.726  12.265 -1.9471  0.8548 -0.7371
17643TIP3    H274345   4.262   0.795  12.331 -1.9841 -0.6752  1.0030
17644TIP3   OH274346   4.249   1.484   1.376  0.1213 -0.7644 -0.4270
17644TIP3    H174347   4.332   1.492   1.424 -0.0352  2.1787 -0.4926
17644TIP3    H274348   4.273   1.503   1.285 -0.4845 -0.8456 -0.6068
17645TIP3   OH274349   2.014   6.060  16.599 -0.4826 -0.3270 -0.3501
17645TIP3    H174350   2.079   6.130  16.600 -0.6467 -0.1272 -1.7027
17645TIP3    H274351   1.930   6.106  16.595 -0.7134 -0.5910  0.8497
17646TIP3   OH274352   0.307   0.181  12.742 -0.3733  0.3976 -0.4150
17646TIP3    H174353   0.256   0.134  12.675  0.7898 -0.5470 -0.6666
17646TIP3    H274354   0.251   0.180  12.820 -1.3129  0.6141 -1.0629
17647TIP3   OH274355   6.767   2.033   4.087  0.1139  0.7829  0.1231
17647TIP3    H174356   6.703   1.976   4.045  1.1382  0.9270 -1.7238
17647TIP3    H274357   6.734   2.122   4.072  0.7780  0.8652 -0.9607
17648TIP3   OH274358   3.224   0.837   5.749 -0.5820 -0.0703  0.5134
17648TIP3    H174359   3.272   0.887   5.683 -0.1701  1.0458  1.6140
17648TIP3    H274360   3.138   0.881   5.753 -0.0337  0.9574  1.8686
17649TIP3   OH274361   2.459   2.996  13.707  0.0084  0.5928  0.1724
17649TIP3    H174362   2.407   3.063  13.663 -0.5502  0.5343  0.7266
17649TIP3    H274363   2.394   2.936  13.744  0.4930 -0.2769 -0.3410
17650TIP3   OH274364   5.425   2.721   4.458  0.7946 -0.1819  0.1375
17650TIP3    H174365   5.337   2.723   4.495  0.0832  0.0025 -1.5164
17650TIP3    H274366   5.473   2.660   4.515 -0.9504 -1.9024 -0.1284
17651TIP3   OH274367   4.935   5.055  12.684 -0.1430 -0.0176  0.1146
17651TIP3    H174368   5.009   5.094  12.730 -0.1446  1.1114 -0.7929
17651TIP3    H274369   4.941   5.090  12.595 -1.5381 -0.2254 -0.0821
17652TIP3   OH274370   4.813   1.040  15.447 -0.3440  0.3019 -0.1845
17652TIP3    H174371   4.821   1.124  15.491  0.3041 -0.4111  1.1128
17652TIP3    H274372   4.823   0.975  15.516 -0.6184 -0.8525 -1.1867
17653TIP3   OH274373   1.843   0.287   0.393  0.1342 -0.4781 -0.1487
17653TIP3    H174374   1.840   0.207   0.341  0.1755 -0.3187 -0.3981
17653TIP3    H274375   1.929   0.286   0.435  0.3084 -0.3512 -0.4953
17654TIP3   OH274376   6.391   5.986  12.187  0.8047 -0.1621  0.1884
17654TIP3    H174377   6.295   5.985  12.189  0.7737 -0.6547 -0.9925
17654TIP3    H274378   6.415   5.913  12.131  1.6902  3.2285 -4.4198
17655TIP3   OH274379   3.891   0.210   5.291  0.3466 -0.0975 -0.4665
17655TIP3    H174380   3.968   0.255   5.257  0.2087  0.1186 -0.4916
17655TIP3    H274381   3.927   0.133   5.337  0.6448  0.4588  0.2594
17656TIP3   OH274382   5.824   5.192   3.093 -0.0098  0.6721 -0.2161
17656TIP3    H174383   5.869   5.125   3.145 -0.8268  0.5676  0.3813
17656TIP3    H274384   5.731   5.167   3.097 -0.3828  2.0286  0.3282
17657TIP3   OH274385   5.039   5.212  15.107  0.5082 -0.0700 -0.2162
17657TIP3    H174386   5.067   5.176  15.192 -1.0444 -1.5802 -0.2873
17657TIP3    H274387   5.003   5.298  15.129  0.5828 -0.2298  0.5933
17658TIP3   OH274388   2.725   0.289   3.976  0.3016 -0.0565 -0.4641
17658TIP3    H174389   2.680   0.300   3.893  0.1627  1.6073 -0.2133
17658TIP3    H274390   2.757   0.199   3.975 -0.5672 -0.3749 -1.8675
17659TIP3   OH274391   2.997   5.905   0.644  0.3353  0.8187  0.0681
17659TIP3    H174392   2.976   5.872   0.731  2.3012  1.6527  0.9174
17659TIP3    H274393   3.092   5.914   0.643  0.4061  0.6031 -2.2719
17660TIP3   OH274394   4.353   1.841   2.100  0.1012  0.0090  0.0453
17660TIP3    H174395   4.433   1.841   2.048 -0.1963  0.4700 -0.4247
17660TIP3    H274396   4.365   1.912   2.163  0.9532 -1.2843  1.4126
17661TIP3   OH274397   4.660   6.117   0.065 -0.5753 -0.2517 -0.1074
17661TIP3    H174398   4.655   6.193   0.123  0.4896  0.9746 -1.5166
17661TIP3    H274399   4.704   6.050   0.116 -0.0839  0.6352  0.6673
17662TIP3   OH274400   6.065   3.178  11.990 -0.3602  0.2487 -0.0371
17662TIP3    H174401   6.030   3.153  12.075  0.5680  2.2942  1.0208
17662TIP3    H274402   5.999   3.235  11.951 -0.6652 -0.4662 -0.5882
17663TIP3   OH274403   5.997   1.373   5.443  0.7589  0.2187  0.1725
17663TIP3    H174404   6.067   1.438   5.448  1.0452  0.0094 -0.7485
17663TIP3    H274405   5.980   1.348   5.533  1.3617  0.8112  0.4604
17664TIP3   OH274406   4.573   2.730   4.481 -0.7734  0.2692 -0.1841
17664TIP3    H174407   4.544   2.652   4.527  0.7355 -0.5797 -0.6311
17664TIP3    H274408   4.668   2.728   4.485 -0.4749 -0.2608 -3.8912
17665TIP3   OH274409   2.430   1.803   3.299 -0.6189 -0.7033 -0.1131
17665TIP3    H174410   2.395   1.748   3.229 -2.6840 -1.3193  1.3000
17665TIP3    H274411   2.426   1.747   3.377  0.8607  0.2251  0.6677
17666TIP3   OH274412   2.491   4.947  16.622 -0.3402  0.3011 -0.3988
17666TIP3    H174413   2.579   4.912  16.635 -0.0467  0.7513 -1.1443
17666TIP3    H274414   2.443   4.920  16.700  0.2542 -0.5820 -0.3241
17667TIP3   OH274415   3.360   2.966   3.942  0.3368  0.3297 -0.1639
17667TIP3    H174416   3.295   2.897   3.956 -0.0112  0.6070 -0.3920
17667TIP3    H274417   3.406   2.939   3.863 -0.0642  0.5583 -0.4768
17668TIP3   OH274418   2.066   4.297  14.367 -0.2094  0.2502  0.4495
17668TIP3    H174419   2.083   4.388  14.388 -0.2224  0.7344 -1.4693
17668TIP3    H274420   1.978   4.297  14.329 -0.3012 -0.5958  0.6457
17669TIP3   OH274421   0.185   1.922  13.506 -0.8784  0.3067  0.1740
17669TIP3    H174422   0.116   1.882  13.559 -0.1430 -0.1231  0.8436
17669TIP3    H274423   0.251   1.948  13.570  1.4804 -2.9875 -0.6460
17670TIP3   OH274424   2.976   0.319   3.183  0.2508 -0.5892 -0.6741
17670TIP3    H174425   3.036   0.390   3.205 -0.1421 -0.2625 -0.6380
17670TIP3    H274426   3.033   0.246   3.158  0.6904 -0.6687  0.4903
17671TIP3   OH274427   3.343   5.416  15.512  0.5067  0.2371 -0.5417
17671TIP3    H174428   3.277   5.393  15.578  0.4450  2.2659  0.1655
17671TIP3    H274429   3.426   5.393  15.552  0.5013  1.8220  0.4868
17672TIP3   OH274430   1.732   6.080   4.937  0.2897  0.2948 -0.2363
17672TIP3    H174431   1.811   6.076   4.883 -0.2039 -1.4824 -0.8994
17672TIP3    H274432   1.707   6.173   4.936  1.6986  0.6928 -0.9820
17673TIP3   OH274433   6.125   3.461  17.233  0.1558  0.3336 -0.0706
17673TIP3    H174434   6.049   3.498  17.187 -0.0299  1.8391  1.3654
17673TIP3    H274435   6.109   3.367  17.233 -0.6255  0.4298 -1.6630
17674TIP3   OH274436   3.620   5.787  10.455 -0.4108 -0.0115 -0.1199
17674TIP3    H174437   3.663   5.802  10.539  1.6389  0.0351 -1.1172
17674TIP3    H274438   3.573   5.704  10.466  0.8427 -0.6316  0.6905
17675TIP3   OH274439   2.962   1.929   6.037  0.1553  0.5402  0.1722
17675TIP3    H174440   3.022   1.990   5.994  1.0647 -0.0776  0.5223
17675TIP3    H274441   2.942   1.970   6.121 -0.0249  0.8123 -0.0029
17676TIP3   OH274442   1.001   4.422  16.369  0.1908  0.4232 -0.1815
17676TIP3    H174443   0.939   4.364  16.413  0.3006  1.2992  1.2100
17676TIP3    H274444   0.953   4.460  16.296  0.0210 -1.1387 -0.9188
17677TIP3   OH274445   5.541   4.642  11.781  0.3640  0.3494 -0.0347
17677TIP3    H174446   5.534   4.587  11.702  0.7533  1.0625 -0.5800
17677TIP3    H274447   5.463   4.622  11.832  0.1561 -0.1944 -0.5602
17678TIP3   OH274448   6.524   3.970  16.123 -0.5968 -0.2146 -0.3781
17678TIP3    H174449   6.478   3.920  16.190  1.4649 -1.7612 -0.0390
17678TIP3    H274450   6.476   3.951  16.042 -0.1941 -2.4014 -0.1723
17679TIP3   OH274451   2.104   2.235  12.579  1.1082  0.4859 -0.7256
17679TIP3    H174452   2.083   2.254  12.671 -0.0908 -0.3627 -0.8084
17679TIP3    H274453   2.090   2.318  12.534 -0.1096  0.4610 -0.4319
17680TIP3   OH274454   5.470   0.498  16.099 -0.7016  0.0384 -0.2143
17680TIP3    H174455   5.425   0.433  16.153  0.3402 -0.2007  0.3949
17680TIP3    H274456   5.499   0.565  16.160  1.7482 -0.9348 -0.1640
17681TIP3   OH274457   5.027   2.162  11.210  0.4872  0.2715 -0.0091
17681TIP3    H174458   4.976   2.088  11.243  0.4465 -1.6246 -3.8178
17681TIP3    H274459   5.096   2.175  11.275 -0.3267 -2.1992  1.4628
17682TIP3   OH274460   4.901   5.360   0.590  0.5383  0.0032 -0.0233
17682TIP3    H174461   4.911   5.438   0.646  1.3119 -0.2827  0.2553
17682TIP3    H274462   4.809   5.336   0.599  0.1422  1.2234 -0.5696
17683TIP3   OH274463   2.909   0.723  13.748  0.2122 -0.0074 -0.2165
17683TIP3    H174464   2.896   0.719  13.654  0.0730  1.9565 -0.3148
17683TIP3    H274465   2.885   0.812  13.773 -0.1217 -0.5878  1.7441
17684TIP3   OH274466   6.189   2.587   5.192  0.2994 -0.6230 -0.2105
17684TIP3    H174467   6.176   2.648   5.120  0.4852 -0.4740 -0.1189
17684TIP3    H274468   6.104   2.580   5.234  0.0051 -1.2888 -0.9016
17685TIP3   OH274469   2.086   3.107  16.872 -0.2233  0.0273 -0.1253
17685TIP3    H174470   2.105   3.198  16.893  1.7518 -0.4198  0.2571
17685TIP3    H274471   2.153   3.082  16.808 -0.7391 -1.1649 -0.2441
17686TIP3   OH274472   1.641   5.808   3.260  0.1667 -0.3932  0.4349
17686TIP3    H174473   1.613   5.858   3.336 -2.0778  0.3654 -0.7947
17686TIP3    H274474   1.652   5.718   3.292  2.6160  0.4588  2.2994
17687TIP3   OH274475   0.269   5.806  16.756 -0.5425 -0.0132  0.1034
17687TIP3    H174476   0.178   5.804  16.725 -0.4645  1.3563 -0.3033
17687TIP3    H274477   0.275   5.735  16.819 -1.9186 -0.0971  0.1646
17688TIP3   OH274478   6.644   0.881  17.282 -0.1884  0.3297  0.0099
17688TIP3    H174479   6.695   0.911  17.207  0.3030 -0.0063  0.1993
17688TIP3    H274480   6.643   0.786  17.274 -0.4974  0.3154  0.1968
17689TIP3   OH274481   1.600   1.051   1.567 -0.1657 -0.0346 -0.1811
17689TIP3    H174482   1.622   1.004   1.648 -2.6069 -1.7366 -0.3835
17689TIP3    H274483   1.673   1.032   1.507  1.0178  0.1343  1.1492
17690TIP3   OH274484   2.317   5.649   2.857 -0.2103  0.4249 -0.8426
17690TIP3    H174485   2.229   5.613   2.860 -0.3541  0.8070  0.8610
17690TIP3    H274486   2.373   5.574   2.836 -0.7796 -0.2053 -0.1907
17691TIP3   OH274487   5.634   2.574  14.171 -0.2858 -0.0709  0.0368
17691TIP3    H174488   5.607   2.659  14.139 -0.8300 -0.0937  0.4215
17691TIP3    H274489   5.643   2.520  14.093  0.2999  0.4063 -0.2264
17692TIP3   OH274490   5.108   1.969  11.862  0.0051 -0.2230 -0.3299
17692TIP3    H174491   5.168   1.957  11.788 -0.2795  0.1428 -0.6231
17692TIP3    H274492   5.147   1.918  11.932 -0.1285 -1.2180 -0.9546
17693TIP3   OH274493   4.063   0.902   5.627  0.0559  0.3297  0.1246
17693TIP3    H174494   4.063   0.824   5.683  0.4740  0.0987 -0.1851
17693TIP3    H274495   4.097   0.972   5.683  1.5750 -0.1466 -0.1407
17694TIP3   OH274496   4.001   1.527  13.733  0.3902 -0.6229  0.2036
17694TIP3    H174497   3.990   1.513  13.639 -0.8954  1.0360  0.0533
17694TIP3    H274498   3.916   1.560  13.762  1.3432  0.7563  1.5688
17695TIP3   OH274499   3.762   0.999   0.439 -1.1179 -0.2102  0.2642
17695TIP3    H174500   3.672   1.032   0.428 -0.9803  0.7070  1.5927
17695TIP3    H274501   3.816   1.060   0.389 -0.9962  0.9130  1.6815
17696TIP3   OH274502   2.489   2.236   6.876 -0.1244 -0.0539  0.3756
17696TIP3    H174503   2.492   2.143   6.897 -0.8363  0.2126  1.7307
17696TIP3    H274504   2.576   2.269   6.900 -0.8118  0.1783  2.7008
17697TIP3   OH274505   2.726   6.598  15.863  0.0018  0.3467 -0.3847
17697TIP3    H174506   2.661   6.531  15.881 -0.6026  0.8869 -0.5404
17697TIP3    H274507   2.774   6.565  15.787 -1.0516  0.6202 -1.1825
17698TIP3   OH274508   0.241   5.275  13.754 -0.2916  0.0966  0.1494
17698TIP3    H174509   0.333   5.298  13.765  0.7460 -3.6128  0.7553
17698TIP3    H274510   0.196   5.323  13.823  1.4951  0.6217  1.0172
17699TIP3   OH274511   6.706   0.635  14.343  0.3246 -0.1977 -0.1430
17699TIP3    H174512   6.756   0.666  14.268  2.3644 -1.9606  0.4150
17699TIP3    H274513   6.758   0.660  14.419 -0.3446 -0.8594  0.5473
17700TIP3   OH274514   5.972   6.374   5.344  0.4255 -0.0338  0.0091
17700TIP3    H174515   5.911   6.382   5.272  1.2013  0.3934 -0.6183
17700TIP3    H274516   6.057   6.361   5.302  0.7632 -0.6887  0.8562
17701TIP3   OH274517   3.224   2.227   1.854  1.0687 -0.5652 -0.3110
17701TIP3    H174518   3.178   2.306   1.882  0.2219 -1.3193  0.4888
17701TIP3    H274519   3.279   2.256   1.782  0.1472  0.5862 -0.5844
17702TIP3   OH274520   6.471   2.130  12.252  1.0389  0.5042 -0.2548
17702TIP3    H174521   6.476   2.143  12.158  3.5775  0.0096 -0.2561
17702TIP3    H274522   6.551   2.081  12.274 -0.5954 -1.4720  1.8314
17703TIP3   OH274523   4.444   4.710  14.592  0.0825 -0.9320 -0.0277
17703TIP3    H174524   4.522   4.729  14.540  1.1607 -1.5607  1.2974
17703TIP3    H274525   4.380   4.775  14.563  1.3168  0.0535 -0.6625
17704TIP3   OH274526   4.042   1.532   3.361  0.0291  0.2293 -0.0033
17704TIP3    H174527   4.090   1.506   3.440  1.4593  1.7780 -0.3087
17704TIP3    H274528   3.950   1.529   3.388  0.4601  0.3898  1.6352
17705TIP3   OH274529   2.749   2.134   1.097  0.2053  0.8696 -0.0049
17705TIP3    H174530   2.723   2.047   1.067 -2.0514  1.4920 -0.0677
17705TIP3    H274531   2.816   2.118   1.164  0.5727 -0.8334 -0.7212
17706TIP3   OH274532   0.087   0.143   5.133  0.2951 -0.2807 -0.9581
17706TIP3    H174533   0.099   0.122   5.225 -0.0231  0.2970 -0.7759
17706TIP3    H274534   0.028   0.076   5.100 -0.1993 -0.0490 -0.5510
17707TIP3   OH274535   0.102   2.260   3.781  0.8292  0.0985 -1.1554
17707TIP3    H174536   0.192   2.249   3.813  1.0083 -0.9643 -1.9539
17707TIP3    H274537   0.112   2.276   3.687  0.2199  0.9849 -1.0806
17708TIP3   OH274538   0.272   4.761  11.364  0.0470  0.0529 -0.0373
17708TIP3    H174539   0.284   4.771  11.269  0.0782 -1.6084 -0.2476
17708TIP3    H274540   0.198   4.701  11.372  0.6547 -0.5969  0.9571
17709TIP3   OH274541   2.639   4.208   2.507 -0.4964  0.3864 -0.2972
17709TIP3    H174542   2.699   4.275   2.539 -0.4776  0.6804 -0.9449
17709TIP3    H274543   2.562   4.217   2.563 -0.7179  1.3274 -0.7472
17710TIP3   OH274544   4.629   1.113   3.998  0.0052 -0.8385 -0.4984
17710TIP3    H174545   4.656   1.092   4.087 -1.1013 -0.4043 -0.0352
17710TIP3    H274546   4.700   1.082   3.942  0.8834 -0.7763  0.5669
17711TIP3   OH274547   5.356   1.667  11.619 -0.4911  0.0222 -0.0244
17711TIP3    H174548   5.274   1.623  11.598  0.1837 -0.6322 -1.3941
17711TIP3    H274549   5.398   1.611  11.685  1.3609 -2.7962 -3.2328
17712TIP3   OH274550   1.919   3.743   0.410 -0.7088 -0.1264 -0.8071
17712TIP3    H174551   1.951   3.662   0.449  0.8846 -0.6437 -3.0123
17712TIP3    H274552   1.883   3.793   0.483 -1.1351 -2.5255  0.7042
17713TIP3   OH274553   1.247   1.836  11.541  0.5918 -0.9361 -0.0981
17713TIP3    H174554   1.227   1.756  11.590 -2.2433 -0.4742 -0.3140
17713TIP3    H274555   1.171   1.847  11.483  0.3673  2.4602  0.6688
17714TIP3   OH274556   4.992   6.167  14.659 -0.5316 -1.0074  0.1995
17714TIP3    H174557   5.044   6.095  14.695  3.1399  0.3195 -1.9415
17714TIP3    H274558   4.990   6.233  14.729 -0.8061 -1.7165  0.8794
17715TIP3   OH274559   3.069   2.350   5.327 -0.1398  0.0297  0.3293
17715TIP3    H174560   3.079   2.401   5.246  0.7446  0.2862  0.5883
17715TIP3    H274561   3.088   2.260   5.300 -0.6486 -0.0129  0.0922
17716TIP3   OH274562   1.874   3.133  12.593  0.0041  0.5793  0.7219
17716TIP3    H174563   1.871   3.041  12.566 -0.0936  0.7217  0.2346
17716TIP3    H274564   1.833   3.134  12.679  0.5756  0.0701  1.0088
17717TIP3   OH274565   1.821   6.214  15.551 -0.0856  0.3013  0.0860
17717TIP3    H174566   1.813   6.305  15.580  1.3407  0.2163  0.8771
17717TIP3    H274567   1.750   6.202  15.488 -0.1984  2.0194 -0.1737
17718TIP3   OH274568   5.296   0.597   4.068  0.0050 -0.0519 -0.1914
17718TIP3    H174569   5.254   0.649   4.001  0.4747 -1.5560 -1.7237
17718TIP3    H274570   5.236   0.523   4.082  0.7848 -0.7336 -0.3532
17719TIP3   OH274571   6.168   0.658  13.652  0.0744 -0.3349 -0.3652
17719TIP3    H174572   6.229   0.583  13.656  1.4400  0.7944  1.3681
17719TIP3    H274573   6.220   0.728  13.614 -0.3379  0.4772  0.5378
17720TIP3   OH274574   2.709   2.391   4.468 -0.1234 -0.8372 -0.0669
17720TIP3    H174575   2.658   2.445   4.408  0.5321  1.0876  1.0204
17720TIP3    H274576   2.792   2.375   4.422 -0.0974 -0.4238 -0.1644
17721TIP3   OH274577   5.740   5.872  17.053  0.1840  0.1757  0.1806
17721TIP3    H174578   5.814   5.896  16.997 -0.0613 -1.2941 -0.8447
17721TIP3    H274579   5.690   5.953  17.064  0.0065  0.4382 -2.1285
17722TIP3   OH274580   5.323   6.487  13.055  0.0529 -0.4359  0.0045
17722TIP3    H174581   5.367   6.476  12.971  1.5999  1.6078  0.4627
17722TIP3    H274582   5.242   6.534  13.034 -0.1616 -1.0035 -0.4567
17723TIP3   OH274583   2.969   1.634  17.123  0.3395 -0.1073 -0.3958
17723TIP3    H174584   2.972   1.539  17.112 -2.8024 -0.7081  2.2803
17723TIP3    H274585   3.036   1.653  17.187  0.7917 -0.5645 -0.7242
17724TIP3   OH274586   6.131   5.263   5.487  0.2877 -0.4510 -0.5742
17724TIP3    H174587   6.035   5.259   5.485  0.2580 -0.0239 -0.0814
17724TIP3    H274588   6.157   5.186   5.537  0.1008  0.6024  1.2023
17725TIP3   OH274589   0.709   3.426  15.509 -0.0096  0.6054 -0.2751
17725TIP3    H174590   0.780   3.369  15.479  0.3963  1.6376 -1.3562
17725TIP3    H274591   0.643   3.366  15.544  1.1141 -0.4089  0.1522
17726TIP3   OH274592   2.641   2.676   4.044  0.0335  0.0503 -0.8041
17726TIP3    H174593   2.625   2.662   3.951  0.6139  0.6914 -1.0054
17726TIP3    H274594   2.698   2.753   4.048 -0.5315  0.4429  0.1129
17727TIP3   OH274595   3.810   0.244   5.003  0.8795  0.2327  0.1018
17727TIP3    H174596   3.824   0.198   5.086 -0.9501 -1.7029 -0.5827
17727TIP3    H274597   3.763   0.324   5.028  0.2043 -0.4020  0.9448
17728TIP3   OH274598   1.149   5.193  16.466  0.5294 -0.5233  0.0797
17728TIP3    H174599   1.214   5.252  16.428 -0.0286 -0.3757 -0.6607
17728TIP3    H274600   1.161   5.203  16.561  0.9693  0.1875 -0.0420
17729TIP3   OH274601   5.382   0.995   3.047  0.2016  0.4461  0.2055
17729TIP3    H174602   5.295   1.029   3.025 -1.5426 -3.3107  0.4790
17729TIP3    H274603   5.411   1.049   3.120 -1.1021  2.8121 -0.8889
17730TIP3   OH274604   0.504   0.006   5.730 -0.3123 -0.4676  0.6973
17730TIP3    H174605   0.591  -0.034   5.722  0.1450  0.4285  0.9396
17730TIP3    H274606   0.455  -0.027   5.655 -0.1465 -1.8940  1.1839
17731TIP3   OH274607   3.304   6.737   2.218  0.6830 -0.0714  0.1586
17731TIP3    H174608   3.310   6.736   2.123 -0.0468  1.7726  0.0408
17731TIP3    H274609   3.374   6.796   2.246  0.9073 -0.6173  0.7794
17732TIP3   OH274610   6.494   0.495   1.968  0.4948  0.3607  0.3030
17732TIP3    H174611   6.478   0.407   2.002  3.1072 -0.5216 -0.5025
17732TIP3    H274612   6.548   0.537   2.035  0.0408  1.0535  0.2511
17733TIP3   OH274613   2.753   6.492  11.753 -0.0141  0.1604  0.3790
17733TIP3    H174614   2.769   6.537  11.670  3.0273  1.3373  1.4618
17733TIP3    H274615   2.663   6.514  11.775 -0.5397  0.7576 -2.0282
17734TIP3   OH274616   5.114   0.734   3.888 -0.2430 -0.3361  0.2469
17734TIP3    H174617   5.117   0.768   3.799  0.1165 -1.2694 -0.1121
17734TIP3    H274618   5.085   0.643   3.878  0.9507 -0.8212  0.9640
17735TIP3   OH274619   6.624   3.725  11.189 -0.1461  0.5647  0.0958
17735TIP3    H174620   6.667   3.647  11.155  0.9293  0.7677  0.9332
17735TIP3    H274621   6.593   3.772  11.112  0.3717 -0.0213 -0.4729
17736TIP3   OH274622   2.460   1.613   5.649  0.3626  1.0826  0.2985
17736TIP3    H174623   2.401   1.681   5.617  1.2622  1.9464  0.4041
17736TIP3    H274624   2.505   1.654   5.723  0.7729  0.2939  0.4920
17737TIP3   OH274625   4.191   5.789   6.544  0.3051 -0.1924 -0.1245
17737TIP3    H174626   4.280   5.794   6.580  0.1007 -2.3199  0.7690
17737TIP3    H274627   4.190   5.707   6.495 -1.3149 -0.4094  0.2499
17738TIP3   OH274628   3.837   3.146   3.309 -0.0385  0.3411 -0.3668
17738TIP3    H174629   3.867   3.122   3.397 -1.1359 -1.0948 -0.3417
17738TIP3    H274630   3.748   3.112   3.305 -1.0692  2.9361 -1.0486
17739TIP3   OH274631   5.615   4.871  11.631 -0.0373  0.5400  0.2792
17739TIP3    H174632   5.571   4.806  11.687 -0.5734 -0.3796 -1.1395
17739TIP3    H274633   5.685   4.822  11.589  1.6556  1.7119  1.6063
17740TIP3   OH274634   2.856   1.550   4.678 -0.2581 -0.2743 -0.1957
17740TIP3    H174635   2.814   1.508   4.753 -3.6515 -0.0373 -1.7550
17740TIP3    H274636   2.879   1.637   4.709  0.0919 -0.7919  1.0555
17741TIP3   OH274637   2.339   0.416  12.133  0.0161 -0.4423 -0.3467
17741TIP3    H174638   2.328   0.452  12.221 -1.5390 -1.6400  0.0187
17741TIP3    H274639   2.276   0.464  12.080  0.7395  0.0705 -0.7481
17742TIP3   OH274640   4.303   1.103   0.487  0.8833  0.6333  0.2998
17742TIP3    H174641   4.232   1.109   0.423  0.7322 -1.1751  0.2355
17742TIP3    H274642   4.297   1.184   0.538 -1.9271  0.0915  1.0138
17743TIP3   OH274643   1.620   4.683   3.869 -0.1785  0.5448  0.5463
17743TIP3    H174644   1.697   4.713   3.918 -0.0494  0.8746  0.1452
17743TIP3    H274645   1.546   4.706   3.926  0.0414 -0.3823  1.2417
17744TIP3   OH274646   0.997   2.896   5.073  0.1084 -0.0379  0.1076
17744TIP3    H174647   0.947   2.936   5.144  1.3636 -0.2505  1.1596
17744TIP3    H274648   1.064   2.961   5.051 -0.5921  0.2433 -1.2755
17745TIP3   OH274649   4.961   6.250   3.403  0.2720 -0.2309 -0.2312
17745TIP3    H174650   4.904   6.249   3.480 -1.4898 -0.2006 -1.4768
17745TIP3    H274651   4.983   6.343   3.391 -3.1770  0.4864 -2.2873
17746TIP3   OH274652   3.386   4.112  16.334  0.0313 -0.0145 -0.0332
17746TIP3    H174653   3.328   4.177  16.372 -0.2118 -0.8906  1.1400
17746TIP3    H274654   3.398   4.046  16.403 -1.5316 -2.3860 -1.8637
17747TIP3   OH274655   2.372   2.894   1.845 -0.2878  0.4393  0.0368
17747TIP3    H174656   2.344   2.978   1.809  0.1181  0.2850 -0.6568
17747TIP3    H274657   2.390   2.912   1.937 -3.9621  0.2450  0.9296
17748TIP3   OH274658   0.504   4.767   5.525  0.0241  0.3332 -0.0953
17748TIP3    H174659   0.447   4.720   5.587  0.3236  0.6329  0.4095
17748TIP3    H274660   0.452   4.842   5.497  0.1036  0.5119  0.2327
17749TIP3   OH274661   1.037   3.325   0.807  0.3545  0.9723 -0.6751
17749TIP3    H174662   1.104   3.257   0.801  1.0378  1.4189  1.1445
17749TIP3    H274663   1.082   3.405   0.779  0.4132  1.1620 -0.0541
17750TIP3   OH274664   6.018   1.119  15.277  0.4337 -0.2873  0.4418
17750TIP3    H174665   6.108   1.144  15.254  0.4113  0.0345  0.7084
17750TIP3    H274666   6.024   1.089  15.367  0.6442 -2.2037 -0.1654
17751TIP3   OH274667   2.190   6.163   1.757 -0.0361  0.1539 -0.1967
17751TIP3    H174668   2.230   6.236   1.709  0.0877  0.6462  0.6445
17751TIP3    H274669   2.104   6.152   1.717 -0.2645  1.1129  0.0246
17752TIP3   OH274670   4.981   6.553   0.523  0.2464  0.3568 -0.2652
17752TIP3    H174671   4.938   6.637   0.537  0.0984  0.4204 -1.0579
17752TIP3    H274672   5.043   6.570   0.452  0.5361 -0.0884 -0.1160
17753TIP3   OH274673   2.432   5.235   4.556  0.5497 -0.1098  0.2342
17753TIP3    H174674   2.486   5.304   4.593  1.2824  0.9157 -2.5049
17753TIP3    H274675   2.470   5.217   4.470 -0.9718 -2.3613 -0.0790
17754TIP3   OH274676   2.547   4.898   0.193 -0.3231  0.1265 -0.3510
17754TIP3    H174677   2.598   4.835   0.244  0.1413  0.0988 -0.8419
17754TIP3    H274678   2.572   4.881   0.102 -1.2204  0.1004 -0.6061
17755TIP3   OH274679   3.089   3.241  11.602 -0.3710 -0.4095 -0.0320
17755TIP3    H174680   3.041   3.320  11.626 -0.5680 -0.4934 -0.1425
17755TIP3    H274681   3.039   3.204  11.529  0.7204  0.3457 -1.2138
17756TIP3   OH274682   5.940   0.451   5.419  0.3663  0.1494  0.3270
17756TIP3    H174683   5.908   0.535   5.450 -0.6191  0.0597 -0.3793
17756TIP3    H274684   5.882   0.387   5.461 -0.1376 -0.0467 -0.6419
17757TIP3   OH274685   2.229   0.596  15.335  0.0653 -0.3485  0.1471
17757TIP3    H174686   2.198   0.621  15.422  0.7540  1.4968 -0.0926
17757TIP3    H274687   2.167   0.530  15.305  0.7662 -2.3290  2.6953
17758TIP3   OH274688   5.430   0.126   6.474 -0.7513 -0.0357 -0.4498
17758TIP3    H174689   5.418   0.050   6.417 -1.8814 -1.1799  1.2332
17758TIP3    H274690   5.348   0.133   6.522 -1.1868  3.0638 -1.4029
17759TIP3   OH274691   4.666   5.349   2.606  0.7237 -0.2696  0.1962
17759TIP3    H174692   4.597   5.410   2.582  1.8865  0.8863 -0.3555
17759TIP3    H274693   4.630   5.300   2.680 -0.9437 -0.2328 -0.5526
17760TIP3   OH274694   4.002   6.553   4.269  0.0183  0.4231 -0.1782
17760TIP3    H174695   4.032   6.463   4.253  1.0742  0.5143  1.1007
17760TIP3    H274696   3.930   6.544   4.331 -1.8613  0.2988 -2.2657
17761TIP3   OH274697   4.642   0.500   2.497 -0.2653 -0.1517 -0.1569
17761TIP3    H174698   4.572   0.452   2.452 -0.6931  0.1561  0.1683
17761TIP3    H274699   4.596   0.555   2.560  0.0843  1.9376 -1.6311
17762TIP3   OH274700   2.870   3.200  16.421 -0.6625 -0.2467  0.6676
17762TIP3    H174701   2.852   3.260  16.348 -0.4158  0.4014  1.1301
17762TIP3    H274702   2.947   3.151  16.392 -1.0899 -0.6182  0.1299
17763TIP3   OH274703   4.685   3.840  16.544 -0.0030  0.5444 -0.5488
17763TIP3    H174704   4.614   3.890  16.585 -1.3718 -0.1312 -1.9841
17763TIP3    H274705   4.657   3.749  16.552  1.1157  0.2063 -0.4173
17764TIP3   OH274706   3.461   2.419   1.955  0.3256  0.8133  0.5604
17764TIP3    H174707   3.554   2.423   1.933  0.1357 -0.3087 -0.6342
17764TIP3    H274708   3.423   2.496   1.912  0.5804  0.8444  0.3881
17765TIP3   OH274709   2.461   3.688   5.603  0.4594  0.0163  0.1882
17765TIP3    H174710   2.491   3.760   5.658  0.9087 -0.2746  0.3326
17765TIP3    H274711   2.465   3.611   5.660  2.3153 -0.5568 -0.6094
17766TIP3   OH274712   6.760   2.774   2.568 -0.5746  0.0307  0.2156
17766TIP3    H174713   6.838   2.743   2.616  0.5192 -1.6087 -2.3898
17766TIP3    H274714   6.749   2.865   2.596  0.4757 -0.5517  2.8428
17767TIP3   OH274715   4.295   4.682  10.886  0.2356  0.3365  0.4221
17767TIP3    H174716   4.295   4.600  10.836  0.3900 -0.7841  2.1675
17767TIP3    H274717   4.237   4.740  10.837 -0.6332 -1.1486 -0.3698
17768TIP3   OH274718   1.879   1.871  11.110  0.3196 -0.1869 -0.4892
17768TIP3    H174719   1.949   1.815  11.076  0.2606 -0.2791 -0.4591
17768TIP3    H274720   1.899   1.958  11.075 -0.7613 -0.6177 -2.3194
17769TIP3   OH274721   4.177   5.462   3.995  0.5315 -0.4974 -0.7780
17769TIP3    H174722   4.247   5.408   3.957  0.9030 -0.7858  0.2934
17769TIP3    H274723   4.220   5.544   4.020  0.2013 -0.1446 -1.3465
17770TIP3   OH274724   4.801   3.873  15.183 -0.2856  0.1334 -0.2686
17770TIP3    H174725   4.741   3.801  15.158  0.8050 -0.6052 -0.8382
17770TIP3    H274726   4.756   3.952  15.153  0.0046 -0.5614 -2.8053
17771TIP3   OH274727   1.774   1.164   0.538  0.0373  0.2086  0.8630
17771TIP3    H174728   1.695   1.137   0.584  0.1945  1.4056  1.9048
17771TIP3    H274729   1.844   1.114   0.580 -0.0407 -0.0315  0.7038
17772TIP3   OH274730   0.792   1.093   0.369  0.7961 -0.1650  0.3071
17772TIP3    H174731   0.865   1.038   0.341  0.1813 -0.9685  0.2138
17772TIP3    H274732   0.751   1.044   0.441 -1.3012 -1.1505 -1.4289
17773TIP3   OH274733   5.781   3.967  11.808  0.2745 -0.1852 -0.3546
17773TIP3    H174734   5.766   3.878  11.840  1.6137  0.2918  1.8881
17773TIP3    H274735   5.700   4.014  11.830 -0.0322 -0.5921 -0.5894
17774TIP3   OH274736   5.522   3.319   4.277 -0.1888 -0.0061  0.2818
17774TIP3    H174737   5.465   3.284   4.346 -0.6681 -1.3787 -0.7810
17774TIP3    H274738   5.462   3.352   4.210  0.2749  1.2862  0.4750
17775TIP3   OH274739   2.119   5.789   1.790 -0.2785 -0.0047 -0.0982
17775TIP3    H174740   2.150   5.811   1.702  0.0586 -0.9938 -0.2358
17775TIP3    H274741   2.197   5.762   1.837 -0.9732 -3.7035 -0.7960
17776TIP3   OH274742   0.557   0.982   0.178 -0.6250 -0.0733  0.3091
17776TIP3    H174743   0.591   1.020   0.097 -0.7226  0.3610  0.4674
17776TIP3    H274744   0.630   0.986   0.239 -0.3412 -1.0263  0.0501
17777TIP3   OH274745   5.746   2.773  15.020  0.5279 -0.1481 -0.3820
17777TIP3    H174746   5.735   2.711  14.948 -0.6337  1.4124 -1.6078
17777TIP3    H274747   5.662   2.773  15.066  0.7501  0.0167  0.0313
17778TIP3   OH274748   0.768   2.218  12.222  0.3501 -0.3906 -0.2412
17778TIP3    H174749   0.773   2.309  12.192  0.0403  0.4761  2.0563
17778TIP3    H274750   0.687   2.185  12.183  1.7734 -0.6220 -3.2440
17779TIP3   OH274751   2.707   2.814  15.259  0.2490 -0.5283  0.1668
17779TIP3    H174752   2.626   2.781  15.221  0.2969 -0.8760  0.3581
17779TIP3    H274753   2.749   2.736  15.297  0.9943 -0.4722 -0.5172
17780TIP3   OH274754   1.695   2.537   2.970 -0.5841  0.1884  0.3545
17780TIP3    H174755   1.688   2.584   2.887  0.2958 -3.7989 -2.2664
17780TIP3    H274756   1.609   2.498   2.983 -0.4389 -0.0034  0.7779
17781TIP3   OH274757   1.061   2.927   0.636 -0.1643  0.2548 -0.1115
17781TIP3    H174758   1.004   2.891   0.704  1.0929  0.3419  1.0293
17781TIP3    H274759   1.098   2.850   0.592 -0.4317  0.1959 -0.2372
17782TIP3   OH274760   4.794   5.767   2.213  0.5773 -0.1016  0.2253
17782TIP3    H174761   4.761   5.769   2.303  0.0001  2.6089  0.0310
17782TIP3    H274762   4.880   5.809   2.218  1.3211 -1.4813 -0.2736
17783TIP3   OH274763   0.843   4.658   0.007  0.8013 -0.2946  0.0062
17783TIP3    H174764   0.785   4.582   0.001  0.4555 -0.2127  1.7158
17783TIP3    H274765   0.799   4.726  -0.044 -0.0363 -0.5799  0.3263
17784TIP3   OH274766   6.428   5.249  12.394 -0.1061 -0.2649 -0.6633
17784TIP3    H174767   6.517   5.282  12.405 -0.5514  0.2737  1.9048
17784TIP3    H274768   6.379   5.283  12.468 -1.2639 -4.4493  0.8177
17785TIP3   OH274769   2.259   4.996  15.774 -0.2846  0.5179  0.3509
17785TIP3    H174770   2.349   4.968  15.792 -0.4370  0.4561  1.0339
17785TIP3    H274771   2.212   4.982  15.856 -0.9352  0.5044 -0.0155
17786TIP3   OH274772   5.070   3.297  12.188  0.0786 -0.3142  0.2494
17786TIP3    H174773   5.036   3.359  12.254  0.0181 -1.1392  1.0214
17786TIP3    H274774   5.136   3.346  12.140 -1.2042  0.9024 -0.3493
17787TIP3   OH274775   5.471   1.970  16.332  0.4461  0.6020  0.2928
17787TIP3    H174776   5.470   1.875  16.342 -0.7098  0.5751  0.0409
17787TIP3    H274777   5.443   2.004  16.417  2.2464  0.7867  0.8449
17788TIP3   OH274778   0.383   5.942  12.880  0.2389 -0.3713 -0.2917
17788TIP3    H174779   0.319   5.884  12.920 -0.7046  1.6042  1.2253
17788TIP3    H274780   0.416   5.995  12.952  1.8783  0.2358 -1.4380
17789TIP3   OH274781   3.184   0.499   0.046  0.2848  0.1969 -0.6453
17789TIP3    H174782   3.255   0.540  -0.004  1.9294  0.2774  1.5933
17789TIP3    H274783   3.222   0.418   0.080 -1.4187 -0.8445 -1.1067
17790TIP3   OH274784   2.775   6.674   3.452  0.1190 -0.2032  0.5154
17790TIP3    H174785   2.691   6.629   3.462  0.6148 -1.0762  0.9486
17790TIP3    H274786   2.769   6.750   3.510  0.1180 -1.0132  1.6094
17791TIP3   OH274787   0.986   5.927   5.539  0.1707  0.0244 -0.0773
17791TIP3    H174788   0.937   5.845   5.534 -1.8299  1.1228  0.0780
17791TIP3    H274789   1.021   5.928   5.628 -1.1315  0.0081  0.4626
17792TIP3   OH274790   2.828   4.622  15.447 -0.0202 -0.6822 -1.0874
17792TIP3    H174791   2.885   4.696  15.467 -1.7458  0.8513 -1.6063
17792TIP3    H274792   2.847   4.558  15.516  0.2274  0.9881  0.4628
17793TIP3   OH274793   4.724   6.424   2.859  0.4873  0.1865  0.0185
17793TIP3    H174794   4.757   6.441   2.947  0.1286  0.9678  0.0112
17793TIP3    H274795   4.648   6.368   2.873  1.1727 -0.7395  0.1075
17794TIP3   OH274796   3.182   5.194  13.585  0.3800 -0.6067 -0.2439
17794TIP3    H174797   3.210   5.265  13.527  1.4310  0.0889  1.0624
17794TIP3    H274798   3.259   5.139  13.596  0.2886 -0.5637  0.7055
17795TIP3   OH274799   0.566   0.132   5.281  0.4731 -0.0937 -0.2695
17795TIP3    H174800   0.509   0.171   5.215  0.2905  0.3629  0.1551
17795TIP3    H274801   0.507   0.077   5.333  0.4035  0.4462  0.2237
17796TIP3   OH274802   1.887   5.870  11.912 -0.7502 -0.3669 -0.0981
17796TIP3    H174803   1.792   5.865  11.902 -0.5144 -0.3025 -3.5862
17796TIP3    H274804   1.909   5.961  11.890  0.1636 -0.4837  0.2755
17797TIP3   OH274805   1.173   1.917  16.160  0.0061  0.4180  0.1641
17797TIP3    H174806   1.187   1.963  16.243 -0.3433  1.3160 -0.2597
17797TIP3    H274807   1.099   1.858  16.177 -1.8885  2.5498 -0.2166
17798TIP3   OH274808   6.001   6.551  16.713  0.2293  0.7213  0.4035
17798TIP3    H174809   6.013   6.606  16.635  1.2438  1.5726  1.1371
17798TIP3    H274810   6.007   6.461  16.680  1.0980  1.0736 -0.4434
17799TIP3   OH274811   1.334   3.384   2.850 -0.2353  0.2296 -0.1385
17799TIP3    H174812   1.305   3.457   2.905 -1.9852 -0.8864  0.5076
17799TIP3    H274813   1.259   3.366   2.793  0.1328 -1.0830 -0.2357
17800TIP3   OH274814   3.932   4.709   2.203  0.0405 -0.2350  0.4104
17800TIP3    H174815   3.958   4.649   2.133  0.6192  1.4126 -0.8566
17800TIP3    H274816   3.988   4.686   2.277 -0.2340 -1.6758  0.2079
17801TIP3   OH274817   0.101   0.029  12.635  0.3941  0.1973 -0.2730
17801TIP3    H174818   0.059  -0.053  12.661  1.9353 -0.2289  1.0304
17801TIP3    H274819   0.031   0.095  12.641 -0.4013 -0.6895  0.5145
17802TIP3   OH274820   5.540   1.874  12.989  0.0603 -0.2061  0.0717
17802TIP3    H174821   5.522   1.780  12.992  1.8347 -0.6035 -1.0206
17802TIP3    H274822   5.564   1.896  13.079  0.9967 -1.1006  0.0555
17803TIP3   OH274823   2.735   0.654  13.127  0.2984  0.6164 -0.1953
17803TIP3    H174824   2.765   0.595  13.196  0.2345 -0.6688 -1.2178
17803TIP3    H274825   2.644   0.672  13.149  0.8571  1.9108  1.1654
17804TIP3   OH274826   1.309   6.106  15.253  0.2004  0.4812  0.1778
17804TIP3    H174827   1.308   6.170  15.324  0.2145  0.3832  0.2662
17804TIP3    H274828   1.226   6.119  15.208 -0.2554 -0.1333  0.8172
17805TIP3   OH274829   6.014   2.906  12.870 -0.5555  0.4258  0.3210
17805TIP3    H174830   5.971   2.834  12.917  0.3686  0.6666  1.5761
17805TIP3    H274831   6.004   2.883  12.777  0.2790 -1.6523  0.6975
17806TIP3   OH274832   3.823   1.149  13.538  0.4372  0.2630 -0.2258
17806TIP3    H174833   3.828   1.194  13.454 -0.0642  0.1616 -0.3085
17806TIP3    H274834   3.760   1.199  13.589  0.4883  0.1280 -0.0271
17807TIP3   OH274835   3.348   1.724   0.752  0.2193  0.0093 -0.2471
17807TIP3    H174836   3.258   1.690   0.751  0.5641 -0.9269 -0.8583
17807TIP3    H274837   3.342   1.808   0.705 -0.2051 -0.4104 -0.9732
17808TIP3   OH274838   4.424   4.535   0.722 -0.0497 -0.4451 -0.0088
17808TIP3    H174839   4.407   4.616   0.674 -0.5144 -0.5776 -0.0669
17808TIP3    H274840   4.427   4.467   0.654  0.5724 -0.4507  0.0114
17809TIP3   OH274841   2.360   3.970  17.171  0.1760  0.1856 -0.4419
17809TIP3    H174842   2.358   4.029  17.247 -1.3082 -1.3525  0.7765
17809TIP3    H274843   2.431   3.909  17.190  0.8084  0.7312 -1.0375
17810TIP3   OH274844   3.202   2.338   0.514 -0.4095 -0.8750 -0.5708
17810TIP3    H174845   3.296   2.356   0.517 -0.4844  0.0149 -2.3546
17810TIP3    H274846   3.177   2.323   0.606  1.4764 -1.2646 -0.0831
17811TIP3   OH274847   6.358   2.940   3.229  0.2082  0.2758  0.1588
17811TIP3    H174848   6.332   2.964   3.317 -1.1713 -0.5472 -0.0028
17811TIP3    H274849   6.452   2.923   3.236  0.4438  1.7877  1.0961
17812TIP3   OH274850   1.067   1.427   5.438  0.1110  0.8859  0.3071
17812TIP3    H174851   1.027   1.358   5.491  0.8015 -0.8405 -1.3167
17812TIP3    H274852   0.993   1.465   5.390 -0.0894  0.2212  0.0714
17813TIP3   OH274853   3.453   0.202  13.219  0.0162  0.4329  0.5400
17813TIP3    H174854   3.461   0.143  13.143 -0.6514 -1.4161  1.8317
17813TIP3    H274855   3.524   0.175  13.277 -0.7074  0.4452  1.4496
17814TIP3   OH274856   6.516   5.538   4.817  0.0895 -0.5038  0.1888
17814TIP3    H174857   6.428   5.544   4.780  1.0710  0.8875 -2.1390
17814TIP3    H274858   6.535   5.444   4.821 -0.4211 -0.7418 -2.1317
17815TIP3   OH274859   0.755   5.638   5.643 -0.8688  0.2842 -0.2123
17815TIP3    H174860   0.765   5.650   5.549  0.3566 -0.0545 -0.1538
17815TIP3    H274861   0.694   5.707   5.670  0.9245  2.2401 -0.8531
17816TIP3   OH274862   1.540   0.931  16.355 -0.2007 -0.1687 -0.1709
17816TIP3    H174863   1.563   0.934  16.263  1.1322  0.3342  0.1595
17816TIP3    H274864   1.518   0.839  16.371  0.3180 -0.4110 -0.8120
17817TIP3   OH274865   1.853   0.789   0.316 -0.0384  0.0112  0.4419
17817TIP3    H174866   1.805   0.760   0.394 -1.0682 -1.8247 -0.7914
17817TIP3    H274867   1.831   0.724   0.249  0.3494  1.8401 -1.5623
17818TIP3   OH274868   5.101   3.425   0.762 -0.8924 -0.4276  0.0085
17818TIP3    H174869   5.105   3.452   0.853  1.3446  1.3084 -0.4984
17818TIP3    H274870   5.071   3.503   0.715 -1.8519 -1.2422 -0.7786
17819TIP3   OH274871   6.148   6.173   2.286  0.0111 -0.0553 -0.2931
17819TIP3    H174872   6.082   6.231   2.324 -1.4747 -1.5906 -0.3880
17819TIP3    H274873   6.105   6.136   2.209  2.0889  1.1447 -2.1657
17820TIP3   OH274874   4.849   1.613  12.310 -0.3344 -0.2412 -0.4184
17820TIP3    H174875   4.821   1.522  12.306 -2.7963  0.3115  1.5536
17820TIP3    H274876   4.797   1.657  12.244  0.0668 -0.0805 -0.6319
17821TIP3   OH274877   0.689   4.920  16.967  0.1638 -0.1987  0.1888
17821TIP3    H174878   0.783   4.901  16.973 -0.0322 -1.2483  0.1327
17821TIP3    H274879   0.677   4.954  16.878  0.2677 -1.4872 -0.3414
17822TIP3   OH274880   5.253   4.380  15.646 -0.0713  0.1867  0.2952
17822TIP3    H174881   5.300   4.336  15.575  0.4609  1.9189 -0.4712
17822TIP3    H274882   5.161   4.376  15.619  0.0208 -0.0222 -0.0006
17823TIP3   OH274883   4.098   1.383  11.646  0.0859 -0.1857 -0.4071
17823TIP3    H174884   4.028   1.411  11.705  0.4264  1.3854 -0.6943
17823TIP3    H274885   4.055   1.323  11.584 -0.9606  0.5494 -0.4248
17824TIP3   OH274886   3.214   1.903  14.638  0.0593 -0.0364  0.5725
17824TIP3    H174887   3.201   1.809  14.646  0.7905 -0.2350 -0.3381
17824TIP3    H274888   3.233   1.932  14.727  3.0055 -1.3094  0.4841
17825TIP3   OH274889   1.461   3.621   1.884  0.0482  0.0803 -0.2794
17825TIP3    H174890   1.390   3.586   1.830  0.4029 -1.0725 -0.0423
17825TIP3    H274891   1.512   3.675   1.824 -0.0683 -0.4716 -0.8922
17826TIP3   OH274892   5.698   1.393   3.812  0.0396  0.0010 -0.0561
17826TIP3    H174893   5.723   1.485   3.800  0.1368  0.2168  1.6325
17826TIP3    H274894   5.707   1.354   3.725 -2.0678  2.0668 -1.3252
17827TIP3   OH274895   5.592   1.927   0.926  0.2498  0.3955  0.3992
17827TIP3    H174896   5.535   1.960   0.995 -1.3104 -1.3664  0.0215
17827TIP3    H274897   5.568   1.834   0.917  1.7921  0.0968 -1.1525
17828TIP3   OH274898   1.527   0.936   2.157 -0.0923 -0.4789  0.1391
17828TIP3    H174899   1.440   0.961   2.126 -0.1275  0.9334  1.3265
17828TIP3    H274900   1.528   0.840   2.150 -1.5381 -0.4758 -0.3727
17829TIP3   OH274901   3.609   1.323  11.860 -0.2718  0.1041 -0.0376
17829TIP3    H174902   3.603   1.318  11.765  0.8585 -1.0771 -0.0724
17829TIP3    H274903   3.519   1.311  11.891 -0.3327 -2.0240 -0.8978
17830TIP3   OH274904   4.148   6.501   6.390  0.8417 -0.2768 -0.3917
17830TIP3    H174905   4.221   6.527   6.447 -0.2597 -1.2244  1.5842
17830TIP3    H274906   4.109   6.426   6.435 -0.9856 -0.1791 -1.7111
17831TIP3   OH274907   5.683   5.130   3.874 -0.4558 -0.0047  0.3748
17831TIP3    H174908   5.709   5.171   3.957  1.5591 -1.2338  0.4396
17831TIP3    H274909   5.690   5.036   3.891  2.1497 -0.3040 -1.7225
17832TIP3   OH274910   4.116   1.856   4.941 -0.6841  0.5269 -0.2500
17832TIP3    H174911   4.043   1.826   4.887  0.0617 -0.3446 -0.8043
17832TIP3    H274912   4.155   1.928   4.892 -0.8167  0.6096 -0.2338
17833TIP3   OH274913   1.335   2.125   4.975 -0.0472  0.0546  0.2580
17833TIP3    H174914   1.376   2.158   4.895  0.6269  0.5211  0.7842
17833TIP3    H274915   1.241   2.127   4.956  0.1477 -1.0503 -0.9777
17834TIP3   OH274916   4.370   5.285   6.229  0.0634  0.0245  0.9894
17834TIP3    H174917   4.286   5.240   6.220  0.2073  0.0957 -1.0155
17834TIP3    H274918   4.400   5.299   6.139  1.5995  1.1853  1.6424
17835TIP3   OH274919   4.203   2.054   1.067  0.4284 -0.5029 -0.2612
17835TIP3    H174920   4.182   1.961   1.068  0.5591 -0.5304  0.6197
17835TIP3    H274921   4.135   2.093   1.012  0.9380 -1.2323 -1.4571
17836TIP3   OH274922   2.424   0.558   0.968  0.3649  0.2473 -0.5007
17836TIP3    H174923   2.387   0.574   1.054 -0.7609 -0.7634 -0.7735
17836TIP3    H274924   2.500   0.502   0.984 -0.6149 -1.0361 -0.2591
17837TIP3   OH274925   4.142   3.987  10.685  0.6790  0.2719  0.0456
17837TIP3    H174926   4.084   3.994  10.761  2.9503  0.8320  1.8264
17837TIP3    H274927   4.150   4.077  10.653 -0.5815 -0.0145 -1.1655
17838TIP3   OH274928   2.375   6.335  14.618  0.1422  0.4054 -0.0636
17838TIP3    H174929   2.436   6.298  14.681  0.6377  0.5345 -0.4666
17838TIP3    H274930   2.420   6.330  14.534 -1.2851 -1.6853 -0.8082
17839TIP3   OH274931   5.650   6.457  14.262 -0.0699  0.6054 -0.1242
17839TIP3    H174932   5.706   6.480  14.336  0.0057 -3.0969  1.1935
17839TIP3    H274933   5.686   6.375  14.229 -0.8805  1.4733 -3.5564
17840TIP3   OH274934   0.550   3.363   4.203 -0.2873  0.5512  0.9948
17840TIP3    H174935   0.521   3.285   4.250  1.5645 -0.9315 -0.1310
17840TIP3    H274936   0.489   3.432   4.229 -2.5480 -1.4630  1.3728
17841TIP3   OH274937   3.237   0.757  16.119 -0.8483 -0.0459 -0.8125
17841TIP3    H174938   3.256   0.686  16.179 -0.3677 -0.1347 -1.0654
17841TIP3    H274939   3.146   0.781  16.138 -1.6289 -1.9086 -1.9340
17842TIP3   OH274940   3.039   3.018  16.271  0.3287  0.2507 -0.5236
17842TIP3    H174941   3.040   3.022  16.175  1.6390  0.4186 -0.5089
17842TIP3    H274942   3.059   2.926  16.291 -0.5495  0.0738 -0.4056
17843TIP3   OH274943   0.668   0.698   4.235 -0.3303  0.1863  0.2969
17843TIP3    H174944   0.716   0.781   4.239 -2.2693  1.2988  2.8695
17843TIP3    H274945   0.703   0.646   4.308  0.3749 -1.0457 -0.8646
17844TIP3   OH274946   2.768   6.326   1.561 -0.4712  0.4532 -0.1335
17844TIP3    H174947   2.769   6.244   1.611 -0.8296  2.2133  3.0802
17844TIP3    H274948   2.842   6.318   1.501  0.2244 -1.7627  0.8978
17845TIP3   OH274949   0.845   6.006  14.539 -0.2355  0.0963 -0.0423
17845TIP3    H174950   0.879   6.089  14.574  0.4715 -0.4476  0.5961
17845TIP3    H274951   0.813   5.959  14.616  2.6142 -1.7214  0.2098
17846TIP3   OH274952   2.471   1.767  12.924 -0.5686  0.0504  0.2061
17846TIP3    H174953   2.562   1.748  12.944 -0.3754 -1.3793 -1.8118
17846TIP3    H274954   2.441   1.821  12.998  2.0211  0.9955  0.6678
17847TIP3   OH274955   5.467   2.401  17.008 -0.4026  0.3701 -0.3923
17847TIP3    H174956   5.405   2.458  16.962 -1.7369  0.3986  1.3235
17847TIP3    H274957   5.430   2.313  16.999  2.4034 -0.6700 -4.3066
17848TIP3   OH274958   4.485   5.046   3.240  0.3356  0.2391  0.2673
17848TIP3    H174959   4.506   5.030   3.148  0.4818 -0.3469  0.3978
17848TIP3    H274960   4.391   5.031   3.246  0.1950  0.9937  0.0705
17849TIP3   OH274961   4.244   3.138   4.368 -0.1840 -0.0580 -0.3029
17849TIP3    H174962   4.202   3.216   4.405 -1.5167 -0.6296 -0.5417
17849TIP3    H274963   4.330   3.136   4.409 -0.9199  0.3577  1.3493
17850TIP3   OH274964   1.756   6.161   0.198  0.6056 -0.0806  0.1156
17850TIP3    H174965   1.694   6.088   0.204  0.9043 -0.9005 -3.7948
17850TIP3    H274966   1.704   6.234   0.167  1.2927 -0.5432 -2.3622
17851TIP3   OH274967   5.246   0.578   5.716 -0.4154  0.2846  0.6052
17851TIP3    H174968   5.182   0.620   5.773 -0.9602 -0.1126  0.2998
17851TIP3    H274969   5.213   0.594   5.627 -0.0676  0.1149  0.4414
17852TIP3   OH274970   5.342   2.300   1.761 -0.3669 -0.2202 -0.0510
17852TIP3    H174971   5.287   2.267   1.832 -2.6587  0.8264 -1.2284
17852TIP3    H274972   5.392   2.371   1.800  0.2683 -1.2485  1.0741
17853TIP3   OH274973   2.662   1.780  13.556  0.3652  1.0881  0.3253
17853TIP3    H174974   2.718   1.712  13.594 -1.1519 -0.4169 -0.0234
17853TIP3    H274975   2.717   1.820  13.488  1.3503  0.3140  0.6392
17854TIP3   OH274976   6.555   2.870  13.268 -0.2426  0.0227  0.1420
17854TIP3    H174977   6.468   2.871  13.227 -0.4636  2.8348  0.4867
17854TIP3    H274978   6.538   2.888  13.360  0.6614 -0.3524  0.3919
17855TIP3   OH274979   4.673   2.921   2.447  0.2045 -0.2078 -0.5404
17855TIP3    H174980   4.613   2.891   2.516  0.3548 -0.0689 -0.3464
17855TIP3    H274981   4.692   2.842   2.396  0.3535 -0.3810 -0.2219
17856TIP3   OH274982   5.003   6.556   5.453  0.2563 -0.5028 -0.6684
17856TIP3    H174983   5.048   6.636   5.428  0.9447 -0.2253  1.2477
17856TIP3    H274984   5.055   6.486   5.414 -2.0086 -0.1150 -4.9676
17857TIP3   OH274985   4.571   5.059   5.245 -0.0927 -0.1517 -0.4462
17857TIP3    H174986   4.658   5.055   5.205  1.0578  2.5257  1.5271
17857TIP3    H274987   4.575   4.998   5.319 -1.0392 -2.3752 -2.1014
17858TIP3   OH274988   2.651   6.151   6.002  0.3717  0.4357 -0.0325
17858TIP3    H174989   2.675   6.171   6.093  0.3795 -2.4728  0.7120
17858TIP3    H274990   2.731   6.115   5.964 -0.1268 -0.0386 -0.6483
17859TIP3   OH274991   1.043   0.944   6.131  0.0971  0.6705 -0.1726
17859TIP3    H174992   1.108   0.930   6.199 -1.7376 -1.4511  1.3074
17859TIP3    H274993   0.987   1.013   6.164  0.1154  0.7316 -0.2676
17860TIP3   OH274994   5.910   6.667  13.471 -0.4920 -0.1421 -0.5276
17860TIP3    H174995   5.869   6.581  13.465  0.6908 -0.8619  1.0716
17860TIP3    H274996   5.929   6.679  13.564  1.1563  0.9814 -0.9566
17861TIP3   OH274997   3.879   3.502   4.198  0.1478  0.2922  0.2803
17861TIP3    H174998   3.825   3.564   4.149  0.1029  0.4936  0.5855
17861TIP3    H274999   3.870   3.419   4.150 -2.8030 -0.4795  1.9393
17862TIP3   OH275000   0.128   3.119  15.952 -0.3728 -0.0794  0.1083
17862TIP3    H175001   0.117   3.030  15.917  1.3493  1.1521 -4.1383
17862TIP3    H275002   0.143   3.106  16.046 -1.3759 -4.1124 -0.1002
17863TIP3   OH275003   4.886   4.925   2.689 -0.2894  0.5084 -0.1771
17863TIP3    H175004   4.796   4.947   2.714  0.2258  3.9583 -0.8193
17863TIP3    H275005   4.939   4.954   2.763  0.3669 -1.8578  0.3690
17864TIP3   OH275006   1.513   3.790  13.413 -0.6985  0.8349 -0.2779
17864TIP3    H175007   1.551   3.714  13.456  0.6709  1.6487  0.0168
17864TIP3    H275008   1.561   3.798  13.331 -0.1851  1.8883  0.1003
17865TIP3   OH275009   1.364   4.707  10.922  0.2680 -0.2089 -0.1939
17865TIP3    H175010   1.271   4.686  10.912  0.4543 -0.9492 -0.4148
17865TIP3    H275011   1.378   4.783  10.865 -0.6336  1.1880  1.3748
17866TIP3   OH275012   5.825   5.331  15.108 -0.3767 -0.7987 -0.2401
17866TIP3    H175013   5.883   5.338  15.032  1.9359  0.1349  1.4917
17866TIP3    H275014   5.787   5.243  15.102  1.1702 -1.4143 -1.4901
17867TIP3   OH275015   4.522   4.818   4.232 -0.3249  0.3182 -0.4062
17867TIP3    H175016   4.496   4.780   4.148  1.6932  2.1262 -1.9830
17867TIP3    H275017   4.577   4.751   4.273 -2.4690 -1.1495  0.2195
17868TIP3   OH275018   0.635   1.536  15.893 -0.1580 -0.2452  0.4313
17868TIP3    H175019   0.709   1.493  15.852 -0.8058 -1.6957  0.7114
17868TIP3    H275020   0.670   1.574  15.974  0.1027 -1.7979  1.0767
17869TIP3   OH275021   6.366   4.997   1.487  0.6968 -0.6992 -0.7480
17869TIP3    H175022   6.277   4.995   1.450  0.3056  1.6026 -0.1285
17869TIP3    H275023   6.356   5.041   1.571  2.6157  1.2080 -1.4202
17870TIP3   OH275024   1.969   4.290  16.628 -0.3506  0.6508 -0.9066
17870TIP3    H175025   1.919   4.267  16.549 -0.4525 -0.2213 -0.6034
17870TIP3    H275026   2.034   4.353  16.598 -0.5065  0.4697 -1.6569
17871TIP3   OH275027   2.731   5.988  12.202  0.8412  0.0568 -0.2276
17871TIP3    H175028   2.758   6.017  12.289  1.1663 -0.5630 -0.1141
17871TIP3    H275029   2.719   5.894  12.211 -1.7830  0.3174 -0.1664
17872TIP3   OH275030   1.100   2.623   1.989  0.0933 -0.4788 -0.0055
17872TIP3    H175031   1.188   2.591   2.005 -0.5169 -2.4595 -0.3747
17872TIP3    H275032   1.058   2.624   2.075  0.7096  1.3819  0.3235
17873TIP3   OH275033   6.356   1.715  15.366  0.2439 -0.3062 -0.5969
17873TIP3    H175034   6.417   1.750  15.301 -0.1417 -0.9671 -1.3315
17873TIP3    H275035   6.270   1.722  15.325  0.1790 -2.3895 -0.9341
17874TIP3   OH275036   6.045   4.907  17.083 -0.1712 -0.6935  0.1786
17874TIP3    H175037   6.060   4.922  16.990 -1.5652  1.9462  0.2889
17874TIP3    H275038   5.979   4.838  17.086 -2.0156  0.9367 -0.9586
17875TIP3   OH275039   2.143   6.436  13.513 -0.2570 -0.5392 -0.2377
17875TIP3    H175040   2.063   6.480  13.486 -0.3708 -0.6484 -0.0820
17875TIP3    H275041   2.179   6.400  13.432  1.4476  2.3702 -0.9131
17876TIP3   OH275042   5.689   3.762  10.682 -0.0126 -0.1835 -0.1161
17876TIP3    H175043   5.666   3.746  10.774  0.5946  0.2862  0.1223
17876TIP3    H275044   5.756   3.830  10.685 -2.3826  2.3864 -1.0928
17877TIP3   OH275045   6.582   3.425  12.566  0.2079  0.1498 -0.1827
17877TIP3    H175046   6.592   3.381  12.651  0.4812 -2.1316 -1.3308
17877TIP3    H275047   6.670   3.426  12.529  0.0940  1.1620 -0.4403
17878TIP3   OH275048   6.422   5.863   0.343  0.2657  0.2004 -0.3890
17878TIP3    H175049   6.454   5.773   0.331  1.2882  0.5663 -0.4543
17878TIP3    H275050   6.468   5.896   0.419  0.0956  0.7674 -0.5252
17879TIP3   OH275051   0.635   0.240   5.799  0.4566  0.3978  0.3097
17879TIP3    H175052   0.637   0.208   5.889 -0.0195 -0.6965 -0.0472
17879TIP3    H275053   0.579   0.178   5.753  1.0912  0.6548 -0.8471
17880TIP3   OH275054   6.486   2.360   2.593  0.2917 -0.6893 -0.7959
17880TIP3    H175055   6.519   2.306   2.665  0.3545  1.3196  0.7535
17880TIP3    H275056   6.398   2.327   2.577 -0.0986 -0.5362  0.9057
17881TIP3   OH275057   0.964   5.493  14.060 -0.2578  0.5387  0.5207
17881TIP3    H175058   1.058   5.478  14.067 -0.1643 -0.2325 -1.7154
17881TIP3    H275059   0.926   5.406  14.055 -0.6978  0.7840 -2.1713
17882TIP3   OH275060   1.049   2.465   1.760  0.4228  0.2412  0.3361
17882TIP3    H175061   0.968   2.416   1.777  0.3869  0.1402 -0.1264
17882TIP3    H275062   1.046   2.538   1.822 -0.3139  0.5767 -0.0867
17883TIP3   OH275063   4.302   3.303  13.268 -0.7504 -0.0650 -0.0854
17883TIP3    H175064   4.310   3.349  13.351 -2.6799  1.9567 -0.8990
17883TIP3    H275065   4.368   3.234  13.271  0.2745  0.9322  2.4500
17884TIP3   OH275066   6.733   2.501   4.174  0.2682  0.5273  0.1471
17884TIP3    H175067   6.717   2.500   4.080  0.3639 -0.3605  0.1380
17884TIP3    H275068   6.828   2.494   4.183  0.2275  0.1513  0.3130
17885TIP3   OH275069   2.931   5.511  12.330 -0.1178 -0.3865  0.0402
17885TIP3    H175070   2.978   5.595  12.329 -2.2775  0.8930 -0.6073
17885TIP3    H275071   2.989   5.452  12.377  0.5886  2.0339  2.4714
17886TIP3   OH275072   3.411   6.671   5.566 -0.2559 -0.4697  0.0813
17886TIP3    H175073   3.405   6.584   5.529 -1.5533  0.7170 -2.7642
17886TIP3    H275074   3.350   6.670   5.641 -1.5832 -1.5244 -0.9718
17887TIP3   OH275075   2.180   5.371   4.565 -0.6008 -0.1603  0.0227
17887TIP3    H175076   2.270   5.347   4.583 -0.5335  1.5846  2.4452
17887TIP3    H275077   2.182   5.407   4.476  1.5050  1.4697  0.6375
17888TIP3   OH275078   0.408   6.191   1.848 -0.6142 -0.0694  0.0562
17888TIP3    H175079   0.340   6.224   1.906  0.1853 -1.1463  1.6694
17888TIP3    H275080   0.426   6.102   1.880  0.1826 -0.5315 -1.5664
17889TIP3   OH275081   5.816   3.817   0.682 -0.4520  0.3098  0.0660
17889TIP3    H175082   5.786   3.749   0.742  1.6369  0.3259  1.2193
17889TIP3    H275083   5.773   3.896   0.712 -1.7342 -0.1993 -0.3538
17890TIP3   OH275084   5.985   6.265  12.744  0.4129 -0.2918  0.3608
17890TIP3    H175085   5.982   6.179  12.787 -1.1881  0.1193  1.1470
17890TIP3    H275086   6.000   6.245  12.651 -2.1658 -1.6120  0.1372
17891TIP3   OH275087   6.112   1.211  14.183 -0.1107  0.0263 -0.1955
17891TIP3    H175088   6.091   1.249  14.267  0.3064  0.7447 -0.4077
17891TIP3    H275089   6.035   1.158  14.160  0.0277 -0.7034  0.9178
17892TIP3   OH275090   2.104   0.631   4.471  0.2634 -0.8092  0.2541
17892TIP3    H175091   2.058   0.583   4.403  2.1239 -2.5192  0.1363
17892TIP3    H275092   2.070   0.596   4.553 -0.5590 -0.1449  0.2060
17893TIP3   OH275093   2.685   0.541   5.341 -0.0733 -0.1097 -0.1329
17893TIP3    H175094   2.780   0.531   5.351 -0.1707 -1.1352 -0.0504
17893TIP3    H275095   2.649   0.508   5.423 -0.5312 -0.5792 -0.5113
17894TIP3   OH275096   4.463   5.012  12.006 -0.1392 -0.1104 -0.1441
17894TIP3    H175097   4.394   4.953  12.033 -0.3775  0.7484  1.2260
17894TIP3    H275098   4.542   4.958  12.005 -0.0280 -0.1518  2.7717
17895TIP3   OH275099   1.427   5.925   4.297 -0.5205 -0.7666  0.6766
17895TIP3    H175100   1.400   5.952   4.385 -2.9101 -0.1438 -0.1694
17895TIP3    H275101   1.435   6.006   4.248  0.6519 -1.1206  0.2508
17896TIP3   OH275102   1.638   6.727  12.860  0.3981 -0.3224  0.0290
17896TIP3    H175103   1.658   6.696  12.772  1.1691 -1.0764  0.4670
17896TIP3    H275104   1.550   6.694  12.878  0.1177  0.0840 -0.5602
17897TIP3   OH275105   4.946   0.502  17.102  0.1865 -0.2190 -0.4663
17897TIP3    H175106   4.862   0.460  17.121  0.1318 -0.4926 -1.2650
17897TIP3    H275107   5.008   0.458  17.159 -0.3027  0.4019  0.5795
17898TIP3   OH275108   6.550   5.252   4.855  0.6978 -0.1064 -0.5342
17898TIP3    H175109   6.531   5.165   4.889 -1.0192 -0.6587 -2.6063
17898TIP3    H275110   6.529   5.246   4.761 -0.2702  2.7312 -0.6096
17899TIP3   OH275111   6.263   1.664  12.864 -0.0498  0.1189 -0.5289
17899TIP3    H175112   6.212   1.605  12.808  1.3234 -2.6972  0.9665
17899TIP3    H275113   6.200   1.693  12.930 -0.6476 -0.0711 -1.0050
17900TIP3   OH275114   4.969   2.846  10.680 -0.6795 -0.3698  0.4530
17900TIP3    H175115   4.956   2.752  10.693 -2.2447 -0.4330 -1.2044
17900TIP3    H275116   5.047   2.852  10.626 -0.5795 -0.7106  0.5543
17901TIP3   OH275117   1.932   1.512   5.240 -0.8222 -0.6515  0.4105
17901TIP3    H175118   1.949   1.606   5.248 -0.1567 -0.8131  1.0159
17901TIP3    H275119   1.837   1.505   5.239 -0.8862  0.0757 -0.3017
17902TIP3   OH275120   4.234   4.489   5.259  0.3422  0.5670 -0.4160
17902TIP3    H175121   4.312   4.459   5.213  0.4648  1.3589 -0.7368
17902TIP3    H275122   4.213   4.418   5.320  2.2345  0.9972  0.8245
17903TIP3   OH275123   2.108   5.501  13.044  0.9742 -0.7081 -0.0340
17903TIP3    H175124   2.123   5.568  12.978 -0.9491 -0.4704 -0.2658
17903TIP3    H275125   2.061   5.431  12.998  1.1416 -1.3205  0.6883
17904TIP3   OH275126   0.666   2.116  14.833  0.4945  0.0506  0.5547
17904TIP3    H175127   0.642   2.157  14.750 -2.1107  1.6486  1.9767
17904TIP3    H275128   0.583   2.092  14.874  1.7606 -2.2400  2.0007
17905TIP3   OH275129   3.732   3.691  16.655 -0.0449 -0.5772 -0.8563
17905TIP3    H175130   3.724   3.603  16.619  0.7128 -0.6481 -0.8582
17905TIP3    H275131   3.826   3.706  16.662 -0.1650  0.3131 -1.0500
17906TIP3   OH275132   2.520   0.266  14.030 -0.2510 -0.5934 -0.3499
17906TIP3    H175133   2.601   0.235  13.989 -0.3345  0.4287 -1.3628
17906TIP3    H275134   2.520   0.228  14.118  2.1245  0.6022  0.2524
17907TIP3   OH275135   6.314   3.669   3.800  0.1794  0.3168  0.1019
17907TIP3    H175136   6.271   3.591   3.834 -0.2733  0.3328 -0.4319
17907TIP3    H275137   6.342   3.717   3.878  1.0586 -0.7002  0.4372
17908TIP3   OH275138   1.162   0.120  11.086 -0.4954 -0.0204  0.4537
17908TIP3    H175139   1.073   0.142  11.060 -1.3020 -1.0329  2.1937
17908TIP3    H275140   1.157   0.029  11.113  0.6717  0.3906  2.2082
17909TIP3   OH275141   3.770   1.977   2.078 -0.1283 -0.0119 -0.2307
17909TIP3    H175142   3.678   1.992   2.103 -1.0731 -0.7594 -2.8755
17909TIP3    H275143   3.785   2.037   2.005  0.8095 -1.3114 -1.1619
17910TIP3   OH275144   5.102   1.565  11.541  0.1479  0.6578  0.8927
17910TIP3    H175145   5.060   1.644  11.574 -0.9505  0.0825  0.9380
17910TIP3    H275146   5.114   1.581  11.448  1.5371  1.5462  1.1913
17911TIP3   OH275147   5.795   0.853  13.724  0.7443 -0.2727 -0.2662
17911TIP3    H175148   5.834   0.929  13.767  1.1319  1.0641 -2.7613
17911TIP3    H275149   5.727   0.823  13.784  2.3072  0.3841  1.9801
17912TIP3   OH275150   2.173   2.930   3.891  0.2786  0.1717  0.0254
17912TIP3    H175151   2.222   2.859   3.932  0.9084 -0.7316 -2.1045
17912TIP3    H275152   2.094   2.888   3.857  0.0287  0.7555 -0.1360
17913TIP3   OH275153   3.432   5.096   5.850  0.2439 -0.2606 -0.7971
17913TIP3    H175154   3.422   5.136   5.937 -0.1875 -1.6623 -0.1725
17913TIP3    H275155   3.518   5.125   5.820  0.4585  0.1288  0.1485
17914TIP3   OH275156   0.683   3.724  12.520 -0.0222  0.2507  0.3416
17914TIP3    H175157   0.763   3.691  12.480 -0.0705 -0.5906  0.8944
17914TIP3    H275158   0.622   3.736  12.447  0.3759  0.1936  0.0029
17915TIP3   OH275159   3.658   3.887   4.234  0.1590  0.7991 -0.0200
17915TIP3    H175160   3.741   3.877   4.280 -0.3660 -1.0118  0.6208
17915TIP3    H275161   3.640   3.981   4.236  2.6019  1.3538 -0.9563
17916TIP3   OH275162   4.907   5.691   1.941 -0.2444  0.2932 -0.7576
17916TIP3    H175163   4.902   5.754   1.870  0.4740  1.5483  0.2630
17916TIP3    H275164   4.898   5.744   2.021  2.0400 -0.6439  0.1923
17917TIP3   OH275165   0.356   1.677  15.140  0.4637  0.5319  0.1329
17917TIP3    H175166   0.373   1.766  15.171  0.7824  0.3382  0.5327
17917TIP3    H275167   0.264   1.662  15.158 -0.2810  1.7019 -2.3082
17918TIP3   OH275168   1.484   0.804  13.134 -0.3437 -0.7077  0.4272
17918TIP3    H175169   1.505   0.750  13.058 -1.8011  0.5199 -0.9309
17918TIP3    H275170   1.404   0.765  13.170 -2.8030  1.7069 -1.9737
17919TIP3   OH275171   2.321   3.668  16.428 -0.0094  0.6263  0.1756
17919TIP3    H175172   2.328   3.749  16.480  0.2982  0.7822 -0.1069
17919TIP3    H275173   2.288   3.603  16.490 -2.6695  1.5277 -0.1673
17920TIP3   OH275174   2.626   0.488   1.800 -0.9872 -0.3593 -0.0826
17920TIP3    H175175   2.649   0.537   1.879 -1.0845 -1.2954  0.5425
17920TIP3    H275176   2.541   0.524   1.774 -0.4024  0.7807 -0.4669
17921TIP3   OH275177   0.843   5.908   0.881 -0.1356 -0.2310 -0.1584
17921TIP3    H175178   0.766   5.957   0.852 -0.0189  0.2492  0.3197
17921TIP3    H275179   0.859   5.940   0.970  1.2320  0.4349 -0.6219
17922TIP3   OH275180   1.065   4.664   3.271  0.4462 -0.3490  0.4891
17922TIP3    H175181   0.982   4.687   3.313  1.0923 -0.1903  1.7236
17922TIP3    H275182   1.112   4.614   3.338  1.2640 -0.6068 -0.2650
17923TIP3   OH275183   6.026   2.624  15.191 -0.2637 -0.3725 -0.1295
17923TIP3    H175184   6.031   2.612  15.096 -1.4752  1.6392 -0.4995
17923TIP3    H275185   6.117   2.634  15.219  0.0228  0.7937 -1.3684
17924TIP3   OH275186   0.219   1.433   2.560 -0.5368 -0.3791  0.2190
17924TIP3    H175187   0.305   1.390   2.555  0.1232  0.7176  1.5570
17924TIP3    H275188   0.234   1.519   2.523 -0.7968  0.1790  1.3710
17925TIP3   OH275189   5.388   4.346   4.988 -0.6612  0.0332 -0.5028
17925TIP3    H175190   5.475   4.379   4.967 -0.2647 -0.3923  0.4346
17925TIP3    H275191   5.384   4.260   4.944  0.5111 -1.2735  1.7556
17926TIP3   OH275192   6.239   1.715  11.588 -0.2119  1.2001  0.1146
17926TIP3    H175193   6.149   1.691  11.567  0.3115 -2.3902  1.3608
17926TIP3    H275194   6.234   1.751  11.676 -0.4473  1.5808 -0.0471
17927TIP3   OH275195   2.539   6.211  14.800 -0.4490 -0.0896  0.6177
17927TIP3    H175196   2.473   6.168  14.855 -0.1408 -0.4992  0.6757
17927TIP3    H275197   2.622   6.173  14.828 -0.3762 -1.0603 -0.8060
17928TIP3   OH275198   2.205   2.754  12.572  0.0673  0.5616 -0.6744
17928TIP3    H175199   2.140   2.684  12.563  1.9431 -1.1903 -1.3460
17928TIP3    H275200   2.185   2.795  12.657  0.2079 -2.2403  0.8288
17929TIP3   OH275201   6.183   2.049   2.414 -0.6100 -0.8901 -0.1707
17929TIP3    H175202   6.108   2.034   2.471 -0.8331 -0.0644 -0.2268
17929TIP3    H275203   6.152   2.114   2.350  0.0508 -0.7875 -0.3961
17930TIP3   OH275204   4.144   2.902  11.584 -0.3937  0.4325  0.3277
17930TIP3    H175205   4.179   2.939  11.665  1.1920 -1.3266  0.5215
17930TIP3    H275206   4.215   2.910  11.521 -0.5437 -0.8626 -0.0347
17931TIP3   OH275207   0.364   3.234  14.362  1.0033  0.0752 -0.1958
17931TIP3    H175208   0.318   3.186  14.293  1.0500  1.0012 -0.8945
17931TIP3    H275209   0.313   3.314  14.372  1.4307  0.2785  0.3258
17932TIP3   OH275210   1.958   5.976  10.958  0.3024 -0.2203 -0.3697
17932TIP3    H175211   1.899   6.034  10.909 -0.2845 -0.6705 -0.2076
17932TIP3    H275212   1.997   6.032  11.025  1.1827  0.4290 -1.3792
17933TIP3   OH275213   5.816   3.882  16.594  0.7132  0.5770  0.6273
17933TIP3    H175214   5.823   3.788  16.610 -0.9159  0.0520 -1.3454
17933TIP3    H275215   5.882   3.921  16.652  0.0428 -1.5654  3.0089
17934TIP3   OH275216   3.820   3.509   3.057 -0.1733 -0.5629  0.4393
17934TIP3    H175217   3.873   3.576   3.014 -0.5191 -0.8055 -0.3844
17934TIP3    H275218   3.836   3.430   3.006 -2.1999 -0.3959 -0.5585
17935TIP3   OH275219   3.852   3.363  17.218  0.9713 -0.4215  0.2073
17935TIP3    H175220   3.855   3.438  17.159 -0.7223 -1.3813 -1.2177
17935TIP3    H275221   3.857   3.400  17.306  1.0888  1.2689 -0.4848
17936TIP3   OH275222   4.114   2.951  14.772  0.2046 -0.1212  0.1786
17936TIP3    H175223   4.136   2.935  14.864 -0.1103  2.2542  0.7358
17936TIP3    H275224   4.123   3.046  14.761 -1.1994 -0.1535 -1.8623
17937TIP3   OH275225   3.071   6.484   1.604 -0.4611  0.1412  0.0074
17937TIP3    H175226   3.023   6.473   1.687 -1.6165  0.4927 -0.5857
17937TIP3    H275227   3.107   6.398   1.586 -0.0112  0.1096  0.9800
17938TIP3   OH275228   4.649   3.046  15.702 -0.0470 -0.1606 -0.0361
17938TIP3    H175229   4.606   3.008  15.626 -1.8340  0.8327  0.4315
17938TIP3    H275230   4.651   2.975  15.766  1.9942 -1.1836 -1.1219
17939TIP3   OH275231   0.311   5.497   1.863  0.2231 -0.0536  0.5604
17939TIP3    H175232   0.372   5.567   1.887  1.9146 -1.0944 -0.4564
17939TIP3    H275233   0.224   5.533   1.880  1.0689  1.9860  0.8193
17940TIP3   OH275234   3.397   0.846  16.358  0.1250 -0.1400  0.2884
17940TIP3    H175235   3.344   0.908  16.408 -1.3498 -1.1733  0.0737
17940TIP3    H275236   3.363   0.760  16.383  1.3372 -0.8135 -0.2965
17941TIP3   OH275237   4.625   4.800   4.830  0.0609  0.2717  0.2022
17941TIP3    H175238   4.683   4.843   4.892 -1.5651  0.7920  1.4258
17941TIP3    H275239   4.547   4.856   4.826 -0.7526 -0.8588 -0.6799
17942TIP3   OH275240   3.340   1.947   4.055  0.7564  0.0990  0.2318
17942TIP3    H175241   3.321   1.863   4.099  1.7220 -1.1366 -1.5995
17942TIP3    H275242   3.412   1.984   4.106  0.5626 -0.3482  0.8566
17943TIP3   OH275243   2.641   5.835   0.191 -0.1507  0.3887  0.0728
17943TIP3    H175244   2.548   5.831   0.212 -0.5083  0.9118 -1.3172
17943TIP3    H275245   2.661   5.748   0.155 -0.4519  0.6949 -0.8863
17944TIP3   OH275246   4.932   4.046   1.703  0.7081  0.0767 -0.1652
17944TIP3    H175247   4.885   4.128   1.692 -1.1064 -0.6965  1.2516
17944TIP3    H275248   5.025   4.070   1.698  0.2178  2.0752 -0.4326
17945TIP3   OH275249   1.446   2.812  17.060  0.1366 -0.4320 -0.4985
17945TIP3    H175250   1.533   2.837  17.030  0.2484 -1.1453 -0.7813
17945TIP3    H275251   1.461   2.744  17.126 -0.0720  1.4460  1.6269
17946TIP3   OH275252   1.802   0.853  11.284 -0.0918 -0.2709 -0.1526
17946TIP3    H175253   1.791   0.759  11.274  1.6097 -0.5667  0.3693
17946TIP3    H275254   1.759   0.891  11.208 -1.4474 -1.4129  0.0162
17947TIP3   OH275255   2.625   3.685   4.412  0.1518  0.6219  0.3195
17947TIP3    H175256   2.543   3.680   4.363 -0.0558 -0.1523  0.7266
17947TIP3    H275257   2.607   3.744   4.485 -0.7114 -1.1611  1.6140
17948TIP3   OH275258   5.207   4.990  15.724 -0.0710 -0.2641 -0.6356
17948TIP3    H175259   5.212   5.032  15.810  1.2060 -0.7800 -0.4402
17948TIP3    H275260   5.196   4.897  15.743 -3.7465 -0.0753 -1.0603
17949TIP3   OH275261   3.479   0.268  15.435  0.9463  0.2610  0.0454
17949TIP3    H175262   3.479   0.363  15.436  2.0859  0.3095 -1.2495
17949TIP3    H275263   3.514   0.245  15.349 -0.1019 -1.3325 -0.0151
17950TIP3   OH275264   3.139   6.722  11.430 -0.0969  0.4970  0.1710
17950TIP3    H175265   3.203   6.792  11.424 -0.2819  0.6842  0.3749
17950TIP3    H275266   3.060   6.759  11.389 -0.7574  1.0619  1.8827
17951TIP3   OH275267   4.286   0.106   5.038 -0.4328  0.3350  0.3321
17951TIP3    H175268   4.268   0.057   4.958 -1.5095  0.9040  0.2208
17951TIP3    H275269   4.378   0.085   5.058 -0.4493 -0.6067 -0.4814
17952TIP3   OH275270   4.033   0.693   3.345  0.0919  0.0672 -0.5251
17952TIP3    H175271   4.116   0.646   3.353 -0.0641 -0.1392 -0.1037
17952TIP3    H275272   3.966   0.625   3.349 -0.2025  0.4098  1.4443
17953TIP3   OH275273   5.898   2.773   5.008 -0.1071  0.6844 -0.5195
17953TIP3    H175274   5.935   2.723   5.080 -1.1707  0.2039 -0.2889
17953TIP3    H275275   5.821   2.817   5.045  0.1249  1.5465 -1.0186
17954TIP3   OH275276   6.127   0.789   5.251 -0.2919 -0.0018  0.0082
17954TIP3    H175277   6.119   0.858   5.185  0.2764  2.3186  2.1961
17954TIP3    H275278   6.037   0.773   5.280 -0.3113  0.9182  0.4939
17955TIP3   OH275279   4.236   5.775   5.113 -0.3331 -0.5720  0.3026
17955TIP3    H175280   4.145   5.792   5.138 -0.6630 -0.6262 -0.7988
17955TIP3    H275281   4.229   5.712   5.041  0.5141  0.3608 -0.6212
17956TIP3   OH275282   5.630   4.369   4.361  0.3127 -0.1219  0.3865
17956TIP3    H175283   5.701   4.422   4.326  0.8560 -0.0307  1.5835
17956TIP3    H275284   5.634   4.287   4.312  0.4223  0.3662 -0.4311
17957TIP3   OH275285   4.419   4.156   3.825  0.5979  0.1549 -0.0253
17957TIP3    H175286   4.504   4.183   3.792  0.5760 -0.6251 -0.7429
17957TIP3    H275287   4.394   4.082   3.770  0.3975 -0.9651  1.5106
17958TIP3   OH275288   1.627   5.102   4.913 -0.1285 -0.7514 -0.5001
17958TIP3    H175289   1.575   5.159   4.969  1.1546 -0.8004  0.8022
17958TIP3    H275290   1.693   5.065   4.971 -0.1913 -2.6539 -1.5752
17959TIP3   OH275291   3.916   6.318   5.762  0.0660  0.6286 -0.5609
17959TIP3    H175292   3.976   6.256   5.720 -0.8691 -0.3289 -0.5388
17959TIP3    H275293   3.941   6.316   5.854 -0.6897 -0.6334 -0.3571
17960TIP3   OH275294   6.033   3.490  12.850  0.4577  0.5690  0.8934
17960TIP3    H175295   6.039   3.579  12.814  2.0113  1.1306  2.3935
17960TIP3    H275296   6.025   3.503  12.945 -0.2719 -0.8881  1.0584
17961TIP3   OH275297   1.975   0.216  16.054 -0.2550  0.4230 -0.7487
17961TIP3    H175298   2.018   0.131  16.058 -0.2653  0.4527  0.3628
17961TIP3    H275299   1.904   0.210  16.119 -0.4768  1.1511 -0.9112
17962TIP3   OH275300   0.630   0.113   0.572 -0.4463  0.0402  0.1652
17962TIP3    H175301   0.653   0.045   0.636  1.8806  1.1151  0.6024
17962TIP3    H275302   0.679   0.090   0.494 -0.9214  0.3459 -0.2258
17963TIP3   OH275303   1.187   5.021  16.982 -0.4664 -0.6499 -0.0014
17963TIP3    H175304   1.257   5.010  17.046  0.9368  2.1146 -0.8731
17963TIP3    H275305   1.215   5.097  16.930 -2.0527 -2.0916 -3.1899
17964TIP3   OH275306   1.612   0.773   3.514  0.2392 -0.1385  0.1558
17964TIP3    H175307   1.567   0.840   3.565 -0.7728  1.4500 -2.6183
17964TIP3    H275308   1.575   0.690   3.546 -0.2457  0.7436  2.0109
17965TIP3   OH275309   3.380   3.836   2.660  0.8039  0.2969 -0.2715
17965TIP3    H175310   3.381   3.746   2.629 -0.3044  0.1149  0.1399
17965TIP3    H275311   3.372   3.890   2.581 -3.2785 -0.2002 -0.4116
17966TIP3   OH275312   1.659   1.015   6.032 -0.3921  0.8605 -0.0658
17966TIP3    H175313   1.590   0.963   5.990 -0.5176  1.2366 -0.3257
17966TIP3    H275314   1.739   0.990   5.987 -0.2880  0.1401  0.4861
17967TIP3   OH275315   6.552   3.647   3.100 -0.5021  0.0879  0.1088
17967TIP3    H175316   6.461   3.623   3.081 -0.2583  0.1915 -1.2906
17967TIP3    H275317   6.565   3.731   3.055  0.0291  0.5288  1.0539
17968TIP3   OH275318   4.897   1.877  16.328 -0.6861 -0.1631 -0.1591
17968TIP3    H175319   4.936   1.911  16.248 -1.6231 -0.3809 -0.7243
17968TIP3    H275320   4.925   1.785  16.331  0.3180  0.1529  0.3923
17969TIP3   OH275321   2.760   5.979  15.135 -0.2883  0.2146  0.0078
17969TIP3    H175322   2.760   6.040  15.209  1.4712 -0.9718  1.0751
17969TIP3    H275323   2.852   5.954  15.125 -0.9354 -2.3261 -0.2784
17970TIP3   OH275324   5.801   4.427  16.854  0.3690  0.0792 -0.1041
17970TIP3    H175325   5.897   4.423  16.857  0.3019 -1.1867  0.8198
17970TIP3    H275326   5.781   4.428  16.760  1.2686 -0.2437 -0.3157
17971TIP3   OH275327   1.627   3.365   3.776 -0.1090  0.5701 -0.2625
17971TIP3    H175328   1.535   3.376   3.754 -0.3262 -0.6059  0.0147
17971TIP3    H275329   1.665   3.452   3.763 -1.0453  0.8467 -1.3344
17972TIP3   OH275330   5.118   0.396  12.993  0.3755  0.2280 -0.1446
17972TIP3    H175331   5.132   0.481  12.952 -0.4267 -0.1088 -1.1585
17972TIP3    H275332   5.126   0.333  12.921 -1.5792 -0.3314  0.0724
17973TIP3   OH275333   3.575   0.559  11.742  0.8757 -0.5125 -1.4362
17973TIP3    H175334   3.632   0.631  11.770 -0.4391  0.4618 -1.1666
17973TIP3    H275335   3.563   0.574  11.648 -0.3599  0.3669 -1.1671
17974TIP3   OH275336   6.491   0.204   5.934  0.2321 -0.1905  0.6424
17974TIP3    H175337   6.523   0.175   6.020  1.8239 -2.9569 -0.7158
17974TIP3    H275338   6.562   0.258   5.900 -0.0742  0.2896  0.7605
17975TIP3   OH275339   0.504   0.968  12.402  0.2007 -0.0021  0.3899
17975TIP3    H175340   0.424   1.018  12.383 -0.2449 -1.0467 -0.6493
17975TIP3    H275341   0.476   0.877  12.395  1.1488 -0.3971  1.5745
17976TIP3   OH275342   2.510   6.440   3.703 -0.1240 -0.1006  0.0977
17976TIP3    H175343   2.430   6.387   3.697  0.9208 -1.8346  0.7849
17976TIP3    H275344   2.528   6.464   3.612 -1.5552  0.5732 -0.0460
17977TIP3   OH275345   3.511   6.326   3.320 -0.8901  0.1650 -0.0849
17977TIP3    H175346   3.521   6.264   3.247  0.6196  0.6240 -0.2950
17977TIP3    H275347   3.529   6.274   3.398 -1.0656  0.0066 -0.1489
17978TIP3   OH275348   1.229   1.200  12.408  0.0346  0.0354 -0.3238
17978TIP3    H175349   1.303   1.226  12.353 -0.6676  1.2345 -0.7362
17978TIP3    H275350   1.152   1.233  12.362 -0.5692  1.2908  1.4527
17979TIP3   OH275351   2.029   4.493   3.978 -0.2413  0.1523  0.1704
17979TIP3    H175352   2.088   4.564   4.004  0.5979 -0.3448 -0.3518
17979TIP3    H275353   1.986   4.468   4.060 -2.3361  2.7796  0.0475
17980TIP3   OH275354   2.226   5.850   1.291  0.2574  0.0163 -0.3934
17980TIP3    H175355   2.252   5.930   1.338  1.3656 -1.0468  0.9082
17980TIP3    H275356   2.198   5.881   1.205 -0.6212  1.9307  0.5052
17981TIP3   OH275357   4.214   0.607   2.292  0.2838  0.2849  0.5567
17981TIP3    H175358   4.210   0.627   2.198 -0.3224  0.0276  0.5196
17981TIP3    H275359   4.214   0.693   2.335 -0.5004  0.4044  0.3434
17982TIP3   OH275360   6.678   4.716   2.945  0.2866 -0.5216 -0.3476
17982TIP3    H175361   6.584   4.699   2.953  0.3559 -1.2527 -0.9889
17982TIP3    H275362   6.698   4.696   2.853  0.6747  1.6401 -0.7835
17983TIP3   OH275363   2.337   0.508   1.735 -0.0188  0.2726  0.6863
17983TIP3    H175364   2.289   0.478   1.812  0.6588  2.8468  2.2268
17983TIP3    H275365   2.292   0.588   1.708  2.3199  1.8803  1.2144
17984TIP3   OH275366   6.325   5.043   2.385 -0.2408 -0.4302 -0.2677
17984TIP3    H175367   6.327   4.971   2.322 -0.1209 -1.1223  0.5155
17984TIP3    H275368   6.273   5.009   2.458 -1.7602  0.9267 -0.6617
17985TIP3   OH275369   6.568   5.892   6.007 -0.3659 -0.2901  0.3477
17985TIP3    H175370   6.602   5.899   5.918 -0.0481 -2.1138  0.2776
17985TIP3    H275371   6.548   5.982   6.033 -0.4019  0.2831 -1.5288
17986TIP3   OH275372   1.444   0.597   5.236 -0.8154 -0.5650  0.5498
17986TIP3    H175373   1.487   0.530   5.183 -1.0081 -0.7181  0.5827
17986TIP3    H275374   1.477   0.680   5.202  0.9273 -0.7052  1.7807
17987TIP3   OH275375   6.118   0.811  12.339 -0.1871  0.3619 -0.2439
17987TIP3    H175376   6.181   0.744  12.312 -0.3912  0.4902 -1.0584
17987TIP3    H275377   6.033   0.766  12.337 -0.1259  0.1618  0.9451
17988TIP3   OH275378   6.025   5.083  16.853  0.1222 -0.0380 -0.2934
17988TIP3    H175379   5.933   5.097  16.831  0.8189  1.0743 -2.8012
17988TIP3    H275380   6.051   5.162  16.900  0.1334  0.2448 -0.7729
17989TIP3   OH275381   4.488   0.499  12.081 -0.2779  0.3361  0.1879
17989TIP3    H175382   4.514   0.441  12.153  2.6237 -0.6912 -1.5106
17989TIP3    H275383   4.494   0.587  12.119  0.0565 -0.2199  1.5120
17990TIP3   OH275384   4.129   3.037   5.110 -0.0693  0.1482  0.2639
17990TIP3    H175385   4.149   3.029   5.017 -1.8898 -2.5887 -0.0017
17990TIP3    H275386   4.185   2.971   5.152 -0.8138 -0.1583  0.7991
17991TIP3   OH275387   0.528   5.090  11.246  0.3257 -0.2682 -0.0051
17991TIP3    H175388   0.519   5.040  11.164 -2.0588  0.1130 -0.0189
17991TIP3    H275389   0.541   5.023  11.313  0.9859 -0.6560 -0.5000
17992TIP3   OH275390   5.564   2.669  17.058 -0.4003 -0.6753 -0.8055
17992TIP3    H175391   5.617   2.592  17.080  0.4331 -0.3347 -1.5407
17992TIP3    H275392   5.519   2.644  16.977 -0.0109 -0.3431 -1.1268
17993TIP3   OH275393   1.484   4.787   3.399 -0.2571  0.2862 -0.1910
17993TIP3    H175394   1.474   4.712   3.339  2.2179  0.1198 -0.4862
17993TIP3    H275395   1.479   4.864   3.342 -0.4791  0.2486 -0.2244
17994TIP3   OH275396   1.350   5.211   5.637 -0.0069 -0.0972 -0.5526
17994TIP3    H175397   1.362   5.286   5.695 -2.5210  0.1097 -0.2078
17994TIP3    H275398   1.321   5.141   5.694  1.4034 -1.1068 -1.0171
17995TIP3   OH275399   0.023   3.576  12.001  0.0156  0.4904 -0.1923
17995TIP3    H175400  -0.012   3.617  12.080 -1.5045  1.0700 -1.1249
17995TIP3    H275401   0.050   3.489  12.029 -1.2555  0.3876  0.8240
17996TIP3   OH275402   0.198   5.193   4.550 -0.5310 -0.0926  0.5086
17996TIP3    H175403   0.208   5.221   4.641 -1.6322  0.7998  0.3797
17996TIP3    H275404   0.113   5.149   4.548 -1.0779  0.9730 -0.3273
17997TIP3   OH275405   5.172   4.796  10.691 -0.0872  0.4159 -0.3406
17997TIP3    H175406   5.215   4.863  10.743 -0.1237  0.4717 -0.3811
17997TIP3    H275407   5.102   4.842  10.645  0.3924  0.5077 -0.9869
17998TIP3   OH275408   2.473   2.945   3.578  0.2442  0.0694  0.3122
17998TIP3    H175409   2.451   2.910   3.492  2.7093 -1.3515  0.1994
17998TIP3    H275410   2.552   2.998   3.564  0.8660 -0.4304  1.7302
17999TIP3   OH275411   1.912   3.140   3.090 -0.2303  0.1674 -0.6756
17999TIP3    H175412   1.893   3.053   3.056 -1.2828 -0.4694  1.3616
17999TIP3    H275413   2.004   3.137   3.116 -0.6282 -0.8902  0.7510
18000TIP3   OH275414   3.296   4.764   4.168  0.6307  0.0528 -0.0875
18000TIP3    H175415   3.232   4.814   4.218  0.2777 -0.1442 -0.3329
18000TIP3    H275416   3.369   4.751   4.228 -0.4513 -1.6048  0.9733
18001TIP3   OH275417   6.358   6.470  15.560  0.0266 -0.2132 -0.2073
18001TIP3    H175418   6.307   6.402  15.604 -0.3293 -0.2383 -0.6440
18001TIP3    H275419   6.353   6.447  15.467  0.8219 -0.2004 -0.2541
18002TIP3   OH275420   2.887   0.310  14.151  1.0129  0.0203 -0.4638
18002TIP3    H175421   2.941   0.254  14.207  0.3760  1.0956  1.2975
18002TIP3    H275422   2.939   0.390  14.140 -0.0001  0.9250  0.9571
18003TIP3   OH275423   0.160   0.434  14.691 -0.2019 -0.3691 -0.3690
18003TIP3    H175424   0.098   0.411  14.761 -0.1320 -0.7592 -0.4332
18003TIP3    H275425   0.116   0.503  14.642 -0.0465  0.2669  0.3569
18004TIP3   OH275426   0.512   6.737   0.801 -0.1686 -0.6245 -0.6609
18004TIP3    H175427   0.512   6.814   0.857 -0.9445 -2.5302  2.2051
18004TIP3    H275428   0.581   6.681   0.837  2.0147 -0.4543 -4.1258
18005TIP3   OH275429   4.410   3.873   0.092 -0.1980  0.3182 -0.4672
18005TIP3    H175430   4.410   3.786   0.132 -0.0959  0.8968  0.8311
18005TIP3    H275431   4.499   3.906   0.106 -0.3562  0.8001 -0.5741
18006TIP3   OH275432   1.682   0.483  14.119 -0.4920  0.6375  0.0271
18006TIP3    H175433   1.776   0.473  14.133 -0.8605 -1.2736  1.6548
18006TIP3    H275434   1.650   0.393  14.107 -1.7710  1.4031 -3.3802
18007TIP3   OH275435   4.017   5.611  12.067 -0.2905 -0.1555  0.4490
18007TIP3    H175436   3.931   5.645  12.093  0.0661  2.0484 -0.9945
18007TIP3    H275437   3.997   5.530  12.019 -1.4777 -0.0795  0.7676
18008TIP3   OH275438   6.583   0.226   2.321 -0.5997  0.5459  0.1359
18008TIP3    H175439   6.544   0.220   2.233  0.0779  1.5854 -0.2654
18008TIP3    H275440   6.515   0.269   2.374 -0.2651  1.8003 -0.4101
18009TIP3   OH275441   6.031   4.607  15.223  0.2430  0.4652 -0.0338
18009TIP3    H175442   5.974   4.629  15.297  1.1830  0.8074  0.6092
18009TIP3    H275443   6.083   4.686  15.209  1.5460 -0.2949  0.3179
18010TIP3   OH275444   1.211   0.296   3.166 -0.4060 -0.4088 -0.2473
18010TIP3    H175445   1.135   0.239   3.179 -0.1738 -0.1732  3.2131
18010TIP3    H275446   1.285   0.242   3.194  0.0633  0.8640  1.0683
18011TIP3   OH275447   0.757   5.667   3.897  0.4360  0.5420 -0.0750
18011TIP3    H175448   0.766   5.625   3.811  0.2049  2.1714 -0.9231
18011TIP3    H275449   0.842   5.709   3.911 -0.0650  1.6225 -0.2474
18012TIP3   OH275450   6.010   4.026   2.345 -0.1242  0.9837  0.1017
18012TIP3    H175451   5.926   4.067   2.321 -0.3221  0.2945 -0.4189
18012TIP3    H275452   6.030   4.062   2.431 -1.1566  0.8791  0.4067
18013TIP3   OH275453   6.673   0.174   4.241 -0.0385 -0.5311  0.5001
18013TIP3    H175454   6.599   0.146   4.296  1.1522 -2.1135  1.4070
18013TIP3    H275455   6.677   0.109   4.171 -1.7376  1.6503 -1.7684
18014TIP3   OH275456   4.337   2.661   4.215  0.3668 -0.8590  0.3080
18014TIP3    H175457   4.429   2.681   4.230  0.0535  0.5857  0.4607
18014TIP3    H275458   4.294   2.746   4.211 -0.8990 -1.4910 -0.2345
18015TIP3   OH275459   5.152   4.164   5.847  0.3200 -0.5134  0.2994
18015TIP3    H175460   5.120   4.133   5.932  2.1593 -2.0451  0.4992
18015TIP3    H275461   5.089   4.130   5.784 -0.5045 -0.2345  0.9537
18016TIP3   OH275462   4.843   3.895   3.351 -0.4476  0.1890  0.2389
18016TIP3    H175463   4.863   3.901   3.258  0.4981  0.1445  0.4298
18016TIP3    H275464   4.777   3.825   3.356  0.5577 -0.8421 -0.2611
18017TIP3   OH275465   1.192   6.263  13.832  0.4103 -0.2741 -0.0673
18017TIP3    H175466   1.109   6.267  13.879  0.3948 -1.0064 -0.0273
18017TIP3    H275467   1.245   6.201  13.882  1.4914  1.1703  0.6968
18018TIP3   OH275468   2.817   2.995  14.114  0.5056 -0.6348 -0.7192
18018TIP3    H175469   2.854   3.073  14.071 -0.6441 -1.0689 -2.6298
18018TIP3    H275470   2.867   2.987  14.195  0.9125  1.8703 -0.6315
18019TIP3   OH275471   0.645   0.903  13.913 -0.0208  0.7717  0.2337
18019TIP3    H175472   0.644   0.963  13.838  0.2466  1.1617  0.5427
18019TIP3    H275473   0.646   0.815  13.874  0.2424  0.9760 -0.2165
18020TIP3   OH275474   3.591   4.993  10.922 -0.7046  0.3669  0.6939
18020TIP3    H175475   3.526   4.934  10.885  1.7934 -1.6440 -0.7967
18020TIP3    H275476   3.598   5.065  10.859 -0.6633 -0.0014  0.2803
18021TIP3   OH275477   5.006   2.277   0.058 -0.4363  0.0794  0.2484
18021TIP3    H175478   5.022   2.349  -0.003 -1.2325 -0.0550 -0.1371
18021TIP3    H275479   4.916   2.251   0.040 -0.4205 -0.4733  0.9562
18022TIP3   OH275480   5.529   2.921  16.740 -0.0486  0.7197 -0.2239
18022TIP3    H175481   5.508   2.995  16.797 -0.8673  0.5994 -0.3514
18022TIP3    H275482   5.446   2.874  16.731 -0.0918  1.0803 -2.0190
18023TIP3   OH275483   3.990   6.764  14.729  0.2997  0.3189 -0.3523
18023TIP3    H175484   4.063   6.765  14.667  1.8822 -1.2301  1.3499
18023TIP3    H275485   3.916   6.731  14.678  0.2406  3.3447 -2.5462
18024TIP3   OH275486   6.433   6.129   5.264  0.3816  0.6279  0.0159
18024TIP3    H175487   6.507   6.189   5.260 -0.1236  1.3364  0.8784
18024TIP3    H275488   6.417   6.104   5.173  0.9778  1.3308 -0.2893
18025TIP3   OH275489   0.011   1.997   5.188  0.5367 -0.5101 -0.5413
18025TIP3    H175490   0.009   1.989   5.093 -0.0826 -0.2687 -0.5567
18025TIP3    H275491   0.002   2.091   5.204 -1.9151 -0.7408 -0.2199
18026TIP3   OH275492   3.794   6.773   1.636 -0.5783 -0.7257  0.7595
18026TIP3    H175493   3.791   6.868   1.626  0.5289 -0.6004  1.5089
18026TIP3    H275494   3.720   6.741   1.583 -0.4098  0.4788 -0.2381
18027TIP3   OH275495   6.247   0.334  15.942  0.9402  0.4210  0.2270
18027TIP3    H175496   6.275   0.403  15.883  1.3620  1.3849  1.5031
18027TIP3    H275497   6.275   0.253  15.899  0.7965  1.0439 -1.1002
18028TIP3   OH275498   0.806   0.223  12.250  0.0323  0.3323 -0.3656
18028TIP3    H175499   0.710   0.228  12.242  0.0433  0.4638 -0.4248
18028TIP3    H275500   0.827   0.132  12.231 -0.2500 -0.1289  1.3674
18029TIP3   OH275501   2.241   0.816  14.101 -0.1767  0.2731 -0.2936
18029TIP3    H175502   2.282   0.804  14.187 -0.4206  1.3691 -0.0165
18029TIP3    H275503   2.276   0.899  14.068 -1.2711  0.6445 -0.5638
18030TIP3   OH275504   4.099   4.029  12.877  0.1098 -0.1373 -0.2803
18030TIP3    H175505   4.150   4.083  12.817  1.4553 -0.2869  0.6709
18030TIP3    H275506   4.025   4.084  12.902  0.0691  0.2948 -1.2863
18031TIP3   OH275507   0.707   0.293  14.058 -0.6122 -0.2141 -0.1837
18031TIP3    H175508   0.616   0.322  14.063 -0.3108  0.5542  1.6260
18031TIP3    H275509   0.710   0.237  13.981 -2.1479  1.3774 -1.4889
18032TIP3   OH275510   5.948   2.440   5.862 -0.0565 -0.5470  0.6000
18032TIP3    H175511   5.920   2.516   5.811 -2.2760 -1.8378 -0.2348
18032TIP3    H275512   5.896   2.445   5.943  1.0622 -0.2612  1.3154
18033TIP3   OH275513   4.419   0.017  15.119 -0.3670 -0.7379 -0.5086
18033TIP3    H175514   4.452  -0.054  15.063  0.2943  0.9784 -2.4232
18033TIP3    H275515   4.478   0.090  15.102 -0.5833  0.0998  1.9858
18034TIP3   OH275516   4.141   3.101   0.431  0.1319  0.7632  0.2225
18034TIP3    H175517   4.050   3.129   0.419 -0.3081 -0.3570  0.8124
18034TIP3    H275518   4.193   3.180   0.415 -0.9422  1.4129 -0.1361
18035TIP3   OH275519   5.311   6.726  12.159 -0.4746  0.1573  0.4506
18035TIP3    H175520   5.327   6.779  12.081 -0.7923  0.2655  0.4590
18035TIP3    H275521   5.273   6.645  12.125  0.7581 -0.4077  0.3629
18036TIP3   OH275522   5.432   4.757  10.967  0.4871 -0.0670  0.1129
18036TIP3    H175523   5.359   4.811  10.937  1.4661  1.6852  0.7505
18036TIP3    H275524   5.398   4.714  11.046 -0.1220  0.0628 -0.0711
18037TIP3   OH275525   3.474   4.398  14.104  0.8562 -0.0581  0.0612
18037TIP3    H175526   3.416   4.323  14.093 -0.4232  0.7974  0.7237
18037TIP3    H275527   3.562   4.361  14.103  0.2750 -1.4802 -0.2269
18038TIP3   OH275528   2.780   5.555   4.807 -0.2366 -0.5002  0.5536
18038TIP3    H175529   2.732   5.540   4.888  1.5723 -0.2846  1.7303
18038TIP3    H275530   2.838   5.628   4.827  0.6379 -0.8047 -0.7617
18039TIP3   OH275531   5.595   2.013   0.634 -0.2465  0.2068 -0.0043
18039TIP3    H175532   5.608   1.966   0.717 -1.9909  0.6553  0.5748
18039TIP3    H275533   5.626   1.953   0.567 -0.8438 -1.1026  0.8378
18040TIP3   OH275534   4.788   4.596  17.361 -0.7466 -0.4522 -0.4991
18040TIP3    H175535   4.727   4.626  17.429  1.1496 -0.8577  1.4775
18040TIP3    H275536   4.808   4.674  17.310 -0.0687  0.5242  1.1858
18041TIP3   OH275537   6.261   5.963   5.612 -0.2151 -0.3667 -0.4996
18041TIP3    H175538   6.204   5.888   5.629 -1.0264  0.4339  0.4890
18041TIP3    H275539   6.338   5.926   5.569  0.0557 -1.9728  1.2601
18042TIP3   OH275540   0.239   5.706   3.846 -0.1560  0.0276 -0.1613
18042TIP3    H175541   0.310   5.673   3.790  0.5948  1.6852 -0.2367
18042TIP3    H275542   0.240   5.648   3.923  1.0337 -0.1970 -0.3326
18043TIP3   OH275543   0.814   0.972  16.354 -0.2877  0.7122  0.2977
18043TIP3    H175544   0.853   0.990  16.268  0.2099 -0.2747  0.2899
18043TIP3    H275545   0.821   1.054  16.402  1.5036  0.6704  0.1690
18044TIP3   OH275546   1.470   0.750  10.446  0.3219  0.4435 -0.1531
18044TIP3    H175547   1.408   0.677  10.453 -1.5050  1.9910  1.0203
18044TIP3    H275548   1.436   0.802  10.373  1.8001 -0.0147 -1.2014
18045TIP3   OH275549   0.936   3.820  15.877  0.0490  0.2719  0.5171
18045TIP3    H175550   0.934   3.725  15.887 -1.4109  0.2212 -0.1054
18045TIP3    H275551   0.949   3.853  15.966  0.6877 -0.4916  0.7238
18046TIP3   OH275552   0.427   2.246   5.814  0.6655 -0.2844  0.1891
18046TIP3    H175553   0.489   2.173   5.808  0.3773 -0.5335  0.2108
18046TIP3    H275554   0.408   2.269   5.724 -1.5664 -2.2319  0.0873
18047TIP3   OH275555   6.579   5.283   3.175  0.0882  0.5475  0.5223
18047TIP3    H175556   6.610   5.336   3.249 -0.0095 -1.2361  1.9006
18047TIP3    H275557   6.658   5.257   3.129  0.1117  2.3102 -0.5322
18048TIP3   OH275558   3.355   1.561   2.309 -0.1889 -0.5603 -0.6317
18048TIP3    H175559   3.378   1.622   2.379 -0.2216 -0.4320 -0.7332
18048TIP3    H275560   3.369   1.610   2.228 -3.7327  0.5915 -0.7069
18049TIP3   OH275561   2.561   2.850   0.165 -0.0856  0.7851  0.4685
18049TIP3    H175562   2.491   2.913   0.150 -1.1758 -0.2379  1.0949
18049TIP3    H275563   2.549   2.821   0.255 -0.4046 -1.2369 -0.1747
18050TIP3   OH275564   3.239   1.183   6.568 -0.0777 -0.0598 -0.0984
18050TIP3    H175565   3.249   1.088   6.556  1.8839 -0.2435  2.2292
18050TIP3    H275566   3.309   1.221   6.515 -1.3309  0.2142 -1.6415
18051TIP3   OH275567   3.543   0.134  15.853  0.8248  0.3444 -0.0704
18051TIP3    H175568   3.455   0.138  15.817 -0.6922  1.8421  3.3772
18051TIP3    H275569   3.575   0.048  15.828 -1.5465 -0.1854 -1.5880
18052TIP3   OH275570   2.212   1.163  12.978 -0.1187 -0.3963  0.2590
18052TIP3    H175571   2.186   1.193  12.890  0.4636 -0.4194  0.0796
18052TIP3    H275572   2.244   1.074  12.965  0.0546 -0.3670  0.4839
18053TIP3   OH275573   4.203   3.641  15.375  0.5978 -0.0960 -0.3250
18053TIP3    H175574   4.209   3.727  15.334 -1.5653 -0.2702 -1.1197
18053TIP3    H275575   4.283   3.596  15.347  0.5797  0.8217 -1.9610
18054TIP3   OH275576   0.556   1.186  14.951 -0.0064 -0.2145 -0.2165
18054TIP3    H175577   0.591   1.132  15.022  0.5923  0.8975  0.3584
18054TIP3    H275578   0.632   1.229  14.913 -0.6852  3.5548  2.1100
18055TIP3   OH275579   5.085   6.144  15.523 -0.3154  0.5072  0.0067
18055TIP3    H175580   5.110   6.179  15.609 -2.0578  0.3054  0.6329
18055TIP3    H275581   5.119   6.208  15.460  1.4630  0.3828  0.7778
18056TIP3   OH275582   3.397   5.597  10.480  0.1146  0.2333  0.2463
18056TIP3    H175583   3.353   5.639  10.553 -2.3727  0.2169 -1.1348
18056TIP3    H275584   3.361   5.640  10.402 -0.0020 -2.0946 -1.0830
18057TIP3   OH275585   6.521   4.855  12.970 -0.1654  0.0819  0.3218
18057TIP3    H175586   6.491   4.911  13.041  0.6999 -0.9826  1.5617
18057TIP3    H275587   6.605   4.893  12.944  0.4811 -0.6646  1.2460
18058TIP3   OH275588   4.361   1.520  15.495  0.2966  0.3193  0.3180
18058TIP3    H175589   4.314   1.476  15.565 -1.2546  0.1470 -0.7737
18058TIP3    H275590   4.439   1.467  15.481 -0.5252 -0.9530  0.3838
18059TIP3   OH275591   2.205   1.500   5.507 -0.8854 -0.1736 -0.3143
18059TIP3    H175592   2.138   1.569   5.510  1.3972  2.1660  2.1366
18059TIP3    H275593   2.276   1.538   5.455  0.0894 -1.0200  0.3568
18060TIP3   OH275594   3.321   4.763   0.701  0.0350 -0.1865 -0.3343
18060TIP3    H175595   3.382   4.826   0.663 -3.1028  2.0703 -2.0860
18060TIP3    H275596   3.264   4.816   0.757 -2.3974 -1.4778 -1.4443
18061TIP3   OH275597   5.194   5.339  17.152  0.1603  0.3361  0.7259
18061TIP3    H175598   5.108   5.364  17.116  0.8010  0.1225 -1.0380
18061TIP3    H275599   5.233   5.423  17.178  0.3820  0.7184 -0.7483
18062TIP3   OH275600   0.112   5.937   1.041 -1.2571 -0.6790 -0.1250
18062TIP3    H175601   0.090   5.982   1.123 -1.3166 -1.7850  0.4985
18062TIP3    H275602   0.034   5.885   1.021 -1.5424  0.1867 -1.3267
18063TIP3   OH275603   1.416   6.293  14.752 -0.1166 -0.2298 -0.1548
18063TIP3    H175604   1.473   6.284  14.828  0.4540 -1.2496 -0.6873
18063TIP3    H275605   1.413   6.206  14.713  0.4286  0.4857 -1.8836
18064TIP3   OH275606   4.371   2.931  15.608  0.1433 -0.5249 -0.0724
18064TIP3    H175607   4.341   2.979  15.685  1.8506  0.8206 -0.1747
18064TIP3    H275608   4.342   2.841  15.623  0.6956 -0.3786  2.2972
18065TIP3   OH275609   4.409   1.566   1.814  0.0975  0.0860 -0.0489
18065TIP3    H175610   4.373   1.641   1.768 -0.3420  0.3526  0.7244
18065TIP3    H275611   4.463   1.603   1.884  0.4286 -0.3128 -0.0859
18066TIP3   OH275612   0.462   0.948   4.699  0.2091  0.0916  0.1625
18066TIP3    H175613   0.504   0.948   4.785  0.7139 -0.2149 -0.0810
18066TIP3    H275614   0.506   1.017   4.650  1.1005 -0.8548 -0.4089
18067TIP3   OH275615   1.584   2.727   6.850 -0.0491  0.2583  0.1905
18067TIP3    H175616   1.554   2.781   6.776 -0.9715 -0.8894 -0.3027
18067TIP3    H275617   1.561   2.778   6.928 -1.0586  0.5124 -0.2581
18068TIP3   OH275618   5.663   4.971  12.751  0.4148  0.0076 -0.0151
18068TIP3    H175619   5.706   4.952  12.668 -0.6026 -1.2033 -0.2984
18068TIP3    H275620   5.579   5.011  12.726 -0.1165 -0.8343  0.4010
18069TIP3   OH275621   4.044   5.270   3.816  0.8440  0.6103  0.3293
18069TIP3    H175622   4.052   5.352   3.865  0.8897  0.9740 -0.2830
18069TIP3    H275623   3.952   5.247   3.822  0.1450  2.4071 -2.1764
18070TIP3   OH275624   5.099   3.517   1.793  0.0377 -0.3149  1.0327
18070TIP3    H175625   5.176   3.509   1.849 -0.0790 -0.0921  1.2289
18070TIP3    H275626   5.037   3.568   1.846 -0.1299 -0.2364  0.7594
18071TIP3   OH275627   4.020   5.868  12.590  0.1464 -0.1189  0.4713
18071TIP3    H175628   3.967   5.818  12.652 -0.0438  1.7484  1.9175
18071TIP3    H275629   3.993   5.959  12.604  1.0805  0.5114 -1.4316
18072TIP3   OH275630   4.300   4.346   2.990  0.5614  0.3523  0.0401
18072TIP3    H175631   4.245   4.360   2.913  0.1034  0.6584  0.4188
18072TIP3    H275632   4.387   4.375   2.964  0.4906  0.0979 -0.4831
18073TIP3   OH275633   4.113   0.860  12.672  0.1461  0.3199  0.6275
18073TIP3    H175634   4.155   0.912  12.741  1.9262 -0.0021 -0.1609
18073TIP3    H275635   4.098   0.922  12.601 -0.8294  0.4426  0.9159
18074TIP3   OH275636   6.606   5.462  13.250 -0.3760  0.0939 -0.1944
18074TIP3    H175637   6.559   5.502  13.323  1.0221  0.9595  0.2716
18074TIP3    H275638   6.584   5.369  13.256 -0.0686  0.0920  1.5267
18075TIP3   OH275639   4.246   4.808  14.803  0.3827  0.0686  0.3270
18075TIP3    H175640   4.253   4.879  14.739 -0.5523 -0.1169  0.0063
18075TIP3    H275641   4.332   4.766  14.802 -0.5855 -2.3742 -3.6770
18076TIP3   OH275642   1.720   1.494   4.038 -0.2234  0.2680 -0.0476
18076TIP3    H175643   1.780   1.432   3.997 -0.6873  1.4314 -2.6921
18076TIP3    H275644   1.776   1.548   4.094  0.3673 -1.6453  1.3361
18077TIP3   OH275645   4.989   0.396  11.653  0.6623 -0.2924  0.0663
18077TIP3    H175646   4.927   0.383  11.725  1.0925 -1.8015  0.1785
18077TIP3    H275647   5.051   0.324  11.660  1.6975  0.4683 -0.8297
18078TIP3   OH275648   1.037   6.541   3.319 -0.2681  0.1741  0.0411
18078TIP3    H175649   0.997   6.595   3.251 -0.9351  2.2011  1.9439
18078TIP3    H275650   1.043   6.454   3.279 -0.6214  1.2472 -2.5760
18079TIP3   OH275651   3.451   6.353  13.419  0.0103 -0.1568 -0.7395
18079TIP3    H175652   3.487   6.331  13.504 -0.1268  1.7146 -0.1523
18079TIP3    H275653   3.380   6.289  13.405  1.4340 -1.8538 -0.4915
18080TIP3   OH275654   3.361   4.067  11.246  0.7092  0.2582  0.1906
18080TIP3    H175655   3.311   3.995  11.207  0.8763 -0.2821  0.9465
18080TIP3    H275656   3.332   4.145  11.199  0.2141 -0.2478 -0.3554
18081TIP3   OH275657   6.091   0.680   3.393 -0.1277 -0.0671 -0.1216
18081TIP3    H175658   6.039   0.658   3.315 -0.6208  0.5345  0.0303
18081TIP3    H275659   6.147   0.752   3.366  1.5797 -1.5179 -0.6503
18082TIP3   OH275660   4.214   1.018   6.450 -0.4963 -0.5058  0.0194
18082TIP3    H175661   4.274   1.084   6.415  0.8535 -1.3920  0.5845
18082TIP3    H275662   4.142   1.069   6.487  0.0191  0.6038 -0.4611
18083TIP3   OH275663   4.281   0.659  13.885 -0.6022  0.0883  0.0431
18083TIP3    H175664   4.375   0.646  13.898 -0.7320 -1.6134 -0.4418
18083TIP3    H275665   4.267   0.643  13.792 -1.6399 -1.7607  0.4611
18084TIP3   OH275666   6.745   6.321   2.272 -0.5388  0.2742  0.4933
18084TIP3    H175667   6.663   6.283   2.242  0.0647 -1.5836  1.0327
18084TIP3    H275668   6.791   6.248   2.315  0.9529  1.4997  1.0903
18085TIP3   OH275669   1.269   5.096   5.039  0.3547  0.4367  0.0453
18085TIP3    H175670   1.226   5.120   4.957 -0.0541  0.6684  0.3205
18085TIP3    H275671   1.302   5.008   5.025 -0.7266  0.0230  0.0168
18086TIP3   OH275672   4.841   0.240  16.885  0.0708  0.1831 -0.6841
18086TIP3    H175673   4.937   0.243  16.886  0.1337 -1.0886  1.4505
18086TIP3    H275674   4.815   0.248  16.976 -1.8674  0.1178 -1.1819
18087TIP3   OH275675   1.933   2.611  14.375 -0.1673  1.0919 -0.2880
18087TIP3    H175676   1.905   2.562  14.452  0.5621 -0.2926 -0.8737
18087TIP3    H275677   1.959   2.697  14.409 -0.6680  0.7997  0.8716
18088TIP3   OH275678   0.389   4.566   6.129  0.7162  0.0891 -0.0466
18088TIP3    H175679   0.417   4.620   6.203 -2.6324 -1.1686  2.3880
18088TIP3    H275680   0.346   4.627   6.070 -0.7562  0.5342  1.4145
18089TIP3   OH275681   5.282   0.114  11.910  0.3440  0.4452 -0.0956
18089TIP3    H175682   5.269   0.197  11.955 -0.2826  0.7460 -0.8127
18089TIP3    H275683   5.233   0.123  11.828 -1.7317 -1.4909  0.8312
18090TIP3   OH275684   5.109   3.572  15.016  0.2961 -0.0946 -0.3735
18090TIP3    H175685   5.081   3.507  14.951 -0.4273 -0.3389  0.1719
18090TIP3    H275686   5.118   3.523  15.097 -1.4708  0.6696  0.3443
18091TIP3   OH275687   5.014   2.264   4.954 -0.2164  0.5182 -0.0047
18091TIP3    H175688   5.075   2.210   4.904  0.7700 -0.2547  1.9355
18091TIP3    H275689   5.069   2.335   4.989 -0.7037  0.5789  0.6436
18092TIP3   OH275690   5.829   2.768  11.606 -0.4196  0.2085  0.0257
18092TIP3    H175691   5.872   2.685  11.626  1.2197  1.0514  0.1174
18092TIP3    H275692   5.738   2.744  11.587 -0.3194 -1.4424  1.4012
18093TIP3   OH275693   5.933   5.678  11.718  0.6230 -0.0365  0.0031
18093TIP3    H175694   5.885   5.759  11.731  0.1092 -0.3662  0.1670
18093TIP3    H275695   5.871   5.619  11.676  0.7684 -0.5817  0.5365
18094TIP3   OH275696   0.775   5.516  15.598 -0.3256 -0.3158 -0.0162
18094TIP3    H175697   0.695   5.467  15.614 -0.9405  0.5221 -0.4130
18094TIP3    H275698   0.760   5.559  15.513  0.7362 -0.5314 -0.3258
18095TIP3   OH275699   4.338   0.530   2.005  0.0676 -0.0916 -0.1248
18095TIP3    H175700   4.423   0.543   1.962  0.6333 -2.7678 -0.0010
18095TIP3    H275701   4.274   0.561   1.941  1.0687  0.6411 -0.8129
18096TIP3   OH275702   3.251   5.785  16.413 -0.7927  0.3223  0.1222
18096TIP3    H175703   3.317   5.786  16.344  0.1023  0.2574  0.9653
18096TIP3    H275704   3.180   5.731  16.377 -0.0497 -0.2712 -0.4822
18097TIP3   OH275705   3.096   5.234   2.833  0.2529  0.1692  0.0592
18097TIP3    H175706   3.072   5.155   2.883  1.2697 -0.4953 -0.4646
18097TIP3    H275707   3.183   5.214   2.798 -0.2979  0.7331 -1.7139
18098TIP3   OH275708   5.000   6.038   2.531 -0.3010  0.3577  0.0932
18098TIP3    H175709   5.094   6.025   2.516 -0.4340  0.6024 -1.0378
18098TIP3    H275710   4.975   6.105   2.468 -0.7097  2.3175  2.1963
18099TIP3   OH275711   1.103   0.040  16.236  0.0914  0.2149  0.0281
18099TIP3    H175712   1.094  -0.036  16.179 -0.2522  0.0545  0.2905
18099TIP3    H275713   1.146   0.006  16.315  1.1421  0.5625 -0.3822
18100TIP3   OH275714   1.596   0.840   0.623 -0.0512 -0.5079  0.3073
18100TIP3    H175715   1.679   0.797   0.603  0.2268 -0.1839  0.7478
18100TIP3    H275716   1.562   0.792   0.698  1.1006  1.0819  1.9325
18101TIP3   OH275717   1.661   2.842   5.908  0.4554 -0.3194  0.6189
18101TIP3    H175718   1.624   2.820   5.822 -1.6032  0.3612  1.2721
18101TIP3    H275719   1.631   2.772   5.966 -2.0206  1.4553  1.6696
18102TIP3   OH275720   6.349   1.349   1.126  0.4760  0.6300 -0.5647
18102TIP3    H175721   6.299   1.376   1.049  2.3917  0.4065 -1.9342
18102TIP3    H275722   6.321   1.410   1.195 -1.1478  0.9382 -1.4541
18103TIP3   OH275723   5.976   5.303  13.084 -0.1393 -0.6049  0.4046
18103TIP3    H175724   5.980   5.285  12.990 -0.3810  1.5968 -0.0773
18103TIP3    H275725   5.898   5.357  13.094 -0.2533 -1.0310  1.9235
18104TIP3   OH275726   1.753   1.722  15.133 -0.1961  0.0560 -0.2564
18104TIP3    H175727   1.828   1.767  15.093 -0.5785 -1.1917 -2.5630
18104TIP3    H275728   1.791   1.642  15.171 -0.0775  0.4333  0.4337
18105TIP3   OH275729   3.479   6.276  15.389  0.0803 -0.4768 -0.3046
18105TIP3    H175730   3.448   6.263  15.299 -0.5757 -1.8985  0.0909
18105TIP3    H275731   3.403   6.257  15.443  1.0650 -2.0351  0.6261
18106TIP3   OH275732   0.735   3.392   0.074  0.2124 -0.1744  0.1220
18106TIP3    H175733   0.825   3.402   0.103 -0.2121 -0.9638  1.8031
18106TIP3    H275734   0.732   3.306   0.032  0.5604  0.4953 -1.3589
18107TIP3   OH275735   5.301   6.072   3.581  0.1350  0.0111  0.6037
18107TIP3    H175736   5.284   6.149   3.636 -0.9345  0.5925 -0.4859
18107TIP3    H275737   5.337   6.108   3.500 -0.5319 -0.6114  0.0189
18108TIP3   OH275738   5.109   1.596  13.897  0.8383 -0.3713 -0.1942
18108TIP3    H175739   5.075   1.536  13.831 -0.0523 -0.0390 -0.0524
18108TIP3    H275740   5.035   1.611  13.956  0.8118  1.3968 -0.6090
18109TIP3   OH275741   0.673   6.425   3.445  0.0238 -0.0090 -0.2307
18109TIP3    H175742   0.716   6.510   3.436 -0.0292 -0.0058 -0.4737
18109TIP3    H275743   0.681   6.403   3.537  0.2319  0.1588 -0.2087
18110TIP3   OH275744   0.916   0.847  14.314  0.3389 -0.0482  0.5386
18110TIP3    H175745   0.852   0.805  14.257  0.2627  0.8425 -0.0564
18110TIP3    H275746   0.913   0.797  14.395  0.9548 -1.7931 -0.4543
18111TIP3   OH275747   4.187   5.690   5.384  0.1840  0.2339 -0.1518
18111TIP3    H175748   4.252   5.670   5.316 -1.0143 -0.5336 -1.1203
18111TIP3    H275749   4.108   5.714   5.335 -0.6473 -0.1122  0.9693
18112TIP3   OH275750   4.758   6.030  11.518  0.5519 -0.4697 -0.1829
18112TIP3    H175751   4.757   6.023  11.422 -0.6748 -1.5771 -0.1177
18112TIP3    H275752   4.793   5.946  11.547  0.2380 -0.4153  0.3577
18113TIP3   OH275753   6.392   5.109   3.388  0.2582  0.3426  0.4988
18113TIP3    H175754   6.418   5.032   3.438  1.0408 -0.0677 -0.4833
18113TIP3    H275755   6.327   5.077   3.326 -1.7820  1.1254  2.1246
18114TIP3   OH275756   3.832   4.845   1.890  0.0846 -0.3158  0.0312
18114TIP3    H175757   3.866   4.860   1.978 -0.0473  1.6551 -0.2028
18114TIP3    H275758   3.841   4.750   1.876  2.4312 -0.3349  1.1964
18115TIP3   OH275759   6.234   1.416   0.890 -0.3367  0.6847 -0.6330
18115TIP3    H175760   6.296   1.426   0.818 -0.6177  0.9544 -0.8361
18115TIP3    H275761   6.179   1.494   0.887 -1.1601  0.1021 -0.9113
18116TIP3   OH275762   0.863   3.028   5.290 -0.0073 -0.3841  0.0678
18116TIP3    H175763   0.927   3.008   5.358 -0.5701 -1.6406  0.2717
18116TIP3    H275764   0.844   3.121   5.300  0.1378 -0.4896  1.4525
18117TIP3   OH275765   1.854   5.668  12.345 -0.5694  0.1786 -0.0203
18117TIP3    H175766   1.827   5.645  12.256  0.6092  1.8233 -0.8657
18117TIP3    H275767   1.927   5.609  12.363  0.4209  1.0760 -0.9366
18118TIP3   OH275768   0.776   3.906   0.261 -0.2276 -0.2224  0.1969
18118TIP3    H175769   0.805   3.967   0.329  0.7288 -0.7030  0.2546
18118TIP3    H275770   0.855   3.855   0.240 -0.2549  0.5369 -1.9552
18119TIP3   OH275771   5.275   5.848  11.813 -0.0399 -0.0899 -0.2450
18119TIP3    H175772   5.322   5.829  11.894  0.7142 -0.2902 -0.7161
18119TIP3    H275773   5.283   5.943  11.804  2.0045 -0.2997 -1.3068
18120TIP3   OH275774   3.377   6.298   5.623 -0.2306  0.8871 -0.0521
18120TIP3    H175775   3.443   6.356   5.660 -0.2089  0.3945  0.6954
18120TIP3    H275776   3.337   6.255   5.698  0.4245 -0.8042 -0.6155
18121TIP3   OH275777   5.888   2.413   5.069 -0.2721 -0.4033  0.1109
18121TIP3    H175778   5.947   2.439   4.998 -2.2289  0.5914 -1.2409
18121TIP3    H275779   5.943   2.363   5.129  2.4926  2.3007  0.0832
18122TIP3   OH275780   0.495   4.227  15.931 -0.1255 -0.1653  0.2296
18122TIP3    H175781   0.420   4.174  15.906 -0.8529  0.8535  0.2037
18122TIP3    H275782   0.460   4.315  15.942  1.4730  0.8756 -2.1954
18123TIP3   OH275783   1.863   6.448  14.543  0.0164 -0.4718  0.2311
18123TIP3    H175784   1.840   6.517  14.604 -1.7149 -0.7430 -0.0501
18123TIP3    H275785   1.903   6.380  14.597  0.6223  0.2407  0.6916
18124TIP3   OH275786   1.205   3.670   5.790  0.0506 -0.2100  0.0955
18124TIP3    H175787   1.220   3.729   5.865  2.1210 -1.1583  0.4987
18124TIP3    H275788   1.156   3.596   5.827 -3.0789  1.3594 -0.5271
18125TIP3   OH275789   2.284   0.988  16.729 -0.0663  0.2986  0.3422
18125TIP3    H175790   2.237   0.994  16.646 -1.4061  2.9439  1.1686
18125TIP3    H275791   2.337   1.068  16.732 -1.8256  1.5361  2.9444
18126TIP3   OH275792   0.051   0.930  11.218  0.2591  0.1430  0.1956
18126TIP3    H175793   0.029   1.015  11.258 -0.9179 -1.2646  2.7621
18126TIP3    H275794  -0.013   0.869  11.254  0.6193 -1.7639 -2.1427
18127TIP3   OH275795   6.638   3.726   5.320  0.0830  0.3986 -0.1211
18127TIP3    H175796   6.627   3.808   5.271  0.1842  0.8236  0.5548
18127TIP3    H275797   6.722   3.691   5.289 -0.3227  0.1467 -0.9763
18128TIP3   OH275798   3.887   0.264   5.582 -0.6720 -0.3148  0.0189
18128TIP3    H175799   3.903   0.257   5.488  0.6276  2.3181 -0.0636
18128TIP3    H275800   3.798   0.299   5.588 -1.0183 -1.1372 -0.1760
18129TIP3   OH275801   2.486   6.238  11.208  0.2585  0.0648 -0.2533
18129TIP3    H175802   2.424   6.184  11.158 -0.5277  0.0088  0.7409
18129TIP3    H275803   2.515   6.181  11.280 -0.7556  0.9958  0.9377
18130TIP3   OH275804   4.908   2.212   4.304  0.0985  0.1953  0.3912
18130TIP3    H175805   4.857   2.219   4.385  1.4818 -0.1804  1.3320
18130TIP3    H275806   4.874   2.135   4.260  0.9068 -1.0113  1.8018
18131TIP3   OH275807   5.471   2.578  16.703 -0.2062  0.3475 -0.7826
18131TIP3    H175808   5.444   2.530  16.625 -2.1033 -1.4090  0.8166
18131TIP3    H275809   5.416   2.657  16.703  0.1681  0.6168 -1.4419
18132TIP3   OH275810   2.238   6.489  11.794  0.1318 -0.6383  0.0196
18132TIP3    H175811   2.286   6.428  11.850  1.2530  0.0451 -0.1393
18132TIP3    H275812   2.171   6.436  11.751  1.5172 -1.9382 -0.6644
18133TIP3   OH275813   0.553   6.223   1.299  0.0907  0.1435  0.2577
18133TIP3    H175814   0.503   6.148   1.332 -0.6802  1.0787  1.3042
18133TIP3    H275815   0.539   6.291   1.364  2.2220  0.6636  0.2316
18134TIP3   OH275816   2.199   6.650   2.478 -0.2527 -0.3987  0.3260
18134TIP3    H175817   2.284   6.627   2.441 -0.8492 -0.5576 -0.9871
18134TIP3    H275818   2.137   6.639   2.406 -1.4050 -0.3427  1.2700
18135TIP3   OH275819   3.673   6.566   6.128  0.3408 -0.3966 -0.0688
18135TIP3    H175820   3.657   6.472   6.126  1.2034 -0.5436 -0.2599
18135TIP3    H275821   3.717   6.581   6.211 -1.9806  0.2242  1.1353
18136TIP3   OH275822   2.636   4.764  17.348 -0.1929  0.7901 -0.1043
18136TIP3    H175823   2.656   4.689  17.402  0.3252  0.2052 -1.0773
18136TIP3    H275824   2.650   4.734  17.258 -1.4814  1.5744 -0.6120
18137TIP3   OH275825   1.541   0.597   2.258 -0.1378 -0.1417  0.2792
18137TIP3    H175826   1.594   0.667   2.296 -0.0820 -0.1876  0.2859
18137TIP3    H275827   1.542   0.527   2.323  1.1895 -0.8116 -0.4086
18138TIP3   OH275828   1.156   1.474  10.937  0.0931  0.2809 -0.4056
18138TIP3    H175829   1.111   1.475  11.021 -0.6466  1.5800 -0.7919
18138TIP3    H275830   1.165   1.566  10.913  1.0414 -0.0405 -1.3577
18139TIP3   OH275831   1.626   1.481   0.122 -0.3376  0.1799  0.1378
18139TIP3    H175832   1.653   1.438   0.041 -1.5608 -0.2278 -0.0715
18139TIP3    H275833   1.598   1.410   0.179 -0.8933  0.5766  0.3649
18140TIP3   OH275834   0.897   6.548  13.100 -0.3124 -0.3795 -0.4026
18140TIP3    H175835   0.878   6.615  13.165 -0.9945 -1.6904  0.8188
18140TIP3    H275836   0.843   6.570  13.024 -0.4985  0.4479 -0.0317
18141TIP3   OH275837   4.797   3.130  14.711 -0.0261  0.6082  0.0523
18141TIP3    H175838   4.854   3.111  14.637 -0.6068 -1.1525 -0.0061
18141TIP3    H275839   4.764   3.218  14.695  1.5052  1.0843 -0.6576
18142TIP3   OH275840   0.408   0.504  10.627  0.3318  0.3723 -0.7862
18142TIP3    H175841   0.500   0.528  10.618  0.2826  0.5005 -0.9523
18142TIP3    H275842   0.409   0.409  10.638  0.4206  0.2354 -1.8462
18143TIP3   OH275843   1.992   3.072  10.941 -0.2057  0.4541  0.4754
18143TIP3    H175844   2.028   3.158  10.918 -4.1963  2.6247  1.3163
18143TIP3    H275845   1.985   3.026  10.858 -0.2193  1.9766 -0.4155
18144TIP3   OH275846   3.826   4.103  12.313  0.3310 -0.3659  0.4933
18144TIP3    H175847   3.842   4.010  12.330  3.8765  0.0300  0.1143
18144TIP3    H275848   3.820   4.109  12.217 -3.5582 -0.5535  0.5939
18145TIP3   OH275849   2.243   1.377   4.397 -0.4804  0.0858  0.4623
18145TIP3    H175850   2.231   1.440   4.326  0.0521  0.2503  0.5059
18145TIP3    H275851   2.231   1.429   4.477  0.6886  0.3128  0.5094
18146TIP3   OH275852   3.739   1.224   3.426 -0.2325 -0.0399 -0.2865
18146TIP3    H175853   3.737   1.154   3.361 -0.8369 -1.6524  1.3657
18146TIP3    H275854   3.822   1.212   3.472  0.0370  0.8734 -0.5045
18147TIP3   OH275855   3.863   0.656  13.052 -0.2457 -0.1742  0.0380
18147TIP3    H175856   3.797   0.700  12.998  1.5832  2.7194  0.0044
18147TIP3    H275857   3.943   0.660  13.000  0.4984 -1.7394  0.9759
18148TIP3   OH275858   4.184   4.001  14.941  0.0648  0.0931 -0.0381
18148TIP3    H175859   4.141   3.971  14.862 -1.0111  0.6674  0.3010
18148TIP3    H275860   4.156   4.093  14.950  0.2121  0.0525  0.9616
18149TIP3   OH275861   5.846   0.455  16.154 -0.2054  0.2052  0.4501
18149TIP3    H175862   5.934   0.488  16.170  0.3181 -0.1390 -1.4189
18149TIP3    H275863   5.808   0.442  16.241  2.2486 -1.4143  1.3752
18150TIP3   OH275864   2.514   5.899   4.339 -0.3315 -0.2558  0.3426
18150TIP3    H175865   2.581   5.920   4.404 -1.8269  1.2987  1.4557
18150TIP3    H275866   2.560   5.901   4.256  1.1686 -0.0994  1.1371
18151TIP3   OH275867   6.370   2.530  10.520 -0.2119  0.0886  0.7768
18151TIP3    H175868   6.381   2.436  10.531 -0.4595  0.1721  1.8272
18151TIP3    H275869   6.418   2.569  10.593  0.3553  0.8099  0.0461
18152TIP3   OH275870   0.644   3.045  17.089 -0.2998 -0.4703  0.1178
18152TIP3    H175871   0.700   3.099  17.033 -0.1207  0.8147  1.4674
18152TIP3    H275872   0.623   2.968  17.035  1.5026 -0.2691 -0.9708
18153TIP3   OH275873   5.245   3.003  15.572  0.0496  0.5632  0.6934
18153TIP3    H175874   5.274   3.008  15.663 -0.2601  1.8320  0.7436
18153TIP3    H275875   5.150   2.996  15.578  0.1661 -2.4024  0.5036
18154TIP3   OH275876   2.211   4.666   1.526 -0.2592  0.6464 -0.6216
18154TIP3    H175877   2.283   4.688   1.466  0.4169 -2.1538 -0.9563
18154TIP3    H275878   2.139   4.641   1.468 -0.7737  1.2580 -0.2608
18155TIP3   OH275879   3.949   2.460  12.645  0.7657 -0.3419  0.5269
18155TIP3    H175880   3.949   2.367  12.625  0.9426 -0.0429 -1.0398
18155TIP3    H275881   3.934   2.465  12.739  0.3355 -1.9333  0.5709
18156TIP3   OH275882   1.249   3.070   5.332 -0.2857 -0.4972  0.5799
18156TIP3    H175883   1.248   3.064   5.236  0.1483 -0.3931  0.5652
18156TIP3    H275884   1.240   3.164   5.350  0.0118 -0.4741  0.6266
18157TIP3   OH275885   4.065   0.934   0.549  0.0447 -0.0967 -0.5611
18157TIP3    H175886   4.054   1.006   0.486 -0.7782  1.3017  1.0843
18157TIP3    H275887   4.090   0.859   0.495 -0.8362  0.9577 -2.5726
18158TIP3   OH275888   6.486   1.284   6.692 -0.3162  0.4706  0.4699
18158TIP3    H175889   6.455   1.200   6.660  0.1576  0.4697  0.0082
18158TIP3    H275890   6.552   1.262   6.758 -1.3726  0.4708  1.5557
18159TIP3   OH275891   4.465   3.192  12.840 -0.5338 -0.0570  0.3132
18159TIP3    H175892   4.417   3.110  12.844 -0.9307  0.1354 -0.3540
18159TIP3    H275893   4.408   3.256  12.883 -0.0449 -0.2112  1.2003
18160TIP3   OH275894   2.381   5.395  13.099 -0.3728  0.4244 -0.4603
18160TIP3    H175895   2.299   5.443  13.103 -0.9268 -0.5643  1.5649
18160TIP3    H275896   2.401   5.374  13.190  1.8947  0.2279 -0.9371
18161TIP3   OH275897   4.768   3.563  15.897 -0.2739 -0.0995 -0.5802
18161TIP3    H175898   4.732   3.541  15.811 -1.9116 -2.3592  0.5717
18161TIP3    H275899   4.782   3.478  15.939  2.9072  0.8424  0.5189
18162TIP3   OH275900   3.238   3.553  12.275 -0.3759 -0.0264 -0.0634
18162TIP3    H175901   3.150   3.544  12.239  0.2224  0.4991 -1.7759
18162TIP3    H275902   3.262   3.644  12.258  0.3245 -0.0235  0.8381
18163TIP3   OH275903   2.875   2.974  12.433  0.2603 -0.4452 -0.0752
18163TIP3    H175904   2.799   3.029  12.416  0.2929 -0.8179 -1.6183
18163TIP3    H275905   2.927   2.981  12.352  1.7006 -0.4558  0.8236
18164TIP3   OH275906   5.748   4.096   4.365 -0.7592 -0.0260  0.0854
18164TIP3    H175907   5.668   4.097   4.417 -2.0439  2.2400 -1.7206
18164TIP3    H275908   5.729   4.039   4.291  0.5821 -2.1672  1.2851
18165TIP3   OH275909   2.994   0.418   5.815 -0.2646  0.3757  0.2539
18165TIP3    H175910   3.048   0.484   5.773  0.4184  0.4974  1.2893
18165TIP3    H275911   2.936   0.467   5.874 -0.7688  0.1581 -0.0465
18166TIP3   OH275912   4.290   2.284  12.028  0.2063 -0.0292 -1.1188
18166TIP3    H175913   4.364   2.345  12.031  0.1472  0.0089  0.5252
18166TIP3    H275914   4.224   2.330  11.975  1.3648 -0.1179 -2.7031
18167TIP3   OH275915   1.097   6.432   3.736  0.3183  0.1286 -0.0457
18167TIP3    H175916   1.098   6.366   3.667 -0.7158  0.5381 -0.4702
18167TIP3    H275917   1.112   6.515   3.690  2.8259  0.1339  0.6068
18168TIP3   OH275918   1.918   0.198   1.979 -0.9733  0.3697  0.1202
18168TIP3    H175919   1.978   0.243   1.919 -0.5697  0.7152  0.7737
18168TIP3    H275920   1.927   0.105   1.957 -0.3220  0.4357  0.1067
18169TIP3   OH275921   6.318   3.436  16.191  0.1265 -0.1725 -0.0387
18169TIP3    H175922   6.273   3.382  16.126  2.0148 -0.2170 -1.4011
18169TIP3    H275923   6.286   3.525  16.175 -0.3121 -0.3559 -0.2033
18170TIP3   OH275924   3.317   4.440   4.223 -0.5012  0.0319 -0.3845
18170TIP3    H175925   3.280   4.496   4.291  0.3552  0.9410 -0.6421
18170TIP3    H275926   3.406   4.421   4.254 -0.7536 -1.1549 -0.3305
18171TIP3   OH275927   1.535   2.750  15.529  0.1645  0.2948  0.3394
18171TIP3    H175928   1.456   2.756  15.583  1.3777 -0.9100  2.3778
18171TIP3    H275929   1.564   2.659  15.540  1.0281  0.2890 -1.6101
18172TIP3   OH275930   1.780   4.075  15.320  0.3325 -0.5432  0.4479
18172TIP3    H175931   1.800   4.074  15.414 -1.1131  0.0414  0.7969
18172TIP3    H275932   1.792   4.166  15.294 -0.4695 -0.4481  0.3686
18173TIP3   OH275933   1.960   3.142   4.540  0.3744  0.3816 -0.9113
18173TIP3    H175934   1.895   3.193   4.588 -1.6408 -2.1765 -0.7278
18173TIP3    H275935   1.938   3.154   4.448 -1.0600 -1.2120 -0.8233
18174TIP3   OH275936   6.082   3.646  12.314  0.0158  0.3734 -0.3446
18174TIP3    H175937   6.176   3.657  12.300  0.0949  0.3303  0.1558
18174TIP3    H275938   6.049   3.621  12.228  0.4727  0.3185 -0.5093
18175TIP3   OH275939   5.434   5.650  14.221  0.0559  0.3440  0.5313
18175TIP3    H175940   5.366   5.588  14.195 -0.3720  0.8107  0.5108
18175TIP3    H275941   5.422   5.662  14.315 -1.4722  2.2404  0.1682
18176TIP3   OH275942   6.307   4.368  14.160  0.3948 -0.1448  0.5763
18176TIP3    H175943   6.236   4.315  14.195  0.4818 -0.0495  0.8934
18176TIP3    H275944   6.368   4.380  14.233 -0.0882  1.1941  0.7997
18177TIP3   OH275945   5.028   6.543   3.463  0.0226 -0.1037 -0.1523
18177TIP3    H175946   5.025   6.639   3.462  0.3651 -0.0925 -1.1601
18177TIP3    H275947   4.937   6.516   3.449 -0.1873  0.0551  0.8107
18178TIP3   OH275948   5.241   6.144   6.833 -0.0277  0.4252  0.2814
18178TIP3    H175949   5.315   6.185   6.879  0.4612 -0.1393  0.0157
18178TIP3    H275950   5.182   6.217   6.814  0.5535  0.9221  0.3191
18179TIP3   OH275951   0.636   0.611  16.533 -0.0938 -0.2616  0.3293
18179TIP3    H175952   0.691   0.543  16.572  0.1776  0.5846  1.4672
18179TIP3    H275953   0.675   0.693  16.564  1.3986  0.5896 -3.2914
18180TIP3   OH275954   1.012   1.942  14.704  0.5876 -0.0669  0.3019
18180TIP3    H175955   1.075   1.947  14.632  1.3248 -0.4060  0.9089
18180TIP3    H275956   0.940   2.000  14.677  1.0543  0.1538 -0.5008
18181TIP3   OH275957   4.958   6.472   4.998 -0.5077 -0.3314  0.0772
18181TIP3    H175958   4.943   6.504   4.909 -2.2760  0.3932  0.5927
18181TIP3    H275959   4.962   6.377   4.988  2.2438 -0.1850 -1.1237
18182TIP3   OH275960   3.103   4.722  13.619 -0.3884  0.4934  0.2393
18182TIP3    H175961   3.115   4.800  13.673 -1.8415  0.2752  0.9316
18182TIP3    H275962   3.095   4.755  13.530 -0.2600  1.0610  0.4342
18183TIP3   OH275963   6.425   3.294   6.230  0.2516 -0.1961 -0.1973
18183TIP3    H175964   6.376   3.322   6.308  0.0441 -2.7087  0.6476
18183TIP3    H275965   6.363   3.241   6.181  1.4250 -1.5610 -0.2597
18184TIP3   OH275966   3.907   3.070  15.045  0.4058 -0.3261 -0.2920
18184TIP3    H175967   3.933   3.160  15.027  1.3801 -0.3209  1.0095
18184TIP3    H275968   3.900   3.066  15.141 -2.2193 -0.9486 -0.4204
18185TIP3   OH275969   0.024   2.258   0.095 -0.5215  0.3686  0.2722
18185TIP3    H175970   0.018   2.198   0.021 -0.1204  1.8922 -1.0340
18185TIP3    H275971   0.096   2.223   0.148 -0.1781 -0.2042 -0.5465
18186TIP3   OH275972   3.764   5.862  15.934 -0.6350  0.5989 -0.0145
18186TIP3    H175973   3.778   5.955  15.920 -0.3572  0.2856 -2.0703
18186TIP3    H275974   3.796   5.820  15.855  2.8199 -1.6528  2.2786
18187TIP3   OH275975   2.830   6.520   5.418 -0.1791 -0.1822 -0.3937
18187TIP3    H175976   2.840   6.445   5.360 -0.2613 -0.1171 -0.4931
18187TIP3    H275977   2.784   6.486   5.495  0.2401 -0.3450 -0.2110
18188TIP3   OH275978   4.629   3.884  11.609  0.0167  0.4615 -0.0779
18188TIP3    H175979   4.643   3.904  11.516  1.6273 -0.7720 -0.1444
18188TIP3    H275980   4.696   3.935  11.655  0.3358 -0.2557  0.2537
18189TIP3   OH275981   1.545   3.371  12.641  0.1731 -0.0675 -0.5283
18189TIP3    H175982   1.561   3.465  12.647 -1.3519  0.2203 -0.7564
18189TIP3    H275983   1.457   3.359  12.675 -0.5525 -1.1174 -2.6214
18190TIP3   OH275984   4.133   2.921   2.283 -0.2041  0.3621 -0.5060
18190TIP3    H175985   4.085   2.864   2.343  0.0072  0.3729 -0.3256
18190TIP3    H275986   4.094   2.905   2.197  1.3081 -1.7111 -0.8774
18191TIP3   OH275987   5.008   6.770   3.143  0.0864  0.0519  0.1266
18191TIP3    H175988   5.014   6.784   3.238 -1.2296 -1.1126  0.4314
18191TIP3    H275989   5.094   6.736   3.118  0.3151 -0.0214  0.9764
18192TIP3   OH275990   4.864   0.889   3.262 -0.0678 -0.7632 -0.2891
18192TIP3    H175991   4.887   0.810   3.310  1.0290 -0.1314  0.2741
18192TIP3    H275992   4.770   0.883   3.248 -0.2639 -1.3793  1.2009
18193TIP3   OH275993   2.210   2.061  13.236  0.6616 -1.0107  0.3691
18193TIP3    H175994   2.127   2.021  13.260 -0.5372  0.9552 -0.2139
18193TIP3    H275995   2.238   2.108  13.314  0.6170 -0.7267  0.2168
18194TIP3   OH275996   4.828   5.490  12.895  0.0662 -0.2789 -0.1937
18194TIP3    H175997   4.828   5.422  12.963  1.8276 -2.0856 -1.8279
18194TIP3    H275998   4.779   5.450  12.822  3.6908 -1.2785 -2.3391
18195TIP3   OH275999   0.697   2.427   5.643 -0.1506 -0.4714  0.6653
18195TIP3    H176000   0.760   2.367   5.601  1.3044 -0.1859  2.3303
18195TIP3    H276001   0.617   2.374   5.653  0.1577 -1.1979 -0.4987
18196TIP3   OH276002   6.132   4.280  12.141  0.7335 -0.5347  0.0620
18196TIP3    H176003   6.167   4.196  12.170  1.1531 -0.9265 -1.5195
18196TIP3    H276004   6.204   4.321  12.092  0.3120  0.4559  0.2416
18197TIP3   OH276005   6.252   6.613   3.259 -0.1288 -0.0163  0.6452
18197TIP3    H176006   6.240   6.601   3.165  1.4300 -1.0832  0.5475
18197TIP3    H276007   6.301   6.696   3.267  0.0306 -0.0962  0.4920
18198TIP3   OH276008   1.358   2.160  16.725  0.4980 -0.7095  0.1157
18198TIP3    H176009   1.445   2.144  16.689  0.5449 -0.3536  0.0674
18198TIP3    H276010   1.345   2.254  16.716  0.9559 -0.4168  1.9754
18199TIP3   OH276011   1.880   1.663   3.459  0.5685 -0.0720  0.1171
18199TIP3    H176012   1.948   1.701   3.404 -0.4228  0.9996 -0.4058
18199TIP3    H276013   1.906   1.571   3.470  1.5984  0.0908 -0.8276
18200TIP3   OH276014   2.141   2.361   0.108 -0.0111 -0.0320  0.1428
18200TIP3    H176015   2.227   2.330   0.081  0.2413  0.7960 -0.0133
18200TIP3    H276016   2.121   2.309   0.186  1.4918  1.1148  1.3511
18201TIP3   OH276017   0.901   6.254  12.084 -0.4438  0.9691  0.2942
18201TIP3    H176018   0.866   6.329  12.035 -0.3948  1.2002  0.6068
18201TIP3    H276019   0.834   6.187  12.077  0.3961  0.2551 -1.8044
18202TIP3   OH276020   5.839   2.677   0.788 -0.1128  0.2123  0.2137
18202TIP3    H176021   5.811   2.659   0.877 -0.2673 -1.8340 -0.2056
18202TIP3    H276022   5.793   2.612   0.734 -0.8873  2.0861 -1.5242
18203TIP3   OH276023   6.193   3.605   0.249 -0.3294  0.2631  0.8201
18203TIP3    H176024   6.114   3.658   0.258  0.1004  0.8383  1.2631
18203TIP3    H276025   6.183   3.535   0.314  0.2486  1.2592  2.0178
18204TIP3   OH276026   4.451   4.784   3.703  0.5457  0.1852 -0.0673
18204TIP3    H176027   4.493   4.698   3.703 -1.3958 -0.8771  1.9602
18204TIP3    H276028   4.464   4.817   3.614  2.1078 -1.8002 -0.6588
18205TIP3   OH276029   3.410   1.853   3.765 -0.3785  0.6472 -0.0274
18205TIP3    H176030   3.439   1.927   3.819 -0.4560  0.1645  0.7015
18205TIP3    H276031   3.343   1.810   3.818 -2.7854  1.9744 -1.8374
18206TIP3   OH276032   3.440   6.345   2.314  0.0837 -0.4400  0.3129
18206TIP3    H176033   3.498   6.273   2.339  0.0079 -1.0706 -1.2079
18206TIP3    H276034   3.495   6.423   2.323  0.1663 -0.6498  1.9824
18207TIP3   OH276035   1.061   0.101  13.646 -0.2088 -0.3885 -0.6279
18207TIP3    H176036   1.050   0.024  13.702  1.3800 -1.3194 -1.5118
18207TIP3    H276037   1.129   0.153  13.689  0.2056 -0.5403 -1.0864
18208TIP3   OH276038   1.548   0.232   5.512 -0.1197  0.4216  0.4612
18208TIP3    H176039   1.465   0.197   5.480 -0.0050 -0.5572  1.2068
18208TIP3    H276040   1.561   0.190   5.597  1.3366  0.2493  0.1794
18209TIP3   OH276041   3.132   5.722   0.354  0.2306 -0.1352 -0.0744
18209TIP3    H176042   3.069   5.794   0.360  2.4169  2.0414 -1.4786
18209TIP3    H276043   3.108   5.663   0.426 -2.4481  1.3100  0.3356
18210TIP3   OH276044   1.237   4.015  16.623  0.0568  0.0393 -0.1030
18210TIP3    H176045   1.281   3.972  16.696 -0.9597 -1.0164 -0.0977
18210TIP3    H276046   1.309   4.048  16.569  0.8508 -0.7559  0.4322
18211TIP3   OH276047   1.985   5.783  13.918  0.3068 -0.3154 -0.3914
18211TIP3    H176048   1.972   5.691  13.896  0.1282 -0.7531  1.3403
18211TIP3    H276049   2.018   5.824  13.838  0.7844 -1.9733 -1.0722
18212TIP3   OH276050   3.966   5.857   0.494 -0.0618  0.2555  0.5462
18212TIP3    H176051   3.886   5.825   0.452  0.2655 -0.3322  0.3650
18212TIP3    H276052   3.940   5.941   0.532 -0.8771 -0.1119  0.8447
18213TIP3   OH276053   3.618   6.549  17.264 -0.1784  0.0857 -0.2393
18213TIP3    H176054   3.648   6.510  17.346  0.1419  1.1305  0.1550
18213TIP3    H276055   3.537   6.502  17.243  0.6883 -1.4371 -0.3056
18214TIP3   OH276056   5.107   2.146  14.413 -0.8787  0.3547  0.0803
18214TIP3    H176057   5.055   2.069  14.438  0.3030  0.0702  1.8786
18214TIP3    H276058   5.195   2.126  14.444 -0.3804  2.1358 -0.0906
18215TIP3   OH276059   6.420   1.818   1.118  0.7809 -0.3747  1.1637
18215TIP3    H176060   6.380   1.862   1.044  2.6825 -0.1437  0.2207
18215TIP3    H276061   6.403   1.876   1.193 -0.4401 -0.2086  0.7701
18216TIP3   OH276062   0.542   1.763   6.587  0.2380  0.2809 -0.2212
18216TIP3    H176063   0.502   1.839   6.630 -1.5417  1.0183 -2.9359
18216TIP3    H276064   0.479   1.692   6.600 -0.4493  0.5799 -1.7393
18217TIP3   OH276065   4.249   2.215  15.031  0.8342 -0.2989  0.1544
18217TIP3    H176066   4.159   2.197  15.004  0.7701  0.8057 -0.4438
18217TIP3    H276067   4.276   2.138  15.081 -1.7141  0.8749  3.6563
18218TIP3   OH276068   0.659   2.456  16.868 -0.4325  0.1629  0.1463
18218TIP3    H176069   0.644   2.517  16.796  0.6405 -1.2168 -1.3153
18218TIP3    H276070   0.727   2.498  16.921  0.2605  0.2865 -0.8145
18219TIP3   OH276071   6.099   4.427  16.841  0.0892 -0.0317  0.2151
18219TIP3    H176072   6.164   4.498  16.841 -1.5246  1.5582 -0.9586
18219TIP3    H276073   6.121   4.373  16.765 -0.9165  1.5564 -1.3066
18220TIP3   OH276074   0.943   3.255   6.880 -0.2529 -0.1621 -0.1563
18220TIP3    H176075   1.010   3.250   6.948  0.1887  0.1739 -0.5544
18220TIP3    H276076   0.888   3.178   6.893 -1.4405  0.9519  1.8775
18221TIP3   OH276077   3.898   3.829  17.052 -0.3007 -0.4996 -0.5182
18221TIP3    H176078   3.991   3.812  17.034 -0.1256 -0.2638  0.1365
18221TIP3    H276079   3.860   3.742  17.064  0.4030 -0.5319  1.8998
18222TIP3   OH276080   0.052   5.618  11.490 -0.3633  0.1962  0.3348
18222TIP3    H176081   0.146   5.638  11.487  0.1066 -1.9091 -1.3282
18222TIP3    H276082   0.014   5.672  11.421  0.0391 -0.6249 -0.5602
18223TIP3   OH276083   3.793   4.067   5.313  0.0883 -0.5271 -0.4558
18223TIP3    H176084   3.777   4.002   5.381  1.9655 -0.1583  0.4013
18223TIP3    H276085   3.777   4.151   5.357  1.4532 -0.2817 -0.3615
18224TIP3   OH276086   1.744   5.777   2.174 -0.5752  0.4639 -0.1451
18224TIP3    H176087   1.808   5.827   2.124 -0.1723 -1.7773 -2.0828
18224TIP3    H276088   1.754   5.807   2.264  2.7057  0.7209 -0.4828
18225TIP3   OH276089   3.890   4.092   0.884  0.1578  0.0298 -0.1763
18225TIP3    H176090   3.850   4.179   0.885 -0.6595 -0.3222  1.3929
18225TIP3    H276091   3.907   4.073   0.976  2.3785 -0.5787 -0.6517
18226TIP3   OH276092   4.948   4.901   3.309  0.1337 -0.0752  0.2904
18226TIP3    H176093   4.938   4.988   3.347  1.2509  0.5379 -0.7220
18226TIP3    H276094   4.904   4.843   3.370 -0.7488  1.2091  0.9318
18227TIP3   OH276095   0.296   1.507  12.036  0.6741  0.1139  0.1773
18227TIP3    H176096   0.248   1.459  11.969  1.9849  0.8852 -1.3809
18227TIP3    H276097   0.232   1.565  12.076  0.0316  0.1768 -0.9302
18228TIP3   OH276098   3.540   0.685  13.934 -0.1076 -0.2559  0.0487
18228TIP3    H176099   3.530   0.723  14.021 -1.3875 -2.6016  1.0141
18228TIP3    H276100   3.586   0.752  13.884 -0.4883  1.6935  2.1433
18229TIP3   OH276101   2.980   3.478   5.133 -0.2671 -0.5072 -0.4866
18229TIP3    H176102   2.960   3.466   5.040 -0.1538 -0.2356 -0.5494
18229TIP3    H276103   3.058   3.533   5.134  0.1668 -1.1244 -0.2350
18230TIP3   OH276104   2.785   6.744  12.307 -0.0105 -0.2480  0.5823
18230TIP3    H176105   2.774   6.650  12.297 -0.9251 -0.1359  0.4569
18230TIP3    H276106   2.697   6.778  12.322  0.1176  0.7428 -0.7038
18231TIP3   OH276107   1.287   0.361  16.453 -0.1427  0.4104  0.4131
18231TIP3    H176108   1.248   0.366  16.541 -0.7653 -0.1244  0.1833
18231TIP3    H276109   1.377   0.389  16.465  0.0770 -0.6455  1.4299
18232TIP3   OH276110   4.955   1.120   1.207  0.1153  0.3698 -0.3298
18232TIP3    H176111   4.992   1.201   1.172  1.8014  0.6322  1.8511
18232TIP3    H276112   4.970   1.055   1.138  0.5155  1.4836 -1.3324
18233TIP3   OH276113   0.851   1.408   3.826 -0.0544 -0.6385 -0.4749
18233TIP3    H176114   0.816   1.411   3.915 -0.3366  0.9614 -0.6017
18233TIP3    H276115   0.834   1.319   3.796 -1.8198 -0.6026  0.3368
18234TIP3   OH276116   5.669   1.752  14.115 -0.1295  0.2898  0.1578
18234TIP3    H176117   5.721   1.711  14.185  1.6730  0.7637 -0.8265
18234TIP3    H276118   5.685   1.696  14.038 -1.0971  0.4554 -0.1676
18235TIP3   OH276119   3.397   0.503  12.958 -0.2105 -0.2226 -0.5130
18235TIP3    H176120   3.321   0.449  12.978 -0.5192  0.3899 -0.0220
18235TIP3    H276121   3.389   0.579  13.016  0.3679  0.2168 -0.9963
18236TIP3   OH276122   5.563   5.747  10.887  0.5301  0.8079  0.5043
18236TIP3    H176123   5.564   5.803  10.809 -4.0125 -0.9973 -1.1713
18236TIP3    H276124   5.603   5.665  10.857 -0.5304  0.3662  0.2727
18237TIP3   OH276125   3.651   1.423  12.334  0.4730 -0.3083 -0.3373
18237TIP3    H176126   3.596   1.486  12.288  0.5198 -0.3996 -0.5191
18237TIP3    H276127   3.647   1.344  12.281  1.2764 -0.1206 -0.6913
18238TIP3   OH276128   0.191   4.308  14.390  0.4743  0.2402 -0.0879
18238TIP3    H176129   0.133   4.277  14.460  2.0225 -1.0082  0.6861
18238TIP3    H276130   0.131   4.340  14.322 -1.0971 -0.2861  0.9937
18239TIP3   OH276131   0.429   2.809  12.665  0.3332  0.6273 -0.0143
18239TIP3    H176132   0.429   2.880  12.729  0.4855  0.5550  0.0678
18239TIP3    H276133   0.340   2.773  12.669  0.8570 -0.6348  1.5678
18240TIP3   OH276134   0.261   6.262  16.420 -0.9446 -0.5023 -0.2508
18240TIP3    H176135   0.305   6.281  16.337 -2.4026  1.7886 -0.6005
18240TIP3    H276136   0.295   6.327  16.481 -0.7840 -1.3969  0.6419
18241TIP3   OH276137   2.276   4.399   3.923 -0.1968 -0.0622  0.5449
18241TIP3    H176138   2.187   4.433   3.934 -0.6493 -0.9441 -0.3060
18241TIP3    H276139   2.266   4.322   3.868  0.7707 -1.8166  2.6514
18242TIP3   OH276140   2.220   1.010   5.432 -0.7427 -0.0100  0.2720
18242TIP3    H176141   2.277   0.933   5.434  0.0699  0.4594 -2.0029
18242TIP3    H276142   2.270   1.079   5.475 -0.6670 -0.2457  0.5627
18243TIP3   OH276143   0.357   6.723   0.088  0.2374  0.2849  0.4762
18243TIP3    H176144   0.350   6.704   0.182  2.2488  1.7167  0.9807
18243TIP3    H276145   0.447   6.702   0.066 -0.4676 -0.9807 -1.4383
18244TIP3   OH276146   0.650   4.007   2.772  0.0126 -0.0130  0.1282
18244TIP3    H176147   0.738   4.004   2.733  0.2462  1.8699  0.4009
18244TIP3    H276148   0.645   4.094   2.811 -0.7190 -1.2623  3.1117
18245TIP3   OH276149   6.409   5.858   0.030 -0.1691 -0.5126 -0.5837
18245TIP3    H176150   6.416   5.791   0.098  1.2915  0.4195  0.2354
18245TIP3    H276151   6.317   5.881   0.027 -0.4688 -1.5683  0.0837
18246TIP3   OH276152   5.730   6.516   5.718  0.2560 -0.6093  0.2609
18246TIP3    H176153   5.662   6.448   5.719 -2.3628  1.6840 -2.2457
18246TIP3    H276154   5.808   6.471   5.686 -1.4038 -2.4656 -1.4651
18247TIP3   OH276155   4.689   1.265  16.564  0.0481 -0.3668 -0.1473
18247TIP3    H176156   4.622   1.232  16.624  0.9350 -0.6021  0.7328
18247TIP3    H276157   4.698   1.196  16.498  1.5394 -1.7692  1.4112
18248TIP3   OH276158   5.690   2.486  12.411  0.1755 -0.0773 -0.8953
18248TIP3    H176159   5.730   2.399  12.405 -1.6114 -0.9839 -0.2014
18248TIP3    H276160   5.657   2.503  12.323 -0.3848 -0.5673 -0.7838
18249TIP3   OH276161   1.119   2.584   4.097  0.3058 -0.6665  0.5299
18249TIP3    H176162   1.174   2.629   4.162  1.4013  0.1770 -0.9251
18249TIP3    H276163   1.032   2.623   4.108  0.9836  1.0859  0.0356
18250TIP3   OH276164   1.146   3.493   4.915 -0.1954  0.0069 -0.4109
18250TIP3    H176165   1.206   3.466   4.985  0.3528 -1.1037 -1.2703
18250TIP3    H276166   1.107   3.411   4.884  0.2983  0.3530 -2.0308
18251TIP3   OH276167   3.305   4.314  15.926  0.2802  0.6797 -0.2641
18251TIP3    H176168   3.218   4.284  15.952  0.1335  1.6447  0.4297
18251TIP3    H276169   3.365   4.258  15.974  0.0808 -0.5502 -1.3867
18252TIP3   OH276170   4.345   4.530  11.488 -0.7545 -0.0968 -0.6920
18252TIP3    H176171   4.274   4.547  11.426 -0.6548  1.1502 -0.4982
18252TIP3    H276172   4.339   4.601  11.551  0.2524 -0.3463 -0.2881
18253TIP3   OH276173   6.270   0.896  15.396  0.0118  0.5388 -0.2996
18253TIP3    H176174   6.323   0.817  15.404 -2.2934 -1.0512  0.1895
18253TIP3    H276175   6.229   0.906  15.481  0.1697  2.2538 -0.3828
18254TIP3   OH276176   1.050   3.590   2.684  0.0180 -0.1969  0.4755
18254TIP3    H176177   0.977   3.642   2.649 -1.9732 -1.2074  2.8305
18254TIP3    H276178   1.122   3.608   2.625 -1.7450  1.9539 -1.2131
18255TIP3   OH276179   5.248   6.364  11.637  0.1149  0.1577  0.0063
18255TIP3    H176180   5.308   6.291  11.625 -0.5536 -0.0952 -2.1612
18255TIP3    H276181   5.181   6.352  11.570 -0.4358  2.3349  0.0761
18256TIP3   OH276182   2.083   3.892   1.140  0.1339  0.1849 -0.2150
18256TIP3    H176183   2.066   3.943   1.060  0.2994 -0.1352 -0.4596
18256TIP3    H276184   1.996   3.866   1.171  0.1039 -0.4868 -0.8246
18257TIP3   OH276185   3.273   4.111   0.696  0.0665  0.0968 -0.5978
18257TIP3    H176186   3.358   4.127   0.737  0.4043 -0.4919 -1.0531
18257TIP3    H276187   3.281   4.024   0.658 -0.4395  0.3985 -1.4101
18258TIP3   OH276188   6.739   5.754   3.803 -0.2309  0.2032 -0.3794
18258TIP3    H176189   6.733   5.850   3.795  0.9477  0.5262  1.8443
18258TIP3    H276190   6.832   5.735   3.791 -0.5835 -0.8239 -1.7350
18259TIP3   OH276191   1.630   3.153  17.281  0.3379  0.1268  0.1293
18259TIP3    H176192   1.580   3.076  17.310  0.5209 -0.4958 -1.1272
18259TIP3    H276193   1.717   3.118  17.262  0.2456  0.5124 -1.0554
18260TIP3   OH276194   0.300   3.024  10.887  0.3413 -0.2730  0.1087
18260TIP3    H176195   0.207   3.006  10.900  0.3899  0.2246  1.3209
18260TIP3    H276196   0.344   2.954  10.937  0.6259 -0.6016 -0.5927
18261TIP3   OH276197   1.531   4.282  16.874 -0.3925  0.6939  0.1787
18261TIP3    H176198   1.560   4.238  16.794  1.3167  1.4333  0.3377
18261TIP3    H276199   1.538   4.376  16.854 -1.8699  0.9070  0.5549
18262TIP3   OH276200   1.312   5.533  17.363 -0.0385  0.0813  0.1187
18262TIP3    H176201   1.341   5.447  17.393  0.6563  0.4161  0.4300
18262TIP3    H276202   1.251   5.514  17.292 -0.5668 -0.6887  0.7618
18263TIP3   OH276203   2.641   2.971  16.037  0.2540  0.0614  0.2624
18263TIP3    H176204   2.667   2.889  15.995  0.9846  0.9292 -1.0091
18263TIP3    H276205   2.646   2.952  16.131 -0.5771 -1.6471  0.0005
18264TIP3   OH276206   4.899   5.483  17.271 -0.7242 -0.0094  0.5171
18264TIP3    H176207   4.879   5.549  17.205 -0.8727 -0.3832  0.1837
18264TIP3    H276208   4.848   5.407  17.246  1.1878 -1.0442 -0.4469
18265TIP3   OH276209   5.433   4.973   0.543 -0.5604 -0.3166 -0.1317
18265TIP3    H176210   5.506   4.911   0.546  0.3377  0.5769 -2.0081
18265TIP3    H276211   5.449   5.032   0.616  0.0745 -0.7037  0.0513
18266TIP3   OH276212   2.522   4.128  12.189  0.0236  0.2541  0.0265
18266TIP3    H176213   2.614   4.147  12.170  0.3729 -1.3980 -0.0656
18266TIP3    H276214   2.517   4.125  12.284 -0.0078  0.6066  0.0392
18267TIP3   OH276215   3.037   0.371  12.003  0.0795 -0.5534 -0.1862
18267TIP3    H176216   3.000   0.283  12.010  0.0328 -0.5168  0.0455
18267TIP3    H276217   3.016   0.412  12.087  1.4405 -0.8342  0.3206
18268TIP3   OH276218   5.300   2.882   1.251  0.0452  0.2161 -0.6455
18268TIP3    H176219   5.364   2.927   1.196 -0.4902 -0.2281 -1.6532
18268TIP3    H276220   5.268   2.810   1.197 -0.1970 -0.4858  0.4008
18269TIP3   OH276221   0.428   6.330  11.463 -0.3894 -0.4346  0.2235
18269TIP3    H176222   0.376   6.356  11.539  1.0392 -0.6763  1.3234
18269TIP3    H276223   0.499   6.395  11.460 -0.7416 -0.0808 -1.2732
18270TIP3   OH276224   1.037   3.257   5.120  0.4055  0.0224 -0.0627
18270TIP3    H176225   1.099   3.327   5.141  0.0753  0.2219  0.2563
18270TIP3    H276226   0.966   3.268   5.183 -1.6290  1.8992 -2.5005
18271TIP3   OH276227   4.576   0.999   3.558 -0.4084  0.2747 -0.3220
18271TIP3    H176228   4.540   0.972   3.643 -0.0823 -0.2596 -0.3504
18271TIP3    H276229   4.634   1.072   3.580 -0.7641  0.5121 -0.1580
18272TIP3   OH276230   0.462   4.924  11.459 -0.4057 -0.1078  0.4174
18272TIP3    H176231   0.395   4.866  11.422 -2.8586  3.4860 -1.3519
18272TIP3    H276232   0.433   4.942  11.548  0.7547 -1.9423  1.2377
18273TIP3   OH276233   3.152   1.886  10.979  0.6406  0.1904 -1.0997
18273TIP3    H176234   3.141   1.971  10.936  1.1027  0.7210 -0.2082
18273TIP3    H276235   3.155   1.823  10.908 -0.6923  0.8034 -1.7434
18274TIP3   OH276236   4.895   6.569  13.752  0.0766 -0.2329  0.0997
18274TIP3    H176237   4.959   6.519  13.803 -0.7706  0.9372  2.4569
18274TIP3    H276238   4.814   6.563  13.803 -0.6265  1.6052 -0.7224
18275TIP3   OH276239   2.752   1.593   1.911  0.1272  0.4672 -0.0843
18275TIP3    H176240   2.813   1.660   1.881  0.3554 -0.0197 -0.7299
18275TIP3    H276241   2.768   1.519   1.853 -0.9708  0.2770 -0.1605
18276TIP3   OH276242   6.713   1.449  13.039 -0.3936 -0.0586  0.1468
18276TIP3    H176243   6.663   1.419  12.963 -0.7847  0.0633  0.3492
18276TIP3    H276244   6.646   1.486  13.097 -0.1183 -0.3110  0.6247
18277TIP3   OH276245   1.535   3.283   6.121  0.0431  0.0731 -0.2617
18277TIP3    H176246   1.449   3.248   6.144 -0.4623  1.4536  0.0193
18277TIP3    H276247   1.586   3.206   6.095 -1.2673 -0.7620 -0.4287
18278TIP3   OH276248   3.210   2.318   2.793 -0.6504 -0.2911  0.0718
18278TIP3    H176249   3.183   2.397   2.746 -0.6935 -0.6556 -0.5245
18278TIP3    H276250   3.185   2.246   2.735 -2.2341 -0.8396  1.3604
18279TIP3   OH276251   4.810   4.047   0.667  0.4955  0.1308 -0.3397
18279TIP3    H176252   4.865   4.116   0.706 -0.5190  0.6285  0.2500
18279TIP3    H276253   4.782   3.994   0.742 -0.2110  0.1614 -0.5776
18280TIP3   OH276254   1.653   4.296  12.386  0.5148 -0.1459  0.3589
18280TIP3    H176255   1.667   4.225  12.449 -0.8283 -0.7844 -0.0342
18280TIP3    H276256   1.583   4.348  12.424 -0.6633 -0.8177 -0.8092
18281TIP3   OH276257   1.453   0.655  16.480  0.1496  0.1498  0.6146
18281TIP3    H176258   1.542   0.638  16.510  0.1537 -0.9882  0.0320
18281TIP3    H276259   1.398   0.644  16.558  0.0649 -3.5786  0.2282
18282TIP3   OH276260   0.755   4.155  12.022  0.0391 -0.0301 -0.3726
18282TIP3    H176261   0.768   4.178  11.930 -1.1389 -1.3957 -0.9237
18282TIP3    H276262   0.736   4.238  12.066  3.7676  1.1571 -0.6738
18283TIP3   OH276263   2.318   4.290  10.919 -0.6916  0.0341 -0.0793
18283TIP3    H176264   2.224   4.280  10.908 -0.7455  0.0088  0.3690
18283TIP3    H276265   2.328   4.333  11.004 -0.3331  0.8347 -0.5104
18284TIP3   OH276266   0.587   5.231   6.303 -0.1787 -0.0829 -0.1566
18284TIP3    H176267   0.591   5.251   6.209  0.8915  2.3002  0.3217
18284TIP3    H276268   0.537   5.150   6.308  2.2188 -1.9511 -2.9969
18285TIP3   OH276269   4.242   3.423   0.671  0.4864  0.5396 -0.1251
18285TIP3    H176270   4.247   3.351   0.735 -2.7704 -1.2676 -1.6649
18285TIP3    H276271   4.235   3.502   0.725  1.2475 -0.5659  1.6867
18286TIP3   OH276272   2.703   3.848  12.312  0.2732 -0.4859  0.2252
18286TIP3    H176273   2.622   3.870  12.358 -0.1780 -0.1831 -0.6852
18286TIP3    H276274   2.734   3.932  12.276  0.4375 -0.7606 -0.2906
18287TIP3   OH276275   6.042   6.091   3.455 -0.1198 -0.2531 -0.5318
18287TIP3    H176276   6.126   6.063   3.421 -0.4976  0.3296 -2.0242
18287TIP3    H276277   6.054   6.093   3.550  1.8143  0.6680 -0.7457
18288TIP3   OH276278   2.367   0.117  12.589  0.4876  0.1302 -0.0787
18288TIP3    H176279   2.281   0.075  12.593 -0.1277  0.9244 -2.9219
18288TIP3    H276280   2.360   0.191  12.649 -0.3682 -0.5324  0.6653
18289TIP3   OH276281   0.230   2.338   3.226  0.4864  0.2273  0.5671
18289TIP3    H176282   0.255   2.290   3.305 -3.7897 -2.7924  0.4231
18289TIP3    H276283   0.265   2.286   3.154  0.1740  0.1797  0.4489
18290TIP3   OH276284   3.475   3.814   5.276  0.2693 -0.1685 -0.2508
18290TIP3    H176285   3.426   3.738   5.308 -0.5581 -0.1929 -1.5280
18290TIP3    H276286   3.501   3.861   5.356 -1.5457 -0.3285  0.4725
18291TIP3   OH276287   5.180   3.918   3.447 -0.3822 -0.3946  0.0190
18291TIP3    H176288   5.268   3.942   3.418 -1.1713 -0.0217 -2.3466
18291TIP3    H276289   5.165   3.971   3.526  1.1614  0.2236 -0.0721
18292TIP3   OH276290   3.839   6.738   1.227  0.2223 -0.0118  0.1044
18292TIP3    H176291   3.754   6.759   1.267  0.4423  0.2399  0.4469
18292TIP3    H276292   3.868   6.821   1.190  0.1271 -0.1929 -0.3859
18293TIP3   OH276293   5.386   5.970   6.319  0.1549  0.0627  0.4758
18293TIP3    H176294   5.381   5.939   6.228 -1.8722 -1.4192  1.0098
18293TIP3    H276295   5.322   6.041   6.323 -0.1955 -0.2730  0.8726
18294TIP3   OH276296   6.377   3.768   5.433  0.2358 -0.0801 -0.0207
18294TIP3    H176297   6.469   3.776   5.407  0.2942  2.6908  0.7584
18294TIP3    H276298   6.328   3.794   5.355  0.1858  0.2441  0.1160
18295TIP3   OH276299   3.813   1.514   4.476 -0.0419  0.3960  0.1449
18295TIP3    H176300   3.896   1.467   4.472 -1.3916 -2.1755  0.5382
18295TIP3    H276301   3.796   1.540   4.385 -0.7931 -2.9002 -0.7746
18296TIP3   OH276302   2.024   1.845  16.265 -0.3906 -0.6763 -0.5423
18296TIP3    H176303   2.020   1.910  16.195  0.5762 -2.0155 -1.8938
18296TIP3    H276304   1.936   1.808  16.268 -1.4854  1.7798  1.4232
18297TIP3   OH276305   0.396   1.245  12.145 -0.1972 -0.5075  0.0153
18297TIP3    H176306   0.318   1.248  12.200 -0.1914 -2.2749  0.1698
18297TIP3    H276307   0.382   1.314  12.080 -0.3307  1.4608  2.0178
18298TIP3   OH276308   0.360   1.985  13.731 -0.0410  0.2968  0.3055
18298TIP3    H176309   0.422   1.922  13.694 -1.5932 -2.3897  1.9345
18298TIP3    H276310   0.363   1.968  13.825 -1.2694  2.0054  0.6934
18299TIP3   OH276311   2.624   4.386   1.568 -0.4237 -0.0814  0.5982
18299TIP3    H176312   2.629   4.303   1.615  0.5214 -0.2578  0.1892
18299TIP3    H276313   2.533   4.415   1.580 -0.5337 -0.7615  1.4330
18300TIP3   OH276314   4.604   0.071   2.305 -0.0463  0.1818 -0.2355
18300TIP3    H176315   4.518   0.087   2.267  0.5517  0.6926 -1.4378
18300TIP3    H276316   4.662   0.132   2.259  1.3724 -1.7083 -1.0957
18301TIP3   OH276317   0.236   0.890   6.272  0.4233 -0.0665  0.5787
18301TIP3    H176318   0.161   0.832   6.254 -0.3704  0.8305  0.9421
18301TIP3    H276319   0.219   0.968   6.219  0.3129  0.7789  1.8169
18302TIP3   OH276320   3.844   1.085  12.280 -0.0471  0.3264 -0.5729
18302TIP3    H176321   3.857   1.057  12.190  0.6150 -0.3793 -0.2628
18302TIP3    H276322   3.777   1.026  12.315  1.6134 -1.1722  0.1931
18303TIP3   OH276323   1.551   3.172   1.892  0.0792  0.6337 -0.2355
18303TIP3    H176324   1.628   3.150   1.944 -0.1982  0.6781  0.1944
18303TIP3    H276325   1.516   3.251   1.933 -0.6426  0.1744  0.0456
18304TIP3   OH276326   2.623   4.882  11.094  0.7450  0.4747 -0.1991
18304TIP3    H176327   2.538   4.911  11.129  1.0552  1.4903 -0.2527
18304TIP3    H276328   2.601   4.841  11.010  0.2796  0.4538 -0.0709
18305TIP3   OH276329   1.795   0.494  16.104  0.6796 -0.5452 -0.0468
18305TIP3    H176330   1.709   0.509  16.065 -0.0220  0.4635  1.7750
18305TIP3    H276331   1.791   0.404  16.138 -1.3366  0.7447  3.7458
18306TIP3   OH276332   5.156   4.568   5.839 -0.0575 -1.1490 -0.2613
18306TIP3    H176333   5.087   4.517   5.881 -0.2585 -0.9730 -0.3748
18306TIP3    H276334   5.218   4.502   5.807 -0.3283 -1.3238 -0.4307
18307TIP3   OH276335   2.472   3.293  13.280 -0.1161  0.4475  0.3291
18307TIP3    H176336   2.451   3.386  13.275  0.2914  0.4776 -1.8591
18307TIP3    H276337   2.387   3.249  13.280 -0.2966  0.7852  0.8176
18308TIP3   OH276338   1.680   1.906  15.836  0.5666 -0.5851 -0.5832
18308TIP3    H176339   1.596   1.860  15.837  0.5965 -0.7657  2.1106
18308TIP3    H276340   1.742   1.841  15.802  0.1666 -1.7239  0.7508
18309TIP3   OH276341   0.836   0.913   4.311  0.6745  0.4102 -0.5951
18309TIP3    H176342   0.870   0.881   4.394 -0.3975  2.0492  0.5441
18309TIP3    H276343   0.914   0.940   4.262  1.2170  1.7556  0.9246
18310TIP3   OH276344   4.704   6.511  15.162 -0.3269 -0.2474 -0.2205
18310TIP3    H176345   4.721   6.568  15.087 -1.3014 -0.9674 -1.0279
18310TIP3    H276346   4.638   6.559  15.214 -0.4253 -0.2093 -0.3800
18311TIP3   OH276347   2.955   1.809  15.681 -0.1659  0.4700  0.0232
18311TIP3    H176348   2.968   1.744  15.612  1.6497 -0.5101  1.1874
18311TIP3    H276349   3.042   1.818  15.722 -0.5914  2.9176  0.5489
18312TIP3   OH276350   3.447   5.318   5.238  0.3911  0.0496 -0.3190
18312TIP3    H176351   3.457   5.302   5.144 -2.4255  1.2948 -0.9364
18312TIP3    H276352   3.502   5.395   5.255  1.5278 -0.6432 -0.7220
18313TIP3   OH276353   5.110   3.093   1.229  0.3113  0.1573  0.1682
18313TIP3    H176354   5.161   3.023   1.271  0.4445  1.2475  1.9442
18313TIP3    H276355   5.024   3.087   1.269  0.3153  0.9732  0.3199
18314TIP3   OH276356   3.373   2.398  15.672  0.1294  0.3892 -0.4043
18314TIP3    H176357   3.420   2.316  15.689  1.5853  0.9604 -1.5485
18314TIP3    H276358   3.282   2.379  15.697  0.6422 -1.2314  0.3460
18315TIP3   OH276359   4.768   1.948   4.576 -0.1088 -0.2260 -0.3572
18315TIP3    H176360   4.747   2.040   4.560 -0.8935 -0.3011  0.1970
18315TIP3    H276361   4.854   1.936   4.535 -0.3062  0.5731 -1.0443
18316TIP3   OH276362   1.552   6.446   5.828 -0.0468 -0.1451  0.1536
18316TIP3    H176363   1.481   6.509   5.836 -1.9352 -2.0219 -1.0351
18316TIP3    H276364   1.523   6.370   5.879  0.8286 -1.1607 -0.7973
18317TIP3   OH276365   2.005   5.344  14.120  0.4445 -0.1459  0.4294
18317TIP3    H176366   2.088   5.362  14.164  0.4809 -0.3059  0.4263
18317TIP3    H276367   1.973   5.263  14.161 -0.4804  0.7392  1.5385
18318TIP3   OH276368   1.686   0.567   1.255 -0.4163 -0.4159 -0.4286
18318TIP3    H176369   1.603   0.541   1.294 -0.3371 -1.3442 -0.8475
18318TIP3    H276370   1.743   0.586   1.329 -0.7779 -0.5101 -0.1238
18319TIP3   OH276371   6.717   6.356  11.324 -0.3965  0.6989 -0.2971
18319TIP3    H176372   6.671   6.311  11.254 -0.5710  1.3887 -0.6316
18319TIP3    H276373   6.810   6.336  11.309 -0.5552 -0.6149  0.3274
18320TIP3   OH276374   2.214   2.467   3.292 -0.0432  0.0353  0.6051
18320TIP3    H176375   2.149   2.527   3.255 -0.6773 -0.9432  0.0989
18320TIP3    H276376   2.269   2.522   3.348 -0.5905  1.0874  0.1206
18321TIP3   OH276377   4.874   3.738   5.122  0.3956 -0.0135 -0.2621
18321TIP3    H176378   4.779   3.731   5.121  0.1488  2.4645 -0.1683
18321TIP3    H276379   4.904   3.656   5.161 -1.7104 -0.6469  0.1338
18322TIP3   OH276380   5.508   2.831   3.887 -0.0508  0.2983  0.1664
18322TIP3    H176381   5.459   2.751   3.907 -1.8844  1.8909  2.5790
18322TIP3    H276382   5.528   2.869   3.972  2.5098  1.4739 -0.8561
18323TIP3   OH276383   1.123   3.004   0.165  0.0419  0.5709  0.1881
18323TIP3    H176384   1.186   3.075   0.171  0.9777 -0.0554 -1.6027
18323TIP3    H276385   1.168   2.928   0.203 -1.4213  1.1108  3.3359
18324TIP3   OH276386   0.786   3.725   5.474  0.0331 -0.2259 -0.0176
18324TIP3    H176387   0.828   3.811   5.470  0.0889 -0.2904 -1.1201
18324TIP3    H276388   0.712   3.737   5.534 -0.4895  0.8235 -0.8431
18325TIP3   OH276389   6.332   1.945  16.759 -0.3245 -0.1641  0.1269
18325TIP3    H176390   6.380   1.912  16.683 -0.6963 -0.8096  0.1588
18325TIP3    H276391   6.347   1.880  16.828  1.1295  1.0972  1.0584
18326TIP3   OH276392   4.988   4.778  11.598  0.2176  0.0976  0.0729
18326TIP3    H176393   4.925   4.825  11.654  0.5098  0.4556  0.1066
18326TIP3    H276394   4.976   4.817  11.512 -0.9287 -1.1282 -0.3589
18327TIP3   OH276395   0.037   1.128   3.884 -0.7987  0.6010 -0.2560
18327TIP3    H176396   0.098   1.061   3.853  0.6065  1.4192  0.6476
18327TIP3    H276397  -0.044   1.080   3.902 -0.1998 -0.6369 -0.7558
18328TIP3   OH276398   1.777   5.001   4.706 -0.1051  0.3816  0.4015
18328TIP3    H176399   1.832   4.987   4.783 -0.5447  1.6255  0.9883
18328TIP3    H276400   1.699   5.045   4.741 -1.4288 -1.1926 -0.4175
18329TIP3   OH276401   4.108   0.265  14.216  0.3539 -0.2427  0.2020
18329TIP3    H176402   4.142   0.276  14.305  1.7550  0.1611 -0.3640
18329TIP3    H276403   4.111   0.352  14.178 -0.4384 -0.3776 -0.1879
18330TIP3   OH276404   5.603   3.732   3.082  0.5796  0.2396  0.0503
18330TIP3    H176405   5.642   3.763   3.000  1.2273 -0.9278 -0.1016
18330TIP3    H276406   5.511   3.757   3.075  0.6430  0.2426 -0.9977
18331TIP3   OH276407   5.357   0.358   2.632 -0.6035  0.0843  0.0302
18331TIP3    H176408   5.371   0.430   2.694 -2.0244 -1.0278  1.7717
18331TIP3    H276409   5.353   0.400   2.546 -1.5129  2.1248  0.9917
18332TIP3   OH276410   1.599   2.448  16.399 -0.2786 -0.3853  0.1672
18332TIP3    H176411   1.647   2.520  16.438 -0.3482  0.7016 -1.6458
18332TIP3    H276412   1.644   2.369  16.431 -0.2284  0.4096  2.2033
18333TIP3   OH276413   5.265   4.376   2.024 -0.7153  0.1091 -0.0718
18333TIP3    H176414   5.206   4.379   1.949  0.9756  0.9866 -1.4509
18333TIP3    H276415   5.208   4.389   2.100 -2.3627  0.2255 -1.2707
18334TIP3   OH276416   4.506   6.767  13.836 -0.0134 -0.4192  0.9844
18334TIP3    H176417   4.492   6.771  13.930 -0.7435  0.9352  0.8487
18334TIP3    H276418   4.425   6.802  13.798  0.4998 -0.3799 -0.1182
18335TIP3   OH276419   0.220   6.464   2.777 -0.5646  0.4127  0.9957
18335TIP3    H176420   0.126   6.452   2.762 -0.0637 -1.2971 -1.2078
18335TIP3    H276421   0.238   6.552   2.746 -1.1049 -0.0301 -0.6864
18336TIP3   OH276422   1.280   3.445   1.417  0.7148  0.4282  0.1589
18336TIP3    H176423   1.319   3.528   1.445 -0.3144  0.8784  0.3045
18336TIP3    H276424   1.194   3.444   1.458 -0.4005  0.5912 -2.0628
18337TIP3   OH276425   2.745   1.483  16.529  0.7056  0.0031  0.1587
18337TIP3    H176426   2.765   1.524  16.612  0.4812 -0.3315  0.3815
18337TIP3    H276427   2.825   1.494  16.477  0.4175  1.3139 -0.0418
18338TIP3   OH276428   3.630   5.089  16.875 -0.6052  0.1449  0.4471
18338TIP3    H176429   3.557   5.148  16.893 -0.9462 -0.5542  1.4476
18338TIP3    H276430   3.638   5.089  16.779  0.0980  2.5989  0.4263
18339TIP3   OH276431   4.370   6.339   5.930  0.1939 -0.6438 -0.2285
18339TIP3    H176432   4.369   6.376   5.842 -0.6919  1.1364  0.4810
18339TIP3    H276433   4.290   6.372   5.971  0.3862 -1.7619  1.1183
18340TIP3   OH276434   1.304   4.442  16.378  0.2421  0.2311 -0.5954
18340TIP3    H176435   1.352   4.399  16.308 -0.1268  0.0561 -0.7471
18340TIP3    H276436   1.212   4.438  16.350  0.1432  0.5897 -0.3323
18341TIP3   OH276437   3.220   6.159   2.411 -0.2148  0.4250 -0.6668
18341TIP3    H176438   3.186   6.204   2.488  1.2757 -2.2122  1.7214
18341TIP3    H276439   3.315   6.168   2.418  0.0717 -1.9301 -0.7781
18342TIP3   OH276440   5.355   1.760   3.077  0.0154 -0.6156 -0.0647
18342TIP3    H176441   5.434   1.716   3.109  0.1693 -0.4392 -0.1988
18342TIP3    H276442   5.317   1.697   3.015 -0.8363 -1.3908  1.1984
18343TIP3   OH276443   4.166   1.693  15.602  0.1559  0.3414  0.1319
18343TIP3    H176444   4.112   1.615  15.609  0.3154 -0.2699 -3.4805
18343TIP3    H276445   4.256   1.661  15.607  0.2138  0.4941  0.0669
18344TIP3   OH276446   1.805   1.587   4.295  0.3019 -0.0931 -0.0344
18344TIP3    H176447   1.807   1.516   4.359  0.5987 -1.7099 -1.7736
18344TIP3    H276448   1.744   1.651   4.333 -0.1852 -1.3771  1.4517
18345TIP3   OH276449   3.087   5.404   0.911 -0.4232 -0.5627  0.4291
18345TIP3    H176450   3.125   5.486   0.878  0.5621 -0.0254  2.7305
18345TIP3    H276451   3.081   5.348   0.834  2.4205  0.3454 -0.5641
18346TIP3   OH276452   0.427   6.135   2.273  0.1870  0.2235  0.4559
18346TIP3    H176453   0.510   6.147   2.320 -0.2989 -1.8133  1.9455
18346TIP3    H276454   0.443   6.174   2.186  1.6608  2.6250  1.6790
18347TIP3   OH276455   6.027   5.495   4.792 -0.0517  0.4811 -0.5170
18347TIP3    H176456   6.060   5.533   4.873 -2.6544  0.1538  0.8236
18347TIP3    H276457   6.001   5.406   4.816  0.7329 -0.2506 -2.1929
18348TIP3   OH276458   5.044   1.841  13.441  0.7164 -0.0183  0.0539
18348TIP3    H176459   4.975   1.898  13.410 -2.5787 -1.9212  3.0883
18348TIP3    H276460   5.104   1.899  13.488 -1.1522  1.3252  0.9208
18349TIP3   OH276461   2.325   2.188  15.785 -0.0583 -0.5231 -0.2734
18349TIP3    H176462   2.281   2.106  15.810 -0.3273  0.3041  2.2136
18349TIP3    H276463   2.262   2.232  15.727 -1.2759 -0.7053  0.8626
18350TIP3   OH276464   5.294   2.465  13.618 -0.4351  0.2830  0.0862
18350TIP3    H176465   5.355   2.421  13.558  0.0937  0.0068  0.8031
18350TIP3    H276466   5.217   2.409  13.618 -0.5196  0.3880 -0.4781
18351TIP3   OH276467   3.334   2.693  15.193 -0.1892 -0.4030 -0.2151
18351TIP3    H176468   3.367   2.630  15.257 -0.1359 -1.9014 -1.6826
18351TIP3    H276469   3.396   2.766  15.198  1.0587 -1.4380 -0.0930
18352TIP3   OH276470   0.118   2.796  13.797  0.1083 -0.2707  0.0354
18352TIP3    H176471   0.109   2.703  13.774  1.0156 -0.3014 -0.2105
18352TIP3    H276472   0.181   2.831  13.734 -1.0927  0.8095 -0.6330
18353TIP3   OH276473   5.121   4.530  10.995 -0.6768  0.1333 -0.2225
18353TIP3    H176474   5.157   4.606  11.041  1.0622  0.0659 -1.3724
18353TIP3    H276475   5.037   4.561  10.961 -0.8593  0.9375  0.8968
18354TIP3   OH276476   5.015   0.582  14.958 -0.0484 -0.2517  1.1919
18354TIP3    H176477   5.098   0.536  14.945  0.6505  0.9508  1.1507
18354TIP3    H276478   4.956   0.517  14.995  0.8659 -1.1802  1.0642
18355TIP3   OH276479   4.315   2.569  11.998  0.5456 -0.2742 -0.2287
18355TIP3    H176480   4.346   2.589  12.086  1.6079 -0.3845 -0.5551
18355TIP3    H276481   4.221   2.585  12.001  0.4081 -1.1435  1.1700
18356TIP3   OH276482   2.219   3.074  12.002  0.6254 -0.3571  0.1323
18356TIP3    H176483   2.226   3.093  11.909  0.6179  5.6957  0.9804
18356TIP3    H276484   2.129   3.096  12.025  0.8343 -0.9677  1.7047
18357TIP3   OH276485   5.523   0.220  11.418  1.0732  0.3614 -0.4389
18357TIP3    H176486   5.509   0.178  11.502  1.2797  1.4248  0.1499
18357TIP3    H276487   5.458   0.180  11.360 -1.0637  1.6035  0.9524
18358TIP3   OH276488   5.156   0.615  13.604 -0.0743 -0.2296  0.4766
18358TIP3    H176489   5.234   0.618  13.660  1.1237  0.5505 -1.1423
18358TIP3    H276490   5.169   0.538  13.549  0.0965  0.4627 -0.4912
18359TIP3   OH276491   2.541   2.816   2.648 -0.3687 -0.7703 -0.0168
18359TIP3    H176492   2.531   2.749   2.580  1.0876  0.7618 -1.8485
18359TIP3    H276493   2.594   2.884   2.607 -3.4378  2.5519  1.0013
18360TIP3   OH276494   3.957   0.184  13.544 -0.3347 -0.1679  0.1065
18360TIP3    H176495   3.964   0.149  13.455  1.2750 -0.6714  0.4018
18360TIP3    H276496   3.935   0.108  13.598 -1.0803  0.0958  0.1886
18361TIP3   OH276497   6.608   0.310   1.003  0.5052 -0.3500 -0.3035
18361TIP3    H176498   6.651   0.312   1.088 -1.7897 -0.8239  0.9604
18361TIP3    H276499   6.544   0.239   1.011 -0.8187  0.6020 -1.8778
18362TIP3   OH276500   3.135   3.061   5.298  0.1116 -0.0757  0.0804
18362TIP3    H176501   3.145   2.984   5.354 -1.1453 -1.2637 -1.2362
18362TIP3    H276502   3.041   3.071   5.287  0.3077  0.1451 -1.7383
18363TIP3   OH276503   4.180   3.263  11.597 -0.2888  0.0853 -0.5716
18363TIP3    H176504   4.252   3.219  11.552 -0.8218 -1.2651 -0.1394
18363TIP3    H276505   4.203   3.356  11.592  1.8403 -0.3481  0.1814
18364TIP3   OH276506   0.387   6.401   4.757 -0.0672 -0.1660 -0.3937
18364TIP3    H176507   0.413   6.490   4.783 -2.2476 -0.0049  1.6174
18364TIP3    H276508   0.423   6.345   4.825 -0.6915 -0.5171 -0.3449
18365TIP3   OH276509   4.429   5.540  12.275  0.2294  0.2622  0.0248
18365TIP3    H176510   4.459   5.554  12.365 -2.8000  1.6408  0.9755
18365TIP3    H276511   4.422   5.445  12.267  2.4004  0.0247  0.5157
18366TIP3   OH276512   6.172   0.409   0.695 -0.0035  0.1933  0.0898
18366TIP3    H176513   6.251   0.438   0.740 -1.8044  1.5389  2.6692
18366TIP3    H276514   6.169   0.462   0.615  1.3787  0.4942  0.2080
18367TIP3   OH276515   5.745   2.330   1.851  0.4427 -0.1411 -0.3578
18367TIP3    H176516   5.678   2.367   1.908  0.2035 -0.9497 -0.1072
18367TIP3    H276517   5.697   2.299   1.774  0.4912 -0.8762 -0.1041
18368TIP3   OH276518   5.396   0.984   6.420 -0.5504 -0.3105  0.1696
18368TIP3    H176519   5.489   0.982   6.397 -0.7084  0.0147 -0.5058
18368TIP3    H276520   5.386   1.065   6.471 -0.3991 -0.5187  0.5331
18369TIP3   OH276521   1.366   4.197  12.750  0.1443 -0.2599 -0.7152
18369TIP3    H176522   1.421   4.125  12.719  1.2580  0.5888 -0.7629
18369TIP3    H276523   1.380   4.267  12.687  1.5461  1.0962  0.9885
18370TIP3   OH276524   4.909   1.142   5.407  0.0328 -0.2941 -0.7297
18370TIP3    H176525   4.930   1.161   5.316  0.0886 -0.1845 -0.6943
18370TIP3    H276526   4.919   1.047   5.415 -1.9198 -0.5994 -1.3373
18371TIP3   OH276527   0.945   5.845   1.868 -0.1216  0.1068 -0.2148
18371TIP3    H176528   0.938   5.851   1.773 -0.0510 -0.3483 -0.2509
18371TIP3    H276529   0.857   5.821   1.897  0.8411 -5.0798 -0.6250
18372TIP3   OH276530   1.595   5.940  13.960 -0.0197  0.0530 -0.1598
18372TIP3    H176531   1.604   5.914  13.868 -2.1943 -1.2257 -0.0844
18372TIP3    H276532   1.682   5.926  13.997  0.7665  0.0751 -1.8923
18373TIP3   OH276533   1.343   4.341   4.161  0.6473 -0.0084 -0.0867
18373TIP3    H176534   1.413   4.326   4.225  0.3835 -1.0338 -0.0116
18373TIP3    H276535   1.298   4.419   4.193  2.8277  1.7724 -1.1403
18374TIP3   OH276536   2.039   2.386  12.855  0.0379 -0.0366  0.4662
18374TIP3    H176537   2.037   2.444  12.931 -0.2955 -1.9379  1.9793
18374TIP3    H276538   2.116   2.330  12.869 -0.3969 -0.8382 -0.2491
18375TIP3   OH276539   0.020   4.618  15.953  0.4764 -0.4144 -0.0485
18375TIP3    H176540   0.056   4.702  15.979  0.2708  0.4916 -2.4372
18375TIP3    H276541  -0.074   4.625  15.967  0.4792 -0.3232 -0.0794
18376TIP3   OH276542   2.566   2.099   0.700  0.3203  0.0307 -0.4791
18376TIP3    H176543   2.551   2.193   0.706 -1.5074 -0.0537 -2.4210
18376TIP3    H276544   2.483   2.063   0.668  1.3731 -2.0671 -1.0718
18377TIP3   OH276545   6.150   3.262  12.770  0.5045  0.1767  0.2341
18377TIP3    H176546   6.199   3.298  12.696 -0.3967  0.9996  0.0338
18377TIP3    H276547   6.117   3.338  12.817 -0.2399 -0.3670  0.6070
18378TIP3   OH276548   4.089   0.467   2.706  0.4216  0.2186 -0.1339
18378TIP3    H176549   4.014   0.435   2.756  0.8005  1.5307  1.3370
18378TIP3    H276550   4.152   0.395   2.708  0.0073 -0.1321  0.3766
18379TIP3   OH276551   1.352   6.576  13.874 -0.1472 -0.0396  0.0380
18379TIP3    H176552   1.280   6.557  13.934 -0.3528 -1.4200 -0.5936
18379TIP3    H276553   1.309   6.606  13.794 -0.0460 -0.8500 -0.3345
18380TIP3   OH276554   5.605   1.818  12.628 -0.3089  0.0251 -0.2571
18380TIP3    H176555   5.684   1.841  12.578  0.2371  0.9378  0.9577
18380TIP3    H276556   5.635   1.752  12.691 -0.6167  0.0749 -0.0557
18381TIP3   OH276557   4.052   4.695  12.475  0.0491  0.1529 -0.2619
18381TIP3    H176558   4.138   4.682  12.436 -0.0106 -0.5446 -0.1786
18381TIP3    H276559   4.030   4.610  12.513  0.0833  0.8007  1.2548
18382TIP3   OH276560   3.195   3.806   0.494  0.2857  0.1425  0.0402
18382TIP3    H176561   3.136   3.878   0.471 -2.3857 -1.1842  2.1432
18382TIP3    H276562   3.237   3.835   0.575  1.2272  0.3534 -0.5092
18383TIP3   OH276563   5.327   2.840  13.827  0.5872 -0.2212 -0.1667
18383TIP3    H176564   5.282   2.808  13.749  0.6261 -2.3777  0.6306
18383TIP3    H276565   5.416   2.860  13.797  0.8742 -1.9122 -0.5417
18384TIP3   OH276566   0.804   2.532   0.608  0.5520 -0.3307 -0.2668
18384TIP3    H176567   0.763   2.527   0.695 -0.7149  1.1731 -0.7280
18384TIP3    H276568   0.742   2.490   0.549  0.6213  0.1499 -0.6874
18385TIP3   OH276569   1.689   5.605  16.893  0.0610 -0.3687  0.5523
18385TIP3    H176570   1.663   5.691  16.925  1.5181  0.1819  0.3548
18385TIP3    H276571   1.617   5.576  16.837 -0.5863  0.5772  0.8823
18386TIP3   OH276572   4.548   1.502   4.599  0.0459 -0.3901  0.9665
18386TIP3    H176573   4.625   1.529   4.648  1.0080 -3.5910  1.4503
18386TIP3    H276574   4.583   1.469   4.516 -1.1297  0.6272  0.0218
18387TIP3   OH276575   3.631   2.751  12.791  0.7669  0.4056 -0.6534
18387TIP3    H176576   3.667   2.696  12.721 -0.0042  2.6224 -2.9633
18387TIP3    H276577   3.577   2.816  12.745  0.6954  2.3824  1.9735
18388TIP3   OH276578   6.347   2.635  16.899  0.0269 -0.3367  0.0379
18388TIP3    H176579   6.439   2.614  16.884 -0.1045  0.6570 -2.7785
18388TIP3    H276580   6.349   2.708  16.962  1.3259  0.7606 -1.1970
18389TIP3   OH276581   1.039   3.422   1.518 -0.7431  0.1680 -0.1320
18389TIP3    H176582   1.051   3.347   1.576 -1.1079 -0.4549 -0.8479
18389TIP3    H276583   0.962   3.401   1.467 -0.4584  0.7354 -0.8142
18390TIP3   OH276584   2.845   3.216  13.091  0.1255  0.6350  0.1296
18390TIP3    H176585   2.813   3.293  13.138  0.8292  0.7775  0.3957
18390TIP3    H276586   2.936   3.238  13.070  0.0728  0.2252 -0.5549
18391TIP3   OH276587   0.963   2.973  15.149 -0.2856 -0.4405  0.3160
18391TIP3    H176588   0.989   2.882  15.163  0.8832 -0.2513 -0.4500
18391TIP3    H276589   0.868   2.970  15.139 -0.2073 -1.6501 -0.2232
18392TIP3   OH276590   5.308   4.747   3.116  0.0468  0.3525 -0.1223
18392TIP3    H176591   5.358   4.673   3.081  0.8069  0.6286  0.3442
18392TIP3    H276592   5.287   4.721   3.205 -0.7342  0.2028 -0.3444
18393TIP3   OH276593   2.921   1.754   2.671 -0.0541 -0.0852  0.1414
18393TIP3    H176594   2.893   1.746   2.580 -2.4482  1.8384  0.6079
18393TIP3    H276595   2.866   1.823   2.707  1.2010 -0.4050  2.9286
18394TIP3   OH276596   4.544   0.121  13.172  0.2745  0.0050  0.3695
18394TIP3    H176597   4.525   0.070  13.251  0.3478  1.0628  1.0823
18394TIP3    H276598   4.469   0.179  13.162  1.0924  1.1388  0.7001
18395TIP3   OH276599   3.503   0.004  13.050  0.4580 -0.2127  0.3674
18395TIP3    H176600   3.436  -0.057  13.080  0.3908 -0.0575  0.5332
18395TIP3    H276601   3.586  -0.038  13.074  0.4257 -0.4514  0.0744
18396TIP3   OH276602   0.671   1.939   3.249 -0.0117 -0.2944 -0.6433
18396TIP3    H176603   0.732   1.911   3.317  1.0312  0.1408 -1.3741
18396TIP3    H276604   0.590   1.892   3.269  0.0158  0.4014  1.3539
18397TIP3   OH276605   2.132   4.473  11.391  0.3756  0.1191  0.5370
18397TIP3    H176606   2.080   4.481  11.471 -2.4356  0.5035 -1.1782
18397TIP3    H276607   2.145   4.563  11.362  0.5506 -0.0516  0.0845
18398TIP3   OH276608   1.510   0.670   3.293  0.4404 -0.1527 -0.1041
18398TIP3    H176609   1.555   0.739   3.341  2.3684 -0.2542 -1.6181
18398TIP3    H276610   1.516   0.593   3.349 -0.4809  0.5375  0.9787
18399TIP3   OH276611   4.958   1.911  14.476  0.8773  0.5790 -0.0211
18399TIP3    H176612   5.029   1.876  14.529  0.9518 -1.3244 -1.2761
18399TIP3    H276613   4.882   1.859  14.502  1.2016 -1.3760 -2.6642
18400TIP3   OH276614   6.209   5.623   3.324 -0.6448 -0.7498 -0.4835
18400TIP3    H176615   6.303   5.605   3.318 -0.4405 -1.2386  2.5815
18400TIP3    H276616   6.169   5.537   3.333 -0.9916 -0.4283  1.4866
18401TIP3   OH276617   3.153   2.745  11.957 -0.9292 -0.4191  0.0842
18401TIP3    H176618   3.207   2.783  12.026  1.2073  0.3036 -1.8492
18401TIP3    H276619   3.138   2.654  11.985 -0.1678 -0.1381  1.4898
18402TIP3   OH276620   4.008   3.881  16.430  0.1795 -0.1572 -0.1818
18402TIP3    H176621   3.924   3.907  16.468  0.5918  2.0910 -0.6423
18402TIP3    H276622   4.012   3.929  16.347  2.7530  1.4700  0.7523
18403TIP3   OH276623   5.860   2.891   6.114 -0.1827  0.2272 -0.2376
18403TIP3    H176624   5.938   2.900   6.059  0.3014 -0.6676  0.2981
18403TIP3    H276625   5.883   2.824   6.178 -2.5453 -2.6292 -2.1323
18404TIP3   OH276626   5.496   3.512  12.318  0.2183  0.2176  0.1554
18404TIP3    H176627   5.536   3.562  12.247 -0.5003 -0.1694 -0.5277
18404TIP3    H276628   5.564   3.450  12.345  0.7672  0.8813  0.3510
18405TIP3   OH276629   0.388   1.547  14.083  0.4393  0.1830  0.0552
18405TIP3    H176630   0.306   1.583  14.050  1.2506  1.9493 -0.1388
18405TIP3    H276631   0.403   1.593  14.166  0.4105 -1.3551  0.9539
18406TIP3   OH276632   5.130   3.268  16.443 -0.1257 -0.1675  0.3877
18406TIP3    H176633   5.045   3.304  16.469 -1.0640 -0.8936 -1.4674
18406TIP3    H276634   5.114   3.174  16.434  1.0206 -0.3841  0.5280
18407TIP3   OH276635   5.801   5.008  13.385  0.0141  0.2811  0.2311
18407TIP3    H176636   5.768   4.919  13.391  1.0956 -0.4145 -2.4935
18407TIP3    H276637   5.786   5.045  13.472 -1.3035 -2.2225  1.1839
18408TIP3   OH276638   2.122   3.629  10.649  0.0843 -0.0959 -0.3305
18408TIP3    H176639   2.071   3.617  10.729  2.1541  0.6630  1.1647
18408TIP3    H276640   2.102   3.719  10.621 -0.7506 -0.4098 -0.8019
18409TIP3   OH276641   2.580   1.304   1.779  0.1382 -0.7126 -0.5775
18409TIP3    H176642   2.617   1.216   1.786  1.4037 -0.2187 -0.8882
18409TIP3    H276643   2.653   1.360   1.754 -0.5608  0.5021 -0.0353
18410TIP3   OH276644   3.885   1.342  15.177 -0.3024  0.4938 -0.6163
18410TIP3    H176645   3.813   1.279  15.175  1.0195 -1.0766 -1.8418
18410TIP3    H276646   3.962   1.292  15.151  1.4002  1.9533  1.2425
18411TIP3   OH276647   6.610   2.178  15.039  0.3100  0.4812  0.1917
18411TIP3    H176648   6.693   2.212  15.075  0.6425  0.8389 -0.8903
18411TIP3    H276649   6.609   2.086  15.065  0.3552  0.8114  1.4440
18412TIP3   OH276650   4.189   4.628   0.479 -0.0774  0.2930 -0.3707
18412TIP3    H176651   4.279   4.620   0.448  0.1517 -0.3482  0.4048
18412TIP3    H276652   4.140   4.567   0.424  0.4443 -1.3603  0.8818
18413TIP3   OH276653   0.988   4.620  16.536  0.2045  0.2808  0.3192
18413TIP3    H176654   0.997   4.537  16.489  0.1236  0.9799 -0.9912
18413TIP3    H276655   1.045   4.681  16.488 -1.1408  1.4346  0.1187
18414TIP3   OH276656   4.624   1.869  13.208  0.1678 -0.2147  0.0966
18414TIP3    H176657   4.629   1.883  13.114  1.5452  1.3726  0.3638
18414TIP3    H276658   4.531   1.854  13.225 -0.5845  2.4895 -1.1632
18415TIP3   OH276659   4.607   1.801   4.271 -0.4065  0.5798 -0.0513
18415TIP3    H176660   4.663   1.746   4.326 -1.2527  1.1835  1.4636
18415TIP3    H276661   4.558   1.738   4.218  0.2843 -0.0244  0.0074
18416TIP3   OH276662   3.510   5.508  11.779 -0.1936  0.3088  0.1136
18416TIP3    H176663   3.462   5.446  11.834  0.9291  1.0339  2.0242
18416TIP3    H276664   3.592   5.462  11.758 -0.4936  0.1484 -0.7399
18417TIP3   OH276665   0.828   0.669   3.061 -0.1047  0.0437 -0.2594
18417TIP3    H176666   0.912   0.714   3.076 -0.6302  0.7981  0.4756
18417TIP3    H276667   0.777   0.731   3.008 -0.1385 -0.4886 -0.8577
18418TIP3   OH276668   6.462   5.738  12.036 -0.1023  0.1604  0.4058
18418TIP3    H176669   6.402   5.674  11.997 -0.0750  0.1317  0.4101
18418TIP3    H276670   6.536   5.740  11.976 -0.5265  0.9001 -0.0957
18419TIP3   OH276671   1.037   2.421   0.932  0.4940 -0.4215  0.0059
18419TIP3    H176672   1.106   2.485   0.916  1.0384 -1.4484 -2.0243
18419TIP3    H276673   0.966   2.472   0.973  0.9730  1.4434 -1.3545
18420TIP3   OH276674   4.654   0.552   3.622 -0.3732  0.5974  0.1539
18420TIP3    H176675   4.561   0.554   3.647 -0.5422 -1.6883 -0.0606
18420TIP3    H276676   4.655   0.587   3.533 -1.0252  0.6921  0.1794
18421TIP3   OH276677   4.948   0.117  16.343  0.1487 -0.0934  0.1043
18421TIP3    H176678   4.960   0.211  16.335 -0.0251 -0.1113 -0.3701
18421TIP3    H276679   5.026   0.079  16.303 -0.8353 -0.1858 -1.8376
18422TIP3   OH276680   2.789   4.358  11.965 -0.3485  0.5377  0.0937
18422TIP3    H176681   2.864   4.301  11.946 -0.1047  0.6862  0.5960
18422TIP3    H276682   2.795   4.428  11.901 -1.1983 -0.4920 -1.1594
18423TIP3   OH276683   6.053   2.439  12.109  0.0839 -0.2112  0.7422
18423TIP3    H176684   5.977   2.415  12.056 -0.4324  2.0385  0.3379
18423TIP3    H276685   6.025   2.424  12.200 -1.3465  1.6719  0.6762
18424TIP3   OH276686   1.564   3.682  12.535  0.0347  0.0723  0.4249
18424TIP3    H176687   1.489   3.649  12.485 -0.3083 -0.3284  1.1706
18424TIP3    H276688   1.527   3.750  12.591  0.3803  0.4110  0.2416
18425TIP3   OH276689   6.077   5.067  12.126 -0.1075 -0.1593 -0.2913
18425TIP3    H176690   5.985   5.070  12.099  0.1506 -1.6514 -1.4568
18425TIP3    H276691   6.122   5.126  12.065 -0.4232  1.5575  1.0629
18426TIP3   OH276692   1.637   5.905   0.263 -0.4858  0.0767 -0.0166
18426TIP3    H176693   1.560   5.905   0.206  0.4929 -0.9014 -1.4094
18426TIP3    H276694   1.601   5.902   0.352 -2.0454  0.2575 -0.6066
18427TIP3   OH276695   1.979   0.960  11.464  0.3122 -0.1561 -0.1157
18427TIP3    H176696   1.909   0.941  11.402 -0.0703  1.2745 -0.1514
18427TIP3    H276697   1.967   0.897  11.535 -0.9637  0.0102 -0.1633
18428TIP3   OH276698   5.256   3.312   3.741  0.4208  0.2421 -0.3068
18428TIP3    H176699   5.235   3.220   3.752  1.7940 -0.2748 -1.6770
18428TIP3    H276700   5.351   3.317   3.744  0.3895  1.5718 -0.5470
18429TIP3   OH276701   4.999   4.790   5.627 -0.8263 -0.1608 -0.1130
18429TIP3    H176702   4.961   4.877   5.613 -3.1053 -0.8811  1.1538
18429TIP3    H276703   5.084   4.807   5.668 -0.0473  1.4874 -2.2100
18430TIP3   OH276704   6.082   2.800   0.175 -0.1177 -0.1413  0.0637
18430TIP3    H176705   6.028   2.864   0.221 -1.4875 -1.7558  0.8282
18430TIP3    H276706   6.042   2.793   0.088 -0.8874 -0.9729  0.4642
18431TIP3   OH276707   2.003   4.915   2.024  0.4877  0.1195  0.0010
18431TIP3    H176708   1.922   4.885   1.982 -0.5645  1.8346  0.7021
18431TIP3    H276709   2.061   4.938   1.952  0.9978 -2.5054 -0.5580
18432TIP3   OH276710   3.918   5.459  11.443 -0.1987  0.3480  0.6558
18432TIP3    H176711   3.893   5.548  11.469  1.1293  1.2908 -1.1063
18432TIP3    H276712   4.013   5.463  11.431 -0.3203 -0.8646 -1.0641
18433TIP3   OH276713   3.372   4.702   0.247  0.1944 -0.4493 -0.0849
18433TIP3    H176714   3.451   4.756   0.252  0.1076 -0.0969 -1.7645
18433TIP3    H276715   3.404   4.612   0.251  0.7680 -0.3241 -1.2688
18434TIP3   OH276716   3.156   6.118   0.816  0.0967 -0.0582 -0.0138
18434TIP3    H176717   3.242   6.124   0.774 -0.2643 -0.4289 -0.8170
18434TIP3    H276718   3.094   6.141   0.747 -0.5072 -0.6604  0.3171
18435TIP3   OH276719   1.603   5.512   1.678 -0.2119 -0.1291  0.5114
18435TIP3    H176720   1.644   5.568   1.745  0.9644  0.5611 -0.7298
18435TIP3    H276721   1.640   5.544   1.595 -0.4967 -1.9225 -0.3427
18436TIP3   OH276722   6.189   1.398  13.929  0.3265 -0.1015  0.1767
18436TIP3    H176723   6.121   1.376  13.992  0.0374  1.9646  0.6647
18436TIP3    H276724   6.143   1.409  13.846  0.0032  1.3101  0.5089
18437TIP3   OH276725   4.978   5.515   2.448  0.4770 -0.5147 -0.2481
18437TIP3    H176726   4.949   5.606   2.460 -0.0068 -0.4742 -1.5583
18437TIP3    H276727   5.073   5.521   2.441  0.3317  0.1586 -2.1826
18438TIP3   OH276728   6.749   0.879  12.219  0.0636  0.6517  0.0626
18438TIP3    H176729   6.776   0.888  12.310  1.7092 -1.4438 -0.1479
18438TIP3    H276730   6.703   0.961  12.200  1.8652  2.2537  2.0253
18439TIP3   OH276731   1.070   3.118   0.441 -0.1731 -0.1705  0.1687
18439TIP3    H176732   1.059   3.069   0.359 -2.0611  1.3101 -0.5212
18439TIP3    H276733   1.065   3.051   0.509 -0.9411 -1.1656 -0.8140
18440TIP3   OH276734   0.815   0.401  16.931 -0.0804  0.0566  0.2011
18440TIP3    H176735   0.883   0.467  16.915 -0.7190  1.3998  2.4451
18440TIP3    H276736   0.802   0.404  17.026  0.4762 -4.0169  0.5575
18441TIP3   OH276737   0.235   0.702  12.927  0.0657  0.1310 -0.1866
18441TIP3    H176738   0.255   0.793  12.949  0.9955 -0.2214  0.5066
18441TIP3    H276739   0.313   0.654  12.954 -1.3055 -1.1876  1.7216
18442TIP3   OH276740   4.395   5.806   2.274  0.1389  0.1219  0.2085
18442TIP3    H176741   4.349   5.869   2.330 -1.7289 -1.0001  0.0308
18442TIP3    H276742   4.337   5.794   2.199  2.0683  0.7257 -1.4640
18443TIP3   OH276743   0.405   5.416   3.091  0.5566  0.2985  0.5951
18443TIP3    H176744   0.438   5.405   3.002 -1.2545  0.6386 -0.1615
18443TIP3    H276745   0.415   5.510   3.108  0.1193  0.3751  0.4264
18444TIP3   OH276746   4.438   2.417  14.212  0.4436  0.0788 -0.1472
18444TIP3    H176747   4.479   2.502  14.231  1.4337 -0.5875  0.8124
18444TIP3    H276748   4.510   2.355  14.213 -0.4080 -0.9301  0.2451
18445TIP3   OH276749   0.744   5.421  12.707  0.0277 -0.6233  0.0820
18445TIP3    H176750   0.826   5.461  12.738  0.2628 -1.7612  1.0423
18445TIP3    H276751   0.767   5.383  12.622  0.4371 -0.7160  0.2300
18446TIP3   OH276752   6.363   6.149   6.045 -0.2946 -0.0005 -0.6488
18446TIP3    H176753   6.452   6.183   6.057  0.1129 -0.3302 -2.4618
18446TIP3    H276754   6.309   6.203   6.104  0.9349  0.9541 -0.3504
18447TIP3   OH276755   0.296   1.261  16.130  0.1141  0.1050 -0.2679
18447TIP3    H176756   0.307   1.343  16.178 -0.8838 -0.6112  1.2706
18447TIP3    H276757   0.349   1.272  16.051  1.0064  1.7298  0.5039
18448TIP3   OH276758   0.574   3.850   0.829 -0.2433 -0.4633  0.8448
18448TIP3    H176759   0.668   3.837   0.818  0.0450  2.4620 -1.0192
18448TIP3    H276760   0.565   3.890   0.915  0.2262 -0.5855  0.9539
18449TIP3   OH276761   5.773   3.906  12.180 -0.0324  0.2068  0.6767
18449TIP3    H176762   5.797   3.905  12.273 -1.0452  1.5735  0.9899
18449TIP3    H276763   5.823   3.979  12.143 -0.4009  0.3205  0.3875
18450TIP3   OH276764   5.639   5.138  13.190 -0.0383  0.6197 -0.3358
18450TIP3    H176765   5.682   5.102  13.267 -1.5957 -0.0655  0.2594
18450TIP3    H276766   5.688   5.102  13.116  0.4989 -0.0177  0.3115
18451TIP3   OH276767   4.244   5.698   2.757  0.5020 -0.5103  0.2377
18451TIP3    H176768   4.212   5.736   2.675 -0.2640 -0.6098  0.4862
18451TIP3    H276769   4.311   5.636   2.729 -1.9828 -3.0120 -0.6130
18452TIP3   OH276770   1.394   4.905  15.970 -0.2119  1.0062  0.4384
18452TIP3    H176771   1.408   4.866  16.056 -0.3798  1.8232  0.8381
18452TIP3    H276772   1.418   4.835  15.909  0.9110  0.7499  1.1324
18453TIP3   OH276773   6.600   3.277   3.855  0.3447  0.3353 -0.6903
18453TIP3    H176774   6.693   3.297   3.860  0.0437  1.6117  0.7501
18453TIP3    H276775   6.566   3.336   3.788  0.5566 -0.1603 -1.2463
18454TIP3   OH276776   4.264   0.918  14.004  0.4182  0.2956  0.3404
18454TIP3    H176777   4.248   0.841  13.950  1.1116  0.0622  0.4625
18454TIP3    H276778   4.268   0.884  14.093  0.5425  0.4991  0.4119
18455TIP3   OH276779   3.582   5.837  16.620 -0.5849 -0.1878  0.0198
18455TIP3    H176780   3.655   5.852  16.680 -0.2565  1.8554 -0.8061
18455TIP3    H276781   3.615   5.772  16.558 -0.0015 -0.3594  0.5034
18456TIP3   OH276782   2.702   3.982  13.572 -0.4740 -0.2288 -0.3149
18456TIP3    H176783   2.738   3.946  13.653 -2.1849 -0.4439  0.3961
18456TIP3    H276784   2.691   4.076  13.590 -0.6389 -0.2346 -0.3786
18457TIP3   OH276785   6.203   4.410   4.325 -0.0993  0.1238 -0.0356
18457TIP3    H176786   6.267   4.437   4.260 -0.4152  3.3239  0.7937
18457TIP3    H276787   6.154   4.340   4.283  0.5864  1.1369 -2.7259
18458TIP3   OH276788   4.658   2.897  14.575  0.1898 -0.6671 -0.1824
18458TIP3    H176789   4.753   2.899  14.567  0.1038 -1.6209 -1.7921
18458TIP3    H276790   4.631   2.988  14.562  0.9349 -0.0671  1.9450
18459TIP3   OH276791   0.420   3.263   1.905  0.3820  0.0665 -0.5119
18459TIP3    H176792   0.392   3.268   1.996  1.0075 -1.5170 -0.1952
18459TIP3    H276793   0.345   3.223   1.860 -0.4820  2.1230 -1.0007
18460TIP3   OH276794   2.773   2.006  13.943  0.7524 -0.2103 -0.0586
18460TIP3    H176795   2.734   2.074  13.998  3.5276  1.2305  0.3057
18460TIP3    H276796   2.698   1.956  13.910 -1.2847  1.7759  1.2486
18461TIP3   OH276797   1.172   4.548  13.867  0.3023  0.1264  0.2988
18461TIP3    H176798   1.241   4.577  13.808 -0.4892 -0.9600 -1.2207
18461TIP3    H276799   1.213   4.478  13.918 -0.2286 -2.2759 -2.3148
18462TIP3   OH276800   6.314   6.227   5.501 -0.0338 -0.2138  0.6432
18462TIP3    H176801   6.351   6.196   5.418 -0.6458  1.1670 -0.1821
18462TIP3    H276802   6.283   6.147   5.544  1.1531 -1.0634  0.0009
18463TIP3   OH276803   2.430   3.704   1.467  0.6305  0.1821 -0.3207
18463TIP3    H176804   2.381   3.764   1.523  1.5661  0.9111 -0.2702
18463TIP3    H276805   2.387   3.619   1.479 -0.6433  0.8106 -0.3226
18464TIP3   OH276806   6.294   3.889   5.196 -0.0226 -0.4317  0.4343
18464TIP3    H176807   6.214   3.895   5.143  0.7375 -0.3263 -0.7326
18464TIP3    H276808   6.332   3.805   5.172  1.5977  0.6675 -1.0789
18465TIP3   OH276809   6.265   4.358  12.851 -0.1002  0.5051  0.7087
18465TIP3    H176810   6.277   4.428  12.915  0.5545 -0.1807  1.3613
18465TIP3    H276811   6.269   4.277  12.903 -0.4573 -0.0320 -0.0789
18466TIP3   OH276812   4.056   5.765  14.569  0.5027  0.1177 -0.4108
18466TIP3    H176813   4.109   5.745  14.492  2.0494 -0.0531  0.6337
18466TIP3    H276814   3.978   5.712  14.560  0.1265  0.9329 -2.3941
18467TIP3   OH276815   4.915   3.640   1.579  0.0173 -0.2795  0.0669
18467TIP3    H176816   4.914   3.560   1.631 -0.8295  0.1028  0.6531
18467TIP3    H276817   4.838   3.689   1.608 -0.6039 -0.1387 -1.6725
18468TIP3   OH276818   5.834   5.342  10.922 -0.0499  0.5810  0.1155
18468TIP3    H176819   5.892   5.339  10.998 -0.4751 -1.7699  0.4558
18468TIP3    H276820   5.768   5.275  10.941 -2.2486  2.3897 -0.7536
18469TIP3   OH276821   3.119   0.843   0.093 -0.1365  0.0621 -0.3658
18469TIP3    H176822   3.096   0.911   0.029  0.3999  0.3669 -0.2355
18469TIP3    H276823   3.090   0.762   0.052  0.0914  0.2674 -0.9471
18470TIP3   OH276824   5.365   2.681   4.769 -0.1769 -0.4643 -0.0695
18470TIP3    H176825   5.394   2.590   4.759 -0.0149 -0.1651 -3.1751
18470TIP3    H276826   5.433   2.721   4.823  0.3038 -1.9167  0.4676
18471TIP3   OH276827   3.468   3.040   2.661 -0.6201  0.5738 -0.0180
18471TIP3    H176828   3.539   2.978   2.647  0.3952  1.2062  1.9992
18471TIP3    H276829   3.504   3.106   2.720 -2.2265  2.1196 -0.6549
18472TIP3   OH276830   3.635   4.288   2.516  0.0931 -0.2390 -0.3054
18472TIP3    H176831   3.639   4.195   2.495  0.7085 -0.4580  0.7455
18472TIP3    H276832   3.543   4.312   2.500 -0.8116 -1.7114  2.1208
18473TIP3   OH276833   0.648   0.611   1.209 -0.5910  0.3259  0.1695
18473TIP3    H176834   0.604   0.652   1.135  0.3215  1.0720  0.0269
18473TIP3    H276835   0.731   0.657   1.217 -0.9342  0.7097  2.0668
18474TIP3   OH276836   2.035   2.242  14.333  0.3237 -0.5785  0.0461
18474TIP3    H176837   2.098   2.287  14.276  1.1391 -2.4541 -0.5950
18474TIP3    H276838   1.962   2.220  14.276 -0.2874  0.3149  0.4670
18475TIP3   OH276839   3.752   4.680   5.462 -0.0002  0.2025 -0.0935
18475TIP3    H176840   3.792   4.759   5.499  1.2121 -0.7095  0.6410
18475TIP3    H276841   3.696   4.712   5.392  1.2118  1.6485 -0.4621
18476TIP3   OH276842   4.970   2.459  13.049 -0.2348  0.0138  0.6945
18476TIP3    H176843   4.993   2.387  12.990 -1.4544 -0.0685  0.2922
18476TIP3    H276844   5.015   2.535  13.013 -0.8524 -0.0666 -0.2693
18477TIP3   OH276845   3.237   4.447  11.223  0.2602  0.4443  0.2389
18477TIP3    H176846   3.234   4.526  11.168 -1.9674  1.0660  1.1559
18477TIP3    H276847   3.238   4.374  11.161 -2.0456  1.1246 -0.7036
18478TIP3   OH276848   6.697   1.288  11.976  0.1704  0.2504 -0.1436
18478TIP3    H176849   6.761   1.336  11.923  0.3865  0.4605  0.3004
18478TIP3    H276850   6.714   1.196  11.957  1.1812  0.2600  0.6012
18479TIP3   OH276851   1.498   5.870  11.389  0.5869  0.0591 -0.1209
18479TIP3    H176852   1.450   5.897  11.468  1.8065 -2.1958  1.5317
18479TIP3    H276853   1.551   5.946  11.366  0.9713  0.4763  1.8925
18480TIP3   OH276854   1.912   4.148  13.975  0.6471 -0.3209 -0.5818
18480TIP3    H176855   1.899   4.195  14.058  0.7479 -1.1002 -0.1176
18480TIP3    H276856   1.974   4.203  13.926  0.1393  0.4405 -0.3892
18481TIP3   OH276857   5.561   6.537  15.897 -0.1064 -0.6425  0.1819
18481TIP3    H176858   5.613   6.522  15.818 -1.5483 -1.2958 -0.6859
18481TIP3    H276859   5.526   6.451  15.919 -0.4572 -0.2940  1.0129
18482TIP3   OH276860   4.360   0.325  12.518  0.2601 -0.0097  0.6980
18482TIP3    H176861   4.374   0.242  12.562 -0.9380 -1.7640 -1.9845
18482TIP3    H276862   4.291   0.368  12.569  1.5163 -0.1826  2.6322
18483TIP3   OH276863   5.056   0.747   4.652 -0.2533  0.1093 -0.1271
18483TIP3    H176864   4.967   0.731   4.684 -0.3502  1.7239  0.4656
18483TIP3    H276865   5.112   0.697   4.711 -0.7535 -1.0967 -0.6349
18484TIP3   OH276866   5.317   2.546  14.550  0.1116  0.2666 -0.2641
18484TIP3    H176867   5.230   2.540  14.509 -0.2960 -0.3608  0.6657
18484TIP3    H276868   5.373   2.491  14.495 -0.3080 -0.1383 -0.2932
18485TIP3   OH276869   3.100   5.585  12.054  0.1319 -0.0421 -0.0811
18485TIP3    H176870   3.186   5.555  12.085 -0.7190 -1.9550  0.6019
18485TIP3    H276871   3.094   5.552  11.965 -0.0607 -0.3195  0.0319
18486TIP3   OH276872   1.724   1.345  16.558  0.2523 -0.5349 -0.3193
18486TIP3    H176873   1.787   1.417  16.557  1.2670 -1.2079  2.9576
18486TIP3    H276874   1.692   1.343  16.648 -0.9787 -3.1575 -0.7184
18487TIP3   OH276875   3.428   6.336  15.107  0.0356  0.0315 -0.0640
18487TIP3    H176876   3.372   6.331  15.029  1.9764  0.1237 -1.5392
18487TIP3    H276877   3.503   6.280  15.085  0.5018 -0.1400  1.8623
18488TIP3   OH276878   6.348   2.320  14.468 -0.2780 -0.4596  0.2634
18488TIP3    H176879   6.295   2.314  14.388  0.7893  1.0884 -0.6198
18488TIP3    H276880   6.299   2.379  14.525  1.0147  2.1483 -1.1174
18489TIP3   OH276881   5.777   1.308  14.376  0.1412  0.9787  0.1989
18489TIP3    H176882   5.845   1.277  14.436 -1.2756  0.3964  1.5852
18489TIP3    H276883   5.733   1.228  14.347 -1.2597  1.4291  0.9709
18490TIP3   OH276884   2.009   2.048   2.974 -0.5280 -0.3232  0.0983
18490TIP3    H176885   1.931   2.005   3.009 -1.9714  0.4956 -1.8997
18490TIP3    H276886   2.045   1.985   2.910  0.2985 -0.5711  0.7878
18491TIP3   OH276887   3.184   0.133   3.470 -0.6704 -0.1649 -0.2492
18491TIP3    H176888   3.232   0.203   3.425 -1.8047 -0.2006 -1.5796
18491TIP3    H276889   3.126   0.178   3.530  0.7896 -0.1122  1.1967
18492TIP3   OH276890   3.487   0.565  14.568 -0.2352 -0.5749 -0.6823
18492TIP3    H176891   3.550   0.503  14.605 -0.1770 -0.8328 -1.2005
18492TIP3    H276892   3.411   0.559  14.627  0.6986  0.7179  0.7205
18493TIP3   OH276893   3.707   5.961   4.260  0.0825  0.0673  0.1386
18493TIP3    H176894   3.680   6.022   4.192  1.4015  1.2144  0.5969
18493TIP3    H276895   3.708   6.013   4.341  0.5385 -0.7320  0.6649
18494TIP3   OH276896   0.600   6.096  15.676  0.4785  0.0591 -0.3581
18494TIP3    H176897   0.588   6.159  15.605  1.2130  0.4382 -0.1537
18494TIP3    H276898   0.581   6.011  15.635 -0.1684  0.3669 -0.7231
18495TIP3   OH276899   3.187   4.139  14.127 -0.1132  0.7632  0.2743
18495TIP3    H176900   3.192   4.118  14.220 -1.2367  0.8698  0.3606
18495TIP3    H276901   3.160   4.231  14.124 -0.6592  0.5939 -0.1586
18496TIP3   OH276902   4.301   3.289   0.914 -0.2441  0.7596  0.0760
18496TIP3    H176903   4.347   3.255   0.991  1.3511  2.3927 -0.0833
18496TIP3    H276904   4.214   3.311   0.946 -0.2474 -0.3895  0.9215
18497TIP3   OH276905   1.041   5.103  10.673  0.4651 -0.2866 -0.7486
18497TIP3    H176906   1.057   5.036  10.606  0.6768  0.3444 -1.3487
18497TIP3    H276907   1.127   5.122  10.709  0.7960  1.3259 -2.2345
18498TIP3   OH276908   2.439   3.181   4.739  0.2779 -0.3904  0.6061
18498TIP3    H176909   2.344   3.183   4.729  0.3217 -1.8281 -0.5135
18498TIP3    H276910   2.472   3.174   4.649  1.4044 -0.7687  1.0286
18499TIP3   OH276911   5.534   0.941   1.619  0.6613 -0.4646 -0.3856
18499TIP3    H176912   5.473   0.916   1.689  1.7494  0.7635  1.0673
18499TIP3    H276913   5.527   0.870   1.555 -0.6876 -1.4358  0.7732
18500TIP3   OH276914   1.726   5.646  11.279  0.0858  0.2703  0.0835
18500TIP3    H176915   1.674   5.610  11.207 -1.2119  2.3943 -0.1334
18500TIP3    H276916   1.684   5.610  11.358  1.4387 -1.9651 -0.1459
18501TIP3   OH276917   3.829   0.765  14.671 -0.2892  0.2842 -0.1393
18501TIP3    H176918   3.879   0.809  14.740  0.4034  0.1327 -0.5393
18501TIP3    H276919   3.780   0.696  14.717 -0.0629  0.3789  0.2439
18502TIP3   OH276920   2.133   1.753  13.815  0.3409  0.0585 -0.3151
18502TIP3    H176921   2.128   1.658  13.823 -0.7529  0.1983  0.8374
18502TIP3    H276922   2.185   1.781  13.891 -0.5194  0.4846  0.1260
18503TIP3   OH276923   5.618   0.848   0.259  0.2192  0.2112 -0.5475
18503TIP3    H176924   5.545   0.883   0.309  0.3484 -0.6422  0.2771
18503TIP3    H276925   5.694   0.895   0.292  0.2949 -0.3036  0.0351
18504TIP3   OH276926   3.278   0.547   2.067  0.3789 -1.1975 -0.0474
18504TIP3    H176927   3.265   0.600   2.146  1.7333 -1.0286  0.0959
18504TIP3    H276928   3.211   0.577   2.006 -2.1914 -2.8599  1.7585
18505TIP3   OH276929   0.987   5.747  16.747 -0.4295  0.1191  0.8242
18505TIP3    H176930   1.059   5.810  16.742 -1.0422  0.7798  0.2034
18505TIP3    H276931   0.908   5.799  16.733 -0.9494 -0.7784  0.3344
18506TIP3   OH276932   5.318   3.781  16.397 -0.2432  0.5752  0.0859
18506TIP3    H176933   5.361   3.861  16.427  0.5741  0.9440 -1.9051
18506TIP3    H276934   5.283   3.804  16.310 -2.5162 -0.3932  0.6698
18507TIP3   OH276935   1.059   3.196   4.209 -0.4040 -0.4287  0.1519
18507TIP3    H176936   1.020   3.176   4.124  2.2246  0.1769 -1.3238
18507TIP3    H276937   1.042   3.289   4.222 -0.0861 -0.3258 -0.1479
18508TIP3   OH276938   5.962   0.222   1.629 -0.3281  0.1874  0.3912
18508TIP3    H176939   6.033   0.251   1.686 -1.1782  0.6601  1.2440
18508TIP3    H276940   6.006   0.186   1.551  0.9284 -1.7256  1.8827
18509TIP3   OH276941   3.766   1.053  14.273  0.0240 -0.2153  0.6155
18509TIP3    H176942   3.819   1.073  14.196  2.0962 -1.6316  1.5782
18509TIP3    H276943   3.742   0.961  14.262 -0.0030 -0.3131  1.4684
18510TIP3   OH276944   4.885   3.188   1.413 -0.0890  0.3687 -0.3353
18510TIP3    H176945   4.959   3.164   1.469  0.5446  0.6415 -1.0445
18510TIP3    H276946   4.849   3.104   1.384  0.0426  0.2355 -0.1118
18511TIP3   OH276947   1.424   2.342   3.822 -0.4370 -0.1137  0.2443
18511TIP3    H176948   1.482   2.266   3.824  1.7926  1.3741 -2.1139
18511TIP3    H276949   1.338   2.305   3.800  0.3429 -2.0366  0.1596
18512TIP3   OH276950   1.347   5.203  14.757 -0.2361  0.7406  0.2913
18512TIP3    H176951   1.425   5.216  14.810 -0.7026  0.2992  1.1019
18512TIP3    H276952   1.368   5.128  14.701 -0.0005  0.7605  0.3523
18513TIP3   OH276953   6.611   6.418  13.449 -0.2126 -0.1799  0.0761
18513TIP3    H176954   6.582   6.506  13.426  0.3932 -0.0830 -0.3371
18513TIP3    H276955   6.632   6.423  13.542  2.7044  0.9464 -0.5470
18514TIP3   OH276956   0.855   3.776  13.244 -0.0142  0.0973 -0.2836
18514TIP3    H176957   0.843   3.799  13.336  2.4036 -3.2273  1.0746
18514TIP3    H276958   0.831   3.684  13.239  1.9026 -0.3909 -2.4494
18515TIP3   OH276959   0.154   1.691   4.712  0.2885  0.4664 -0.0938
18515TIP3    H176960   0.061   1.706   4.728  0.3924  0.2953  0.7410
18515TIP3    H276961   0.184   1.768   4.663  0.2644  1.8136  1.8887
18516TIP3   OH276962   3.846   3.701  15.987 -0.3953 -0.1027 -0.0123
18516TIP3    H176963   3.822   3.631  15.926  0.5939 -2.9413  2.5845
18516TIP3    H276964   3.898   3.762  15.934 -0.9975 -1.4786 -2.3520
18517TIP3   OH276965   4.126   5.428  14.386 -0.4335  0.1086  0.0884
18517TIP3    H176966   4.150   5.393  14.301 -3.1542 -1.4893 -0.1355
18517TIP3    H276967   4.162   5.517  14.386  0.8083 -0.3194 -2.1360
18518TIP3   OH276968   1.554   5.707  17.347  1.0357 -0.4882 -0.3574
18518TIP3    H176969   1.460   5.689  17.340  0.2673  1.6440  2.6207
18518TIP3    H276970   1.569   5.779  17.286  0.3471  0.2524  0.3221
18519TIP3   OH276971   6.506   3.462   4.789 -0.1365  0.5683  0.2924
18519TIP3    H176972   6.578   3.399   4.790  0.1576  0.8735  2.6804
18519TIP3    H276973   6.440   3.425   4.848 -0.1521  2.2249  1.3795
18520TIP3   OH276974   5.843   3.778   2.123  0.1460  0.5648 -0.4223
18520TIP3    H176975   5.812   3.845   2.183 -2.1877  0.8404 -1.8093
18520TIP3    H276976   5.850   3.822   2.038 -0.1563 -0.6142 -1.0916
18521TIP3   OH276977   1.377   5.816   5.510  0.0292 -0.0027  0.6713
18521TIP3    H176978   1.374   5.881   5.580 -1.0877  0.2411  0.4146
18521TIP3    H276979   1.449   5.758   5.534  1.2414  1.4715  0.7800
18522TIP3   OH276980   3.610   5.534  13.368 -0.0197 -0.1867 -0.4161
18522TIP3    H176981   3.693   5.528  13.320 -0.2966 -0.1694 -0.8914
18522TIP3    H276982   3.595   5.444  13.398 -0.4775 -0.4591 -1.4207
18523TIP3   OH276983   1.216   4.585  12.336 -0.7080 -0.3003 -0.0234
18523TIP3    H176984   1.126   4.615  12.352 -1.0742 -1.4123  0.0786
18523TIP3    H276985   1.244   4.634  12.258 -0.9401  0.9763  0.6610
18524TIP3   OH276986   1.031   5.178  11.847 -0.1641  0.4138  0.2163
18524TIP3    H176987   1.014   5.237  11.921 -0.0334 -1.2063  1.5912
18524TIP3    H276988   1.003   5.092  11.878  1.0717 -0.5340 -1.1863
18525TIP3   OH276989   6.405   1.454  16.747 -0.2047 -0.2638 -0.9273
18525TIP3    H176990   6.323   1.431  16.791 -0.3056 -1.4249 -1.6794
18525TIP3    H276991   6.469   1.390  16.780 -0.4823 -1.7463 -3.0288
18526TIP3   OH276992   0.373   5.287  16.784  0.3939 -0.9024 -0.2059
18526TIP3    H176993   0.444   5.282  16.720  0.1880 -0.6648 -0.4559
18526TIP3    H276994   0.399   5.360  16.842  1.0258 -1.6955  0.5385
18527TIP3   OH276995   0.432   1.547   5.272 -0.3026  0.0219  0.4421
18527TIP3    H176996   0.414   1.471   5.216 -0.5937  0.8345 -0.6011
18527TIP3    H276997   0.370   1.538   5.344 -0.6899 -0.4694  0.0634
18528TIP3   OH276998   0.208   3.480   3.577  0.3386  0.1085  0.0297
18528TIP3    H176999   0.240   3.526   3.499 -0.2783  1.4674  0.5464
18528TIP3    H277000   0.219   3.542   3.648 -1.2529 -0.2373  0.6295
18529TIP3   OH277001   2.452   1.522  13.427  0.7480 -0.1278 -0.2761
18529TIP3    H177002   2.479   1.587  13.363  1.8250 -0.5798 -0.3134
18529TIP3    H277003   2.369   1.488  13.394  0.4804  0.7948 -0.5647
18530TIP3   OH277004   2.826   6.554   5.007  0.4842  0.1871 -0.7199
18530TIP3    H177005   2.783   6.603   5.077  1.5086  1.2422 -0.7903
18530TIP3    H277006   2.920   6.566   5.023  0.7577 -1.1518 -1.1861
18531TIP3   OH277007   4.817   1.103  14.753  0.4839 -0.3924 -0.0296
18531TIP3    H177008   4.825   1.017  14.713  1.3922 -0.1638 -0.3678
18531TIP3    H277009   4.743   1.144  14.707 -0.9771 -1.5205  1.1900
18532TIP3   OH277010   1.064   6.001  15.424 -0.2769 -0.2139 -0.8834
18532TIP3    H177011   1.136   5.960  15.376 -0.0433  0.0068 -0.7189
18532TIP3    H277012   1.007   6.037  15.355  0.3966  0.6866 -0.9877
18533TIP3   OH277013   0.730   5.100   3.018  0.3126  0.4975  0.9026
18533TIP3    H177014   0.786   5.132   2.947  1.5675  0.6077  1.9177
18533TIP3    H277015   0.790   5.060   3.081 -0.9079 -0.8717  1.2620
18534TIP3   OH277016   4.349   3.365  13.542  0.0122 -0.3395 -0.7666
18534TIP3    H177017   4.413   3.328  13.603  1.8522  1.7613 -1.2745
18534TIP3    H277018   4.269   3.373  13.592  0.8921 -0.6102  0.7392
18535TIP3   OH277019   5.337   4.186   0.246 -0.0288  0.2485  0.2691
18535TIP3    H177020   5.248   4.172   0.212 -0.5461 -0.5061  1.8293
18535TIP3    H277021   5.375   4.252   0.188 -1.2849 -0.0707 -0.9780
18536TIP3   OH277022   3.825   2.125   1.061 -0.6841  0.1119 -0.1263
18536TIP3    H177023   3.864   2.050   1.016  0.8526 -0.4947  2.0578
18536TIP3    H277024   3.731   2.109   1.058 -0.4094 -1.6185 -0.1792
18537TIP3   OH277025   2.182   1.054  15.658  0.2572  0.4056  0.5148
18537TIP3    H177026   2.118   1.070  15.589  0.9920 -0.8683 -0.4965
18537TIP3    H277027   2.225   1.138  15.671 -1.2116  1.1463  0.8215
18538TIP3   OH277028   2.423   2.299   0.531  0.2898 -0.1752  0.0213
18538TIP3    H177029   2.375   2.246   0.467  0.4245 -1.4090  0.9133
18538TIP3    H277030   2.374   2.288   0.613  0.2434  1.2002  0.1970
18539TIP3   OH277031   2.928   3.515   5.589 -0.5894  0.4109 -0.3045
18539TIP3    H177032   2.956   3.460   5.516  0.3962  0.8982 -0.3020
18539TIP3    H277033   2.880   3.455   5.646  0.3572 -0.4389 -0.3661
18540TIP3   OH277034   2.371   2.696   4.632 -0.2810 -0.5730 -0.4215
18540TIP3    H177035   2.325   2.758   4.689 -0.2044  0.0170 -0.9830
18540TIP3    H277036   2.352   2.610   4.669  0.9735 -0.1237  1.3733
18541TIP3   OH277037   4.096   5.991  13.861 -0.1694  0.7770 -0.0716
18541TIP3    H177038   4.082   6.052  13.933 -1.7855  0.7567 -0.3251
18541TIP3    H277039   4.034   5.919  13.879  0.4921  0.0425 -0.6756
18542TIP3   OH277040   5.086   1.494  16.825 -1.1149  0.3015 -0.3784
18542TIP3    H177041   5.073   1.570  16.881 -0.4839 -0.6630  1.1247
18542TIP3    H277042   5.003   1.484  16.779 -1.5880  1.2178  0.2351
18543TIP3   OH277043   3.730   4.771  14.610 -0.1991  0.2282 -0.0864
18543TIP3    H177044   3.800   4.819  14.654 -0.4271 -0.6234  1.2552
18543TIP3    H277045   3.751   4.679  14.623 -1.3790 -0.0455  0.0493
18544TIP3   OH277046   6.369   4.688  12.361  0.2729  0.3935 -0.1585
18544TIP3    H177047   6.332   4.720  12.279  0.2496  0.5731 -0.0771
18544TIP3    H277048   6.337   4.598  12.368 -1.5040  1.0465  0.7107
18545TIP3   OH277049   1.580   4.341   0.397  0.6984  0.2289 -0.2540
18545TIP3    H177050   1.628   4.259   0.409  0.3125  0.1276  0.5904
18545TIP3    H277051   1.644   4.410   0.418  0.9588  0.1466 -0.7576
18546TIP3   OH277052   0.813   3.578  15.269 -0.1451 -0.2016 -0.0384
18546TIP3    H177053   0.770   3.535  15.343 -1.3447 -1.2991 -1.3142
18546TIP3    H277054   0.825   3.508  15.205  2.5569  0.3228 -0.2070
18547TIP3   OH277055   6.295   5.099   1.738  0.3606  0.0490  0.2570
18547TIP3    H177056   6.368   5.050   1.774  0.0063 -1.9505 -1.5086
18547TIP3    H277057   6.277   5.167   1.802  3.7554  0.6365  0.7383
18548TIP3   OH277058   5.816   1.585   2.134 -0.4532  0.0590  0.4384
18548TIP3    H177059   5.809   1.599   2.229  1.1940  3.1323  0.2552
18548TIP3    H277060   5.881   1.516   2.125 -0.6421 -0.2880  1.5683
18549TIP3   OH277061   2.876   6.337   6.080 -1.0201 -0.0489  0.0783
18549TIP3    H177062   2.886   6.425   6.117  0.7581 -0.5040  0.7864
18549TIP3    H277063   2.858   6.351   5.987  1.1842  1.0682 -0.2265
18550TIP3   OH277064   6.459   6.544   0.038  1.0474  0.4918  0.2456
18550TIP3    H177065   6.432   6.627  -0.001 -1.0376  0.2425  1.0209
18550TIP3    H277066   6.515   6.569   0.112 -0.0266  1.2757  0.8291
18551TIP3   OH277067   1.702   3.827  16.158  0.0208 -0.6440  0.2163
18551TIP3    H177068   1.796   3.813  16.168  0.0077 -0.9943 -0.1081
18551TIP3    H277069   1.671   3.749  16.111 -0.3403 -0.2884 -0.1424
18552TIP3   OH277070   0.778   2.000  12.732  0.1056  0.0794 -0.4025
18552TIP3    H177071   0.711   2.052  12.687  0.7951  1.0169 -0.3677
18552TIP3    H277072   0.738   1.978  12.817 -0.5607 -0.2816 -0.8011
18553TIP3   OH277073   6.605   1.644   1.924  0.4518 -0.0293  0.3395
18553TIP3    H177074   6.670   1.616   1.988  1.0138 -0.3056 -0.3441
18553TIP3    H277075   6.608   1.578   1.855 -0.9361 -0.3457  0.5468
18554TIP3   OH277076   1.109   5.754  15.688 -0.1984  0.3774  0.0912
18554TIP3    H177077   1.058   5.834  15.676 -1.8755 -0.6740 -0.1690
18554TIP3    H277078   1.135   5.729  15.599 -0.9907 -0.1527 -0.0060
18555TIP3   OH277079   4.973   0.194   5.419 -0.7636 -0.0051  0.2569
18555TIP3    H177080   5.014   0.274   5.384 -0.4031 -0.0562  0.5604
18555TIP3    H277081   5.041   0.127   5.410 -0.1887  0.2537  2.2295
18556TIP3   OH277082   2.464   6.387   4.005  0.1759  0.0737 -0.8559
18556TIP3    H177083   2.527   6.442   3.958  1.9419 -0.8400  0.3003
18556TIP3    H277084   2.483   6.298   3.975  1.7332 -0.6137  1.8217
18557TIP3   OH277085   4.150   3.985   1.743 -0.4850 -0.3418 -0.0019
18557TIP3    H177086   4.158   4.036   1.662 -1.6405  0.2611  0.2352
18557TIP3    H277087   4.179   4.045   1.812 -1.8001  0.0116  0.2723
18558TIP3   OH277088   4.507   2.021   4.899  0.1672  0.0901  0.4028
18558TIP3    H177089   4.568   2.087   4.866 -0.5029 -0.1027 -1.3326
18558TIP3    H277090   4.549   1.937   4.879  0.0998 -0.0272  0.7513
18559TIP3   OH277091   2.729   0.205   6.927 -0.4599  0.1418  0.0950
18559TIP3    H177092   2.804   0.265   6.920  0.1121 -0.2441  2.0998
18559TIP3    H277093   2.654   0.262   6.941 -0.1900  0.4684  0.2338
18560TIP3   OH277094   2.632   4.997  11.909 -0.0354 -0.0623  0.2504
18560TIP3    H177095   2.584   4.934  11.963 -1.9807 -0.1326 -1.4456
18560TIP3    H277096   2.626   4.962  11.820  2.7092  0.2592 -0.1702
18561TIP3   OH277097   0.469   1.570   1.348 -0.0560  0.1656 -0.2104
18561TIP3    H177098   0.379   1.540   1.363 -0.4462 -0.1749 -2.7583
18561TIP3    H277099   0.466   1.664   1.364 -0.7587  0.1013  0.0781
18562TIP3   OH277100   4.894   2.848  16.225  0.2389  0.2663 -0.4200
18562TIP3    H177101   4.815   2.901  16.209 -0.9897 -0.7459  1.8806
18562TIP3    H277102   4.937   2.891  16.299 -0.2043 -1.2635  0.7731
18563TIP3   OH277103   6.479   6.233  15.971 -0.6110  0.0617 -0.3733
18563TIP3    H177104   6.525   6.185  16.040  0.5231  1.2942 -0.2282
18563TIP3    H277105   6.394   6.190  15.964 -0.8087 -0.0466  1.8908
18564TIP3   OH277106   6.588   3.399  12.840 -0.1487 -0.5771  0.5893
18564TIP3    H177107   6.523   3.430  12.903  0.8221 -0.3368  1.5013
18564TIP3    H277108   6.607   3.475  12.786  0.1366 -0.3601  0.9921
18565TIP3   OH277109   2.945   2.711   2.124 -0.2668  0.2241  0.2614
18565TIP3    H177110   3.020   2.753   2.165 -0.3758 -2.0150  3.0556
18565TIP3    H277111   2.936   2.755   2.040  4.0022  0.7845 -0.1240
18566TIP3   OH277112   1.212   5.888   1.600  0.0889 -0.0162  0.1311
18566TIP3    H177113   1.232   5.981   1.590  0.1092  0.0695  0.8815
18566TIP3    H277114   1.118   5.882   1.587  0.0880  0.1104  0.0801
18567TIP3   OH277115   2.249   0.919   4.034  0.1334  0.2843 -0.2392
18567TIP3    H177116   2.287   0.839   4.070 -0.4922 -0.3458 -0.9260
18567TIP3    H277117   2.309   0.945   3.964  0.2598  0.3390 -0.1115
18568TIP3   OH277118   4.917   0.158   2.785  0.1334 -0.5318 -0.1030
18568TIP3    H177119   4.956   0.238   2.822 -1.8632  1.2735 -1.6613
18568TIP3    H277120   4.905   0.178   2.692 -3.9448 -1.0781  0.1243
18569TIP3   OH277121   1.092   6.742   0.125 -1.1450 -0.4268 -0.0412
18569TIP3    H177122   1.033   6.667   0.135 -0.6453 -0.6574  1.5915
18569TIP3    H277123   1.052   6.811   0.179 -0.5095 -0.2281  0.1838
18570TIP3   OH277124   5.393   5.010  12.406  0.9008 -0.3967 -0.6323
18570TIP3    H177125   5.442   4.933  12.375  0.2672 -0.5806 -1.2036
18570TIP3    H277126   5.459   5.065  12.447  1.9550  0.2435 -3.0104
18571TIP3   OH277127   4.285   0.652   4.189  0.0270  0.3427 -0.2948
18571TIP3    H177128   4.305   0.701   4.269 -0.2874  1.0618 -0.6407
18571TIP3    H277129   4.212   0.595   4.214 -1.5967  2.1744 -0.6081
18572TIP3   OH277130   3.023   2.305  15.498  0.0672 -0.0685 -0.2712
18572TIP3    H177131   3.100   2.247  15.501  1.3085  1.4903 -0.8440
18572TIP3    H277132   3.029   2.355  15.579 -1.2717 -1.0153  0.4490
18573TIP3   OH277133   1.320   3.718   3.377  0.3525  0.5125 -0.0064
18573TIP3    H177134   1.350   3.627   3.377  0.4721  0.5185  1.8409
18573TIP3    H277135   1.225   3.712   3.367  0.5674  0.3603 -2.7325
18574TIP3   OH277136   3.952   1.762   1.597  0.4082  0.5416  0.0265
18574TIP3    H177137   4.008   1.698   1.555 -1.0457 -0.3512 -0.6183
18574TIP3    H277138   3.884   1.781   1.533  0.9666  3.0197  0.0529
18575TIP3   OH277139   4.612   0.180   0.477 -0.7252  0.2555  0.6675
18575TIP3    H177140   4.612   0.104   0.419  2.5281 -0.4759  1.3991
18575TIP3    H277141   4.567   0.248   0.428  1.1585 -0.5549 -2.4558
18576TIP3   OH277142   6.657   3.481  11.403  0.2450 -0.0680  0.5022
18576TIP3    H177143   6.615   3.566  11.395  1.1288  0.4905  1.4845
18576TIP3    H277144   6.629   3.433  11.326 -1.2021  0.6952  0.5102
18577TIP3   OH277145   0.180   0.279  11.925 -0.5286 -0.0749  0.2761
18577TIP3    H177146   0.237   0.209  11.894 -2.1777 -0.9236 -1.0048
18577TIP3    H277147   0.188   0.348  11.859  0.5644  0.6945  1.1776
18578TIP3   OH277148   1.343   4.516   1.696 -0.2734  0.2794  0.1303
18578TIP3    H177149   1.320   4.608   1.687  0.7188  0.5485  0.2750
18578TIP3    H277150   1.309   4.491   1.782 -1.2186  0.2997 -0.2317
18579TIP3   OH277151   3.143   5.838  11.209 -0.0250  0.0724  0.0718
18579TIP3    H177152   3.178   5.913  11.257 -1.3174 -0.4351  1.8852
18579TIP3    H277153   3.215   5.775  11.207  0.7154  0.8935 -0.5313
18580TIP3   OH277154   5.384   3.325  12.591  0.3472 -0.1021 -0.3156
18580TIP3    H177155   5.409   3.301  12.502  0.3287 -1.2104 -0.0397
18580TIP3    H277156   5.449   3.282  12.646 -0.5076 -0.6717  0.2707
18581TIP3   OH277157   3.167   2.619   0.941  0.0327 -0.1163  0.1951
18581TIP3    H177158   3.106   2.664   0.999  0.1158  0.2925 -0.0283
18581TIP3    H277159   3.210   2.554   0.996 -0.6774 -0.4770  0.3310
18582TIP3   OH277160   4.381   3.147   5.361  0.2173 -0.5203 -0.8841
18582TIP3    H177161   4.299   3.149   5.410  0.7490 -0.0193  0.0047
18582TIP3    H277162   4.386   3.058   5.326  1.2656 -1.9651  2.5458
18583TIP3   OH277163   5.035   5.893   1.308 -0.9041 -0.0354  0.3347
18583TIP3    H177164   5.112   5.950   1.314  0.3619 -1.3471 -1.8135
18583TIP3    H277165   4.961   5.952   1.311  0.3520  1.9192 -2.5104
18584TIP3   OH277166   2.352   6.417  17.263  0.2292  0.4898  0.1247
18584TIP3    H177167   2.424   6.421  17.327  0.0555  2.0535  0.2572
18584TIP3    H277168   2.359   6.499  17.214 -2.2636  1.3360  1.0318
18585TIP3   OH277169   1.556   1.782  17.199  0.2371  0.2172 -0.4536
18585TIP3    H177170   1.557   1.763  17.105 -1.8752 -0.4417 -0.3986
18585TIP3    H277171   1.511   1.707  17.237 -0.0362  1.0708  0.9515
18586TIP3   OH277172   3.735   0.513   5.950  0.0511 -0.0238  0.7582
18586TIP3    H177173   3.799   0.458   5.904 -2.2709 -1.6648 -0.7884
18586TIP3    H277174   3.787   0.572   6.003  2.8159 -1.2993 -0.3422
18587TIP3   OH277175   2.614   4.234   4.157 -0.4959  0.2076 -0.2790
18587TIP3    H177176   2.665   4.161   4.192  0.6379  0.3367 -1.5932
18587TIP3    H277177   2.662   4.312   4.185 -0.8446  0.3969 -0.2028
18588TIP3   OH277178   5.099   5.550  12.342  0.0730  0.0998 -0.0672
18588TIP3    H177179   5.111   5.547  12.247 -0.5753  3.3488 -0.3422
18588TIP3    H277180   5.167   5.491  12.376  0.1403 -1.3753 -2.4869
18589TIP3   OH277181   4.771   5.745   4.288  0.2732  0.7347 -0.3833
18589TIP3    H177182   4.689   5.789   4.269 -0.6619 -1.8159 -2.9387
18589TIP3    H277183   4.837   5.796   4.242 -0.6159  0.2608 -2.2856
18590TIP3   OH277184   2.984   1.952   0.624 -0.0246 -0.6677  0.3128
18590TIP3    H177185   3.007   1.959   0.716  0.7719 -1.1022  0.1547
18590TIP3    H277186   2.979   1.858   0.607  0.7999 -0.6052 -0.3161
18591TIP3   OH277187   2.348   6.206   6.162 -0.1839  0.0776  0.1459
18591TIP3    H177188   2.253   6.205   6.174 -0.3376  2.2089 -0.5364
18591TIP3    H277189   2.373   6.297   6.175  1.5628 -0.1639 -1.1830
18592TIP3   OH277190   5.270   4.225  11.671 -0.4884 -0.0181  0.7426
18592TIP3    H177191   5.227   4.265  11.596 -0.8356  0.6051  1.2629
18592TIP3    H277192   5.235   4.272  11.747  0.1988 -0.3235  1.2625
18593TIP3   OH277193   4.604   0.227  15.146 -0.1638  0.6458  0.0139
18593TIP3    H177194   4.688   0.183  15.132 -0.3153 -0.1813  1.5008
18593TIP3    H277195   4.605   0.251  15.239 -2.0265 -0.4230  0.3579
18594TIP3   OH277196   2.841   6.762  10.656 -0.0878  0.0918  0.2131
18594TIP3    H177197   2.795   6.820  10.594 -0.3911  0.1713  0.5095
18594TIP3    H277198   2.919   6.734  10.608  0.2568  1.0347  0.1908
18595TIP3   OH277199   5.404   3.044  13.538 -0.1253  0.3099  0.0599
18595TIP3    H177200   5.319   3.033  13.579 -1.1069 -0.3984 -2.0269
18595TIP3    H277201   5.405   3.135  13.507  0.0871  0.4599  0.4983
18596TIP3   OH277202   2.960   3.171   0.367 -0.5118  0.0538 -0.0006
18596TIP3    H177203   2.884   3.172   0.425  0.9693  0.3861  2.0383
18596TIP3    H277204   2.936   3.109   0.297 -2.2305 -0.6460  1.1335
18597TIP3   OH277205   2.953   1.041  12.682 -0.3483  0.5781 -0.2435
18597TIP3    H177206   2.924   1.132  12.684  0.5599  0.8777 -0.3530
18597TIP3    H277207   2.968   1.022  12.589  0.5881  0.6986 -0.1325
18598TIP3   OH277208   3.055   3.796   4.670 -0.1374 -0.2717  0.2180
18598TIP3    H177209   3.090   3.808   4.758  1.1977  0.3396 -0.3571
18598TIP3    H277210   2.967   3.834   4.673 -0.4687 -1.1028  1.5083
18599TIP3   OH277211   2.005   6.706  15.993 -0.4679 -0.6090  0.1917
18599TIP3    H177212   2.031   6.641  16.058 -0.6201  0.0459  0.9195
18599TIP3    H277213   1.969   6.655  15.920  0.8154 -1.4190  0.0950
18600TIP3   OH277214   0.114   4.177   1.444  0.1605 -0.2085  0.1222
18600TIP3    H177215   0.143   4.252   1.496  0.4778  0.4846 -1.0313
18600TIP3    H277216   0.022   4.193   1.427  0.4604  0.4536 -0.9739
18601TIP3   OH277217   4.237   0.947   3.710 -0.1081  0.4534  0.0081
18601TIP3    H177218   4.328   0.946   3.738  0.1556  0.6111 -0.8212
18601TIP3    H277219   4.205   1.034   3.734 -0.2230  0.1891  0.8429
18602TIP3   OH277220   6.546   5.461   3.688  0.8106  0.3583  0.2093
18602TIP3    H177221   6.507   5.383   3.727  1.3708 -0.0636 -0.0666
18602TIP3    H277222   6.483   5.531   3.707 -0.1629 -0.3341 -0.3560
18603TIP3   OH277223   2.569   4.860   3.985  0.2603  0.4047  0.2577
18603TIP3    H177224   2.483   4.898   4.006  0.3457 -0.3156  2.1609
18603TIP3    H277225   2.553   4.765   3.983  1.1667  0.1965  1.6101
18604TIP3   OH277226   6.136   5.880   0.420  0.5587  0.2041  0.2237
18604TIP3    H177227   6.224   5.889   0.383  0.5315  1.7012  0.4561
18604TIP3    H277228   6.149   5.878   0.514  0.4192 -0.8048  0.2315
18605TIP3   OH277229   2.991   2.369   1.522 -0.3511 -0.7599 -0.5281
18605TIP3    H177230   2.918   2.413   1.477  0.9444  0.9283 -1.0879
18605TIP3    H277231   3.009   2.424   1.598 -1.3356 -2.6186  1.1206
18606TIP3   OH277232   5.790   1.831  13.633 -0.0823 -1.0310 -0.0584
18606TIP3    H177233   5.864   1.890  13.622 -1.1526  0.1504 -1.3511
18606TIP3    H277234   5.822   1.762  13.690  3.2794 -2.7188 -3.5179
18607TIP3   OH277235   3.379   1.008  11.717  0.1213 -0.3540 -0.4561
18607TIP3    H177236   3.372   0.912  11.721  1.4004 -0.6564 -3.1984
18607TIP3    H277237   3.472   1.024  11.703  0.0813  1.4088  0.9311
18608TIP3   OH277238   5.383   6.047   4.052 -0.3621 -0.3555 -0.1802
18608TIP3    H177239   5.351   5.958   4.063  0.7750 -0.5099  2.7168
18608TIP3    H277240   5.353   6.094   4.130  1.3764  1.0428 -0.2733
18609TIP3   OH277241   0.380   2.078   4.749 -0.4655 -0.3618  0.3407
18609TIP3    H177242   0.448   2.045   4.808  0.3896  0.8210  0.0599
18609TIP3    H277243   0.331   2.142   4.802 -0.6694 -0.4201  0.2233
18610TIP3   OH277244   1.257   0.359   2.236 -0.0225 -0.0479  0.2953
18610TIP3    H177245   1.271   0.445   2.195 -0.0653 -0.5164 -0.7242
18610TIP3    H277246   1.170   0.364   2.274 -1.0956 -0.4575 -1.9495
18611TIP3   OH277247   1.204   3.670  15.930 -0.0448 -0.3084  0.2898
18611TIP3    H177248   1.166   3.585  15.908  0.7438 -0.5026 -0.3737
18611TIP3    H277249   1.170   3.690  16.017 -0.2970 -1.2727  0.4213
18612TIP3   OH277250   0.708   2.047  13.836 -0.1007 -0.1904 -0.2260
18612TIP3    H177251   0.796   2.031  13.801  0.9465  2.7697  0.7444
18612TIP3    H277252   0.703   1.993  13.915  0.3421 -1.3028 -0.9351
18613TIP3   OH277253   4.658   3.328   1.502  0.3038 -0.6330 -0.1259
18613TIP3    H177254   4.742   3.293   1.473  0.4573 -0.3522 -0.0224
18613TIP3    H277255   4.620   3.368   1.424  1.0627  0.8135  0.2087
18614TIP3   OH277256   5.186   2.652  12.641 -0.3150  0.2255 -0.1805
18614TIP3    H177257   5.194   2.598  12.563 -0.3247 -2.4854  1.5686
18614TIP3    H277258   5.254   2.719  12.631  0.8113 -1.0807 -1.7269
18615TIP3   OH277259   1.484   1.144   4.894  0.5887 -1.0491  0.3310
18615TIP3    H177260   1.577   1.121   4.894  1.0208  0.0713  3.9711
18615TIP3    H277261   1.483   1.239   4.899 -0.8393 -0.9889 -0.4852
18616TIP3   OH277262   2.947   2.847   4.642  0.3576  0.2599 -0.1883
18616TIP3    H177263   2.990   2.884   4.720  0.4154  0.0818 -0.1354
18616TIP3    H277264   2.862   2.817   4.674 -0.9427  2.9971 -0.8061
18617TIP3   OH277265   3.780   5.288  12.643 -0.0041  0.4703  0.3029
18617TIP3    H177266   3.783   5.360  12.580 -0.0099 -0.3382 -0.6198
18617TIP3    H277267   3.688   5.281  12.667 -0.1388  0.1851 -0.2894
18618TIP3   OH277268   3.151   6.235   1.602  0.0543  0.0623 -0.1227
18618TIP3    H177269   3.178   6.184   1.526  2.9289 -1.1836  1.5863
18618TIP3    H277270   3.161   6.176   1.676 -2.1489  1.3888  1.3743
18619TIP3   OH277271   6.357   0.321  14.672 -0.0428  0.0337  0.0548
18619TIP3    H177272   6.313   0.262  14.611  0.4571 -0.6416  0.3337
18619TIP3    H277273   6.448   0.291  14.672 -0.0921 -0.1703  1.3354
18620TIP3   OH277274   6.373   0.489   5.316  0.3742 -0.3158 -0.3838
18620TIP3    H177275   6.390   0.583   5.324 -0.4967 -0.1375 -0.5818
18620TIP3    H277276   6.317   0.469   5.391 -0.9407 -0.3078 -1.3482
18621TIP3   OH277277   1.376   0.194  12.161 -0.3587 -0.2898 -0.4496
18621TIP3    H177278   1.385   0.233  12.074 -1.2706  1.1046  0.0410
18621TIP3    H277279   1.465   0.175  12.188  0.0962  0.9605 -0.9727
18622TIP3   OH277280   4.263   1.690  11.090  0.5303  0.8471  0.1759
18622TIP3    H177281   4.325   1.733  11.149  0.7986  2.5042 -1.2465
18622TIP3    H277282   4.292   1.714  11.002 -1.3151  0.5149 -0.5762
18623TIP3   OH277283   4.942   0.670   2.761  0.0207  0.3171  0.6686
18623TIP3    H177284   5.024   0.713   2.784 -0.4260  1.3131  0.4233
18623TIP3    H277285   4.886   0.740   2.730  0.0874 -0.7338 -2.1001
18624TIP3   OH277286   2.934   6.209   0.247  0.6599 -0.4693 -0.1752
18624TIP3    H177287   2.946   6.208   0.342  0.7713 -2.6330 -0.1653
18624TIP3    H277288   2.844   6.178   0.234  0.4583  0.3470 -0.7720
18625TIP3   OH277289   4.521   2.347  12.770 -0.2459  0.3940  0.1128
18625TIP3    H177290   4.558   2.418  12.823  0.6249  1.9760 -2.4662
18625TIP3    H277291   4.590   2.281  12.767  0.0246  0.6644  0.2717
18626TIP3   OH277292   6.259   2.061  17.333  0.2129  0.0889  0.3570
18626TIP3    H177293   6.227   2.149  17.313  0.1995  0.2220  0.9556
18626TIP3    H277294   6.280   2.064  17.426 -1.0827 -0.9375  0.7081
18627TIP3   OH277295   0.813   4.921   2.454  0.0762 -0.0134  0.4963
18627TIP3    H177296   0.858   4.987   2.507 -0.3281  1.0306 -0.4149
18627TIP3    H277297   0.826   4.951   2.364  0.2332 -1.4193  0.0425
18628TIP3   OH277298   0.945   0.632  12.151 -0.4765 -0.4377 -0.2020
18628TIP3    H177299   0.857   0.605  12.180 -0.2063  0.7006  1.8960
18628TIP3    H277300   0.929   0.693  12.079 -1.5381  0.7455  0.9631
18629TIP3   OH277301   5.195   1.801  10.497  0.2123  0.5274  0.0369
18629TIP3    H177302   5.224   1.821  10.408 -0.8953  1.5990 -0.0974
18629TIP3    H277303   5.263   1.838  10.553  1.5125 -1.1487 -0.3452
18630TIP3   OH277304   3.064   2.942   0.548 -0.1163  0.0660  0.2428
18630TIP3    H177305   3.019   3.025   0.532  0.7178  0.9219  2.0390
18630TIP3    H277306   3.008   2.897   0.612  0.0973 -0.1527  0.2772
18631TIP3   OH277307   3.703   5.372  15.146  0.2302  0.3148  0.7572
18631TIP3    H177308   3.681   5.347  15.236  0.9500  1.6223  1.3243
18631TIP3    H277309   3.632   5.335  15.093 -0.0550 -0.7180  1.8208
18632TIP3   OH277310   5.931   0.683   1.572  0.1069  0.3988  0.1843
18632TIP3    H177311   5.911   0.593   1.598 -0.4369 -0.1713 -2.0111
18632TIP3    H277312   5.884   0.737   1.636 -1.2819 -0.8898  0.3062
18633TIP3   OH277313   5.118   0.475  12.202 -0.1670 -0.2651 -0.2068
18633TIP3    H177314   5.022   0.476  12.204 -0.1825 -1.2793  0.3125
18633TIP3    H277315   5.143   0.567  12.210 -1.0974  0.0020 -0.2282
18634TIP3   OH277316   4.238   5.763   2.064 -0.4403  0.5610 -0.2261
18634TIP3    H177317   4.243   5.696   1.996  0.7948 -1.7604  1.9592
18634TIP3    H277318   4.163   5.736   2.118  2.1256 -1.4265  2.7464
18635TIP3   OH277319   1.501   0.535   3.058 -0.5414  0.0844  0.2132
18635TIP3    H177320   1.502   0.442   3.078 -2.1239 -0.3496 -1.4884
18635TIP3    H277321   1.498   0.578   3.143 -0.0561 -1.4093  1.0170
18636TIP3   OH277322   4.707   0.583   5.675  1.0592  0.0262  0.1869
18636TIP3    H177323   4.645   0.516   5.702  0.1576  0.9611  0.4939
18636TIP3    H277324   4.656   0.664   5.672  1.9511  0.5822 -0.8972
18637TIP3   OH277325   4.918   2.854   3.146 -0.0003 -0.4749 -0.3440
18637TIP3    H177326   4.880   2.869   3.232 -0.0303  0.9717 -0.5853
18637TIP3    H277327   4.997   2.908   3.144 -0.3481  0.0151 -1.4537
18638TIP3   OH277328   1.817   3.070  14.419 -0.1290  0.1951 -0.6052
18638TIP3    H177329   1.866   3.022  14.486  0.8535  0.6931 -0.9377
18638TIP3    H277330   1.844   3.030  14.336 -0.5100  0.2898 -0.7780
18639TIP3   OH277331   5.190   5.674  15.176 -0.0452 -0.2606 -0.7695
18639TIP3    H177332   5.281   5.701  15.161  0.9461 -1.9725  1.4907
18639TIP3    H277333   5.154   5.742  15.233  0.6160 -0.7166  0.2353
18640TIP3   OH277334   2.149   1.012  10.469 -0.2569 -0.0500  0.3757
18640TIP3    H177335   2.194   0.984  10.389 -0.3409 -1.9758  0.9731
18640TIP3    H277336   2.060   1.032  10.440 -0.1369 -0.1870 -0.0994
18641TIP3   OH277337   2.110   6.197   6.632 -0.4442  0.6180  1.0452
18641TIP3    H177338   2.192   6.157   6.602 -0.0718  1.1428  1.3427
18641TIP3    H277339   2.050   6.124   6.642 -0.2889  0.3232 -0.0516
18642TIP3   OH277340   2.065   2.140   6.521 -0.3323  0.4692  0.0606
18642TIP3    H177341   2.114   2.164   6.599 -0.3335  0.0940  0.1790
18642TIP3    H277342   2.114   2.067   6.482 -0.5874  0.3386 -0.0246
18643TIP3   OH277343   5.458   6.286  15.978  0.7851 -0.1040 -0.0532
18643TIP3    H177344   5.412   6.240  16.048  0.2515  1.4180  0.6268
18643TIP3    H277345   5.483   6.217  15.916  0.1389 -1.3089  0.9940
18644TIP3   OH277346   2.345   2.336  10.971 -0.3382  0.1177 -0.2836
18644TIP3    H177347   2.366   2.384  11.051  0.6322 -1.4008  0.4005
18644TIP3    H277348   2.347   2.244  10.996  1.9601 -0.5324 -2.4552
18645TIP3   OH277349   5.725   1.562  13.915  0.2709 -0.6185 -0.2564
18645TIP3    H177350   5.732   1.471  13.942  1.5925 -0.4878 -0.1066
18645TIP3    H277351   5.811   1.584  13.879  0.1391  0.7227  0.1847
18646TIP3   OH277352   6.013   2.342  14.298  0.3088  0.5065 -0.0356
18646TIP3    H177353   6.105   2.339  14.274  0.0795  0.4921 -0.9327
18646TIP3    H277354   5.966   2.309  14.221 -0.5616  2.4326 -0.3933
18647TIP3   OH277355   5.632   4.052  17.116 -0.1075 -0.2780  0.5375
18647TIP3    H177356   5.679   4.135  17.122 -1.7788  0.7670  0.1197
18647TIP3    H277357   5.651   4.020  17.028  1.3018 -0.8646  1.0236
18648TIP3   OH277358   4.565   3.714   1.892  0.1147  0.0882  0.4653
18648TIP3    H177359   4.511   3.656   1.839 -0.2420  1.0138 -0.2193
18648TIP3    H277360   4.650   3.670   1.899 -0.2614 -0.6739  0.2760
18649TIP3   OH277361   2.633   4.172   2.857 -0.3128  0.3743  0.5493
18649TIP3    H177362   2.553   4.203   2.814 -0.4602 -1.1125 -0.2918
18649TIP3    H277363   2.641   4.227   2.936 -0.8177  2.1883 -0.6075
18650TIP3   OH277364   4.853   1.379   0.888  0.0517 -0.1630 -0.5423
18650TIP3    H177365   4.788   1.357   0.955  0.5931  2.9293  1.2025
18650TIP3    H277366   4.931   1.331   0.914 -0.1480 -0.0647  0.2816
18651TIP3   OH277367   1.998   1.097  15.888 -0.0563  0.1224  0.6621
18651TIP3    H177368   1.912   1.116  15.850 -0.0315 -0.3099  0.3944
18651TIP3    H277369   2.050   1.065  15.815  0.0898 -0.4014  0.9969
18652TIP3   OH277370   1.281   2.798  15.678 -0.1225 -0.1740  0.3082
18652TIP3    H177371   1.197   2.756  15.696 -0.1148 -1.1901 -1.7301
18652TIP3    H277372   1.258   2.880  15.635 -0.1024  1.5291  3.2839
18653TIP3   OH277373   2.705   4.663   6.489  0.1164 -1.0405 -0.3901
18653TIP3    H177374   2.733   4.730   6.551 -0.7105  0.5033 -1.6158
18653TIP3    H277375   2.775   4.597   6.491  0.0159 -1.1391  2.2692
18654TIP3   OH277376   1.787   1.064   6.403 -0.4689 -0.4521 -0.0671
18654TIP3    H177377   1.705   1.021   6.426 -0.3481 -1.1882 -0.9204
18654TIP3    H277378   1.761   1.149   6.368 -0.9091 -0.8265 -0.6805
18655TIP3   OH277379   1.546   4.166   1.746 -0.3182  0.2456  0.7002
18655TIP3    H177380   1.625   4.218   1.745 -0.5269  0.6424  2.1011
18655TIP3    H277381   1.491   4.206   1.814 -0.9002 -1.1746  1.1231
18656TIP3   OH277382   5.276   5.231  14.939  0.0621 -0.6371 -0.2253
18656TIP3    H177383   5.211   5.267  15.000  1.3462  0.7141  0.4024
18656TIP3    H277384   5.339   5.187  14.995  0.2840 -0.9770 -0.7388
18657TIP3   OH277385   5.020   2.567   4.037  0.4503  0.3439 -0.4847
18657TIP3    H177386   4.946   2.513   4.065  0.1996  0.6712 -0.5061
18657TIP3    H277387   5.022   2.640   4.099 -1.2860  2.1012 -2.3333
18658TIP3   OH277388   3.321   3.916  15.915 -0.2996 -0.8527  0.4200
18658TIP3    H177389   3.271   3.950  15.989  2.0540  1.0072  1.2831
18658TIP3    H277390   3.379   3.850  15.953  1.4312  0.6219  0.4594
18659TIP3   OH277391   1.707   2.972   4.995  0.1277  0.2379  0.5070
18659TIP3    H177392   1.621   2.976   5.036 -0.2331  0.8899 -0.2873
18659TIP3    H277393   1.766   2.946   5.065 -0.8447 -1.1323  0.8529
18660TIP3   OH277394   5.982   2.347  15.878 -0.0435 -0.1076 -0.1151
18660TIP3    H177395   6.061   2.343  15.824  1.0698  3.5568  0.9637
18660TIP3    H277396   5.954   2.256  15.886  3.0327 -1.3828 -2.0325
18661TIP3   OH277397   5.942   1.314   2.595 -0.2863 -0.6009 -0.5102
18661TIP3    H177398   6.025   1.358   2.576 -0.4613 -0.2841 -0.5568
18661TIP3    H277399   5.875   1.375   2.565 -0.5643 -0.2356  0.7627
18662TIP3   OH277400   5.037   1.015  16.381  0.2116  0.4221 -0.0038
18662TIP3    H177401   5.084   0.941  16.342  2.9404  2.2556 -0.4605
18662TIP3    H277402   5.034   0.995  16.474 -2.0055 -1.6879 -0.4121
18663TIP3   OH277403   3.377   5.315   0.138 -0.1967  0.3950 -0.3130
18663TIP3    H177404   3.414   5.228   0.156  1.6213  1.2281  0.2112
18663TIP3    H277405   3.452   5.366   0.108 -0.4079  2.7889  2.7914
18664TIP3   OH277406   1.432   4.957   4.765  0.3190 -0.3179 -0.3532
18664TIP3    H177407   1.506   5.010   4.794  0.5090 -0.8684  0.1801
18664TIP3    H277408   1.410   4.903   4.840 -1.4351  0.7137 -0.0732
18665TIP3   OH277409   0.928   0.967  11.432 -0.3754  0.4561 -0.6899
18665TIP3    H177410   0.853   0.918  11.399 -0.0761  0.8887 -2.0830
18665TIP3    H277411   0.953   0.922  11.513 -0.9689 -0.8284 -1.1991
18666TIP3   OH277412   0.218   2.816   6.080  0.0185 -0.0757 -0.2162
18666TIP3    H177413   0.271   2.736   6.086  1.4563  0.8552  0.0890
18666TIP3    H277414   0.264   2.879   6.136 -0.1653  1.4496 -1.6992
18667TIP3   OH277415   4.092   1.895  11.371  0.1329 -0.5616  0.2470
18667TIP3    H177416   4.036   1.894  11.294  1.7108  1.5299 -1.0502
18667TIP3    H277417   4.109   1.803  11.391 -1.6327 -1.1699 -0.8677
18668TIP3   OH277418   4.911   5.785   2.473  0.1222  0.3708 -0.2492
18668TIP3    H177419   4.825   5.823   2.488  0.0413  0.3281 -0.6066
18668TIP3    H277420   4.973   5.851   2.505 -0.0560 -0.6739  2.6158
18669TIP3   OH277421   1.595   3.533  17.052 -0.1971 -0.7225 -0.2426
18669TIP3    H177422   1.539   3.609  17.039 -1.2983 -1.5027 -0.1931
18669TIP3    H277423   1.680   3.570  17.076 -0.2590  0.5357 -1.7914
18670TIP3   OH277424   2.537   0.642   2.438 -0.4875 -0.3404  0.4826
18670TIP3    H177425   2.504   0.552   2.433  0.3692 -0.6104 -0.5728
18670TIP3    H277426   2.476   0.686   2.497  0.0161 -2.0278  2.4173
18671TIP3   OH277427   5.238   5.181   4.728  0.1882 -0.2532 -0.6337
18671TIP3    H177428   5.270   5.178   4.638  2.1512  3.0096 -0.2161
18671TIP3    H277429   5.314   5.156   4.781 -0.3169 -0.1391  0.1677
18672TIP3   OH277430   5.949   5.615   5.250  0.2111 -0.0384  0.5578
18672TIP3    H177431   5.908   5.700   5.234 -2.1450 -0.7927  2.0746
18672TIP3    H277432   6.024   5.613   5.190  0.3690  3.0762  0.4788
18673TIP3   OH277433   5.772   0.134  11.512  0.3337  0.5610 -0.4133
18673TIP3    H177434   5.708   0.129  11.441  1.2663  0.9582 -1.3105
18673TIP3    H277435   5.844   0.077  11.484  0.5611  0.4353  0.3884
18674TIP3   OH277436   3.632   2.388  14.122  0.5334  0.4119  0.9857
18674TIP3    H177437   3.571   2.353  14.187  1.0490  0.3945  1.4776
18674TIP3    H277438   3.655   2.314  14.067  0.7778  0.2147  1.3453
18675TIP3   OH277439   3.409   0.805   2.393 -0.0948  0.0769 -0.0518
18675TIP3    H177440   3.478   0.835   2.453  0.1838 -0.5674 -0.0365
18675TIP3    H277441   3.338   0.868   2.404  1.2823  1.9872 -1.6111
18676TIP3   OH277442   5.976   3.513   2.031 -0.2415  0.2951 -1.0429
18676TIP3    H177443   5.933   3.583   2.082 -0.2094 -1.1589  1.1108
18676TIP3    H277444   6.068   3.538   2.029  0.0618 -0.4016  1.1576
18677TIP3   OH277445   3.521   6.467  14.156 -0.6324  0.5721 -0.0446
18677TIP3    H177446   3.602   6.426  14.127 -0.7662  1.3640 -1.6312
18677TIP3    H277447   3.455   6.398  14.150 -0.0101 -0.2763  1.9241
18678TIP3   OH277448   5.442   3.876   2.304  0.1783  0.0694  0.3957
18678TIP3    H177449   5.535   3.886   2.323 -0.0380  0.4237  1.3043
18678TIP3    H277450   5.434   3.905   2.213  1.2659 -1.9128 -0.3950
18679TIP3   OH277451   3.898   2.335   6.561 -0.0216  0.1492  0.9311
18679TIP3    H177452   3.860   2.402   6.504  2.0137 -1.1417 -2.1459
18679TIP3    H277453   3.862   2.253   6.529  0.0250 -0.5414  2.5577
18680TIP3   OH277454   2.549   1.201   6.025  0.5298  0.6056 -0.3559
18680TIP3    H177455   2.563   1.276   6.082 -0.8750  1.2349 -0.7972
18680TIP3    H277456   2.470   1.158   6.060 -1.1967  1.7775 -2.5323
18681TIP3   OH277457   4.151   5.642  11.415 -0.0626 -0.4153 -0.0057
18681TIP3    H177458   4.156   5.651  11.320  1.3410 -1.5076 -0.0730
18681TIP3    H277459   4.119   5.726  11.446  1.9349  0.9125 -1.2779
18682TIP3   OH277460   1.311   6.619  13.583  0.8581 -0.4094  0.0021
18682TIP3    H177461   1.307   6.532  13.623 -1.7395 -0.4726 -0.2184
18682TIP3    H277462   1.220   6.639  13.560  1.6178  1.6465 -1.5398
18683TIP3   OH277463   3.288   1.031  15.780  0.3648 -0.1297 -0.3353
18683TIP3    H177464   3.301   0.955  15.723 -0.7401 -1.2139  0.8078
18683TIP3    H277465   3.223   1.085  15.735 -0.4495 -0.9458 -0.1614
18684TIP3   OH277466   2.956   5.464  14.093  0.7348 -0.2319  0.0348
18684TIP3    H177467   2.969   5.409  14.015 -0.4945 -1.2739  0.5199
18684TIP3    H277468   2.864   5.491  14.087  0.9756  0.7295  0.4876
18685TIP3   OH277469   0.796   4.850  14.945  0.1867 -0.0117 -0.2347
18685TIP3    H177470   0.766   4.919  15.004  0.1730 -1.7297  1.8494
18685TIP3    H277471   0.721   4.791  14.936  1.0127 -1.1508  0.1613
18686TIP3   OH277472   0.939   3.393  11.401 -0.0132  0.2296 -0.0551
18686TIP3    H177473   0.896   3.317  11.439 -0.2155 -0.0755 -0.8697
18686TIP3    H277474   0.888   3.412  11.322  1.1614  0.0352 -0.8951
18687TIP3   OH277475   2.050   2.492   0.504 -0.1823 -0.3176  0.1960
18687TIP3    H177476   1.955   2.484   0.503 -0.2524  0.4034 -0.3670
18687TIP3    H277477   2.081   2.423   0.446 -0.4443  0.1440 -0.5146
18688TIP3   OH277478   1.144   4.713   4.626  0.1162  0.0036  0.0623
18688TIP3    H177479   1.103   4.783   4.576  1.0385  0.6858  0.2463
18688TIP3    H277480   1.153   4.641   4.563 -0.4084  0.2076 -0.2489
18689TIP3   OH277481   0.964   4.865  16.966 -0.3180 -0.0175  0.2762
18689TIP3    H177482   1.021   4.935  16.997 -1.6789 -0.0794  3.1445
18689TIP3    H277483   0.990   4.788  17.017  0.2069 -1.3345 -1.8347
18690TIP3   OH277484   1.512   2.278  15.770 -0.0462 -0.6772  0.1364
18690TIP3    H177485   1.593   2.278  15.821 -0.0557 -2.0727  0.1860
18690TIP3    H277486   1.457   2.344  15.812  1.0108  0.1874  0.1836
18691TIP3   OH277487   5.029   6.061  12.598  0.1346  0.2661 -0.0074
18691TIP3    H177488   5.060   6.036  12.511 -1.4969  0.5261 -0.7097
18691TIP3    H277489   4.978   5.986  12.627 -1.2205  1.0564 -0.2827
18692TIP3   OH277490   1.203   0.552  12.867 -0.4674 -0.2959  0.4242
18692TIP3    H177491   1.246   0.499  12.800 -0.4457 -0.9824  0.9660
18692TIP3    H277492   1.275   0.590  12.917 -0.4859  0.0192  0.2160
18693TIP3   OH277493   4.497   5.879  12.468 -0.1547  0.2995  1.2473
18693TIP3    H177494   4.477   5.859  12.377  0.5206 -2.1200  1.5623
18693TIP3    H277495   4.434   5.828  12.518  0.5574  0.2618  2.1341
18694TIP3   OH277496   0.558   2.778   0.280 -0.0728 -0.7913  0.0970
18694TIP3    H177497   0.532   2.694   0.318 -1.7737 -0.0504  0.6570
18694TIP3    H277498   0.513   2.781   0.196  0.1262 -0.5074  0.0008
18695TIP3   OH277499   6.395   1.050  12.981  1.1593 -0.7943 -0.9249
18695TIP3    H177500   6.398   1.145  12.968 -0.7984 -0.6019 -0.2549
18695TIP3    H277501   6.442   1.035  13.063  0.8007 -0.3148 -0.6288
18696TIP3   OH277502   4.559   2.580   2.387  0.1709  0.2513  0.1484
18696TIP3    H177503   4.487   2.641   2.403 -1.8080 -1.3656 -1.8999
18696TIP3    H277504   4.546   2.509   2.450 -1.1853 -0.8868 -1.3198
18697TIP3   OH277505   5.332   3.881   0.200  0.6052 -0.1978  0.4495
18697TIP3    H177506   5.288   3.868   0.116 -1.0455 -1.0392  1.3916
18697TIP3    H277507   5.324   3.975   0.217 -0.6810 -0.2946  0.4852
18698TIP3   OH277508   0.394   5.871  17.074  0.1656 -0.5385 -0.6239
18698TIP3    H177509   0.415   5.778  17.062  3.1187 -0.2748  1.3667
18698TIP3    H277510   0.473   5.917  17.045 -0.3585  1.1710  0.5338
18699TIP3   OH277511   4.479   1.208  16.754 -0.5074  0.0713 -0.4230
18699TIP3    H177512   4.425   1.251  16.688 -1.5611 -0.7582 -0.1278
18699TIP3    H277513   4.482   1.271  16.826  0.8835  1.0971 -1.3399
18700TIP3   OH277514   1.812   2.456  14.599  0.2661 -0.2108  0.5513
18700TIP3    H177515   1.797   2.490  14.688  1.0293 -1.0658  1.0295
18700TIP3    H277516   1.803   2.361  14.607 -3.4915 -0.1739 -1.1082
18701TIP3   OH277517   1.047   2.638   5.004 -0.3925 -0.3340  0.1587
18701TIP3    H177518   1.101   2.609   5.078  1.2889 -0.1913 -0.9575
18701TIP3    H277519   1.030   2.730   5.021 -1.2173 -0.6213  1.0347
18702TIP3   OH277520   1.696   4.540  11.308  0.6938  0.7087  0.7825
18702TIP3    H177521   1.786   4.570  11.295  0.5444  0.4831 -0.9488
18702TIP3    H277522   1.643   4.601  11.258  0.1649 -0.8845 -0.7006
18703TIP3   OH277523   2.886   2.857  17.329 -0.1972 -0.2989 -0.1387
18703TIP3    H177524   2.903   2.808  17.409 -1.8357  1.6388  1.5407
18703TIP3    H277525   2.920   2.802  17.259  1.0463 -2.2316  1.8442
18704TIP3   OH277526   1.171   0.752  17.083  0.2706  0.2299 -0.1129
18704TIP3    H177527   1.215   0.828  17.119  2.3856 -1.2857  0.7330
18704TIP3    H277528   1.168   0.689  17.155 -1.4775 -0.4930 -0.7467
18705TIP3   OH277529   2.221   5.860  10.920  0.6659 -0.2106 -0.1050
18705TIP3    H177530   2.134   5.898  10.929  0.8874  0.0070  1.2394
18705TIP3    H277531   2.280   5.924  10.960  1.3535 -0.7168 -0.2844
18706TIP3   OH277532   6.014   0.275   3.357 -0.4829  0.5273  0.2577
18706TIP3    H177533   5.979   0.326   3.284 -0.1557  0.6227  0.1656
18706TIP3    H277534   5.988   0.184   3.337  1.9167  0.1138 -1.4219
18707TIP3   OH277535   2.598   6.567  17.338 -0.8302 -0.1212  0.8385
18707TIP3    H177536   2.633   6.592  17.252 -2.5829 -0.8326 -0.1396
18707TIP3    H277537   2.653   6.495  17.367 -0.2746  0.0681  0.2842
18708TIP3   OH277538   1.274   4.257   3.203  0.6452  0.4476 -0.0593
18708TIP3    H177539   1.352   4.309   3.223  1.5498 -0.3451 -1.3335
18708TIP3    H277540   1.255   4.278   3.111 -1.0906  1.1698  0.4347
18709TIP3   OH277541   4.714   4.768  11.371  0.5630  0.2437  0.3009
18709TIP3    H177542   4.790   4.752  11.315  1.2209 -0.4863  1.3698
18709TIP3    H277543   4.642   4.726  11.325  1.4273 -1.9773  0.8287
18710TIP3   OH277544   1.470   1.692  15.803  0.2817 -0.4895 -0.0849
18710TIP3    H177545   1.481   1.662  15.713  1.6964 -2.6640  0.7116
18710TIP3    H277546   1.384   1.733  15.805 -0.8300 -2.4963 -1.9152
18711TIP3   OH277547   5.982   3.831   5.603  0.1102 -0.9193 -0.1783
18711TIP3    H177548   5.999   3.861   5.514  1.0301  1.7208  0.7983
18711TIP3    H277549   6.060   3.858   5.653 -0.7878 -1.4926  1.6299
18712TIP3   OH277550   5.484   4.919  16.178  0.2938 -0.0878  0.5167
18712TIP3    H177551   5.549   4.949  16.242  0.5773  0.4330  0.0045
18712TIP3    H277552   5.469   4.827  16.199 -1.9430  0.7971  3.2913
18713TIP3   OH277553   2.170   5.978   0.442 -0.2621 -0.0588 -0.6071
18713TIP3    H177554   2.149   6.069   0.464  0.7441 -0.0338  0.3302
18713TIP3    H277555   2.142   5.928   0.518  0.5688 -0.3399 -0.4805
18714TIP3   OH277556   1.449   3.886   2.639 -0.6174  0.5829  0.0712
18714TIP3    H177557   1.458   3.894   2.544  0.8057  2.7683  0.3220
18714TIP3    H277558   1.538   3.877   2.671 -1.1205 -0.6739  1.1952
18715TIP3   OH277559   4.640   0.494  14.291 -0.3648 -0.5288  0.3080
18715TIP3    H177560   4.549   0.523  14.292 -0.5470 -1.1001  0.8456
18715TIP3    H277561   4.642   0.417  14.348  0.4902 -0.4259  0.4385
18716TIP3   OH277562   3.226   1.258  13.783 -0.2714 -0.0979 -0.0536
18716TIP3    H177563   3.273   1.321  13.729 -1.0648  1.9827  1.5579
18716TIP3    H277564   3.287   1.184  13.791  1.9667  1.6735  0.3873
18717TIP3   OH277565   6.767   1.051  12.999 -0.4308 -0.8587  0.0743
18717TIP3    H177566   6.730   0.974  12.956 -1.7347  0.2401 -0.8514
18717TIP3    H277567   6.798   1.106  12.927 -2.0601  0.7264  0.5089
18718TIP3   OH277568   0.369   1.787  13.352  0.0498  0.2232 -0.1405
18718TIP3    H177569   0.283   1.816  13.381 -1.0478  2.2504 -4.4216
18718TIP3    H277570   0.430   1.826  13.415 -2.0360 -0.7174  2.6401
18719TIP3   OH277571   5.110   2.371  16.261 -0.0432  0.3647 -0.6373
18719TIP3    H177572   5.152   2.451  16.231  1.5476 -0.0698  0.3063
18719TIP3    H277573   5.179   2.305  16.261  0.1800  0.2986  3.7645
18720TIP3   OH277574   2.421   6.581  12.875 -0.3523  0.1225 -0.1517
18720TIP3    H177575   2.347   6.638  12.855  0.0287  0.5773 -0.2821
18720TIP3    H277576   2.494   6.620  12.827  0.1435  0.1183  0.5851
18721TIP3   OH277577   1.760   2.881   3.375 -0.8177 -0.1396 -0.5888
18721TIP3    H177578   1.830   2.903   3.436 -1.2359  1.1051 -0.5298
18721TIP3    H277579   1.729   2.965   3.342 -0.0808 -0.7538 -3.1560
18722TIP3   OH277580   6.257   0.443   1.112  0.3194 -0.1779 -0.0217
18722TIP3    H177581   6.302   0.507   1.166  0.2992 -0.0767 -0.1240
18722TIP3    H277582   6.299   0.450   1.026  1.6861 -1.7098  0.4803
18723TIP3   OH277583   1.790   3.833   4.365  0.0597 -0.1026 -0.2222
18723TIP3    H177584   1.744   3.917   4.364  1.0560  0.4673  0.4821
18723TIP3    H277585   1.727   3.772   4.401 -1.0268  0.1189 -1.6734
18724TIP3   OH277586   0.129   2.961   2.359  0.6933  0.0282 -0.1729
18724TIP3    H177587   0.087   2.938   2.442  0.3951 -0.5495 -0.4783
18724TIP3    H277588   0.190   3.031   2.382 -0.5713  1.0348  0.2484
18725TIP3   OH277589   4.793   0.624  13.016 -0.1081 -0.0429  0.4220
18725TIP3    H177590   4.846   0.695  13.054 -0.9360  1.0752 -0.4253
18725TIP3    H277591   4.735   0.597  13.088 -0.0631  0.4236  0.6384
18726TIP3   OH277592   0.064   1.928  10.906  0.1131  0.2057 -0.3834
18726TIP3    H177593   0.057   1.833  10.906 -1.1356  0.2784 -0.1486
18726TIP3    H277594   0.059   1.953  10.998  3.1937  0.3690 -0.1714
18727TIP3   OH277595   3.483   4.763  13.553 -0.1580 -0.3550 -0.4519
18727TIP3    H177596   3.482   4.668  13.565  1.8883 -0.2394  1.2723
18727TIP3    H277597   3.433   4.797  13.627 -2.6656 -0.0773 -2.1675
18728TIP3   OH277598   3.264   1.770   6.151  0.1950 -0.5261 -0.5522
18728TIP3    H177599   3.264   1.709   6.225  0.9707 -0.1173 -0.2043
18728TIP3    H277600   3.211   1.843   6.179  0.8532 -0.1674 -0.2141
18729TIP3   OH277601   0.740   1.594   0.428  0.5657  0.6808 -0.6652
18729TIP3    H177602   0.671   1.648   0.390 -1.9954 -2.6221 -1.2021
18729TIP3    H277603   0.711   1.578   0.518  1.1953  0.0882 -0.5609
18730TIP3   OH277604   1.739   2.460   5.425  0.5122  0.2549 -0.6387
18730TIP3    H177605   1.814   2.513   5.451 -0.8828  2.9778 -1.7493
18730TIP3    H277606   1.688   2.448   5.505  2.2590 -2.0904  0.2478
18731TIP3   OH277607   5.360   3.176   3.046 -0.2393 -0.3001 -0.1186
18731TIP3    H177608   5.448   3.136   3.049 -0.4366 -0.7193  0.3066
18731TIP3    H277609   5.370   3.259   3.093 -0.2461 -0.7171  0.6325
18732TIP3   OH277610   5.760   1.386  13.083  0.1726 -0.1425 -0.5139
18732TIP3    H177611   5.788   1.304  13.042 -1.2016 -0.2474 -1.2945
18732TIP3    H277612   5.686   1.362  13.138 -1.5526  0.8112 -2.2844
18733TIP3   OH277613   2.403   3.077  12.394  0.1888 -0.0264  0.0004
18733TIP3    H177614   2.458   3.019  12.447 -0.6149 -0.0126  0.8773
18733TIP3    H277615   2.408   3.042  12.305 -0.9032 -1.9445  0.6469
18734TIP3   OH277616   1.034   3.082   2.803 -0.4800  0.0127  0.1486
18734TIP3    H177617   1.006   3.130   2.881 -1.0294  0.3388 -0.2395
18734TIP3    H277618   1.009   3.139   2.730 -0.7362 -0.6747 -0.3059
18735TIP3   OH277619   3.808   3.414  11.580  0.3769  0.0773  0.3730
18735TIP3    H177620   3.767   3.409  11.493 -2.9225  2.2671  1.6252
18735TIP3    H277621   3.846   3.327  11.593 -1.2010 -1.1385 -2.2615
18736TIP3   OH277622   3.030   3.240  12.025 -0.2686 -0.3488  0.7209
18736TIP3    H177623   3.077   3.319  12.001  1.7435 -2.0393 -1.4425
18736TIP3    H277624   2.937   3.263  12.018  0.2623  1.7204 -0.0751
18737TIP3   OH277625   0.292   3.450   5.141 -0.0922  0.3373  0.4793
18737TIP3    H177626   0.312   3.360   5.165  0.4072 -0.1383 -1.5215
18737TIP3    H277627   0.222   3.442   5.076  1.4105  1.1866 -1.3386
18738TIP3   OH277628   2.179   1.674  12.161  0.0897  0.1750 -0.7578
18738TIP3    H177629   2.253   1.713  12.207  1.9184 -0.9092 -2.6059
18738TIP3    H277630   2.108   1.738  12.171  1.9146  2.3427 -0.7553
18739TIP3   OH277631   3.106   3.793  11.878 -0.9187 -0.1462  0.2453
18739TIP3    H177632   3.126   3.803  11.785 -1.1697  0.2348  0.2307
18739TIP3    H277633   3.056   3.871  11.900 -0.5087 -0.0357  0.8018
18740TIP3   OH277634   6.269   2.009   4.671  0.1573 -0.0937  0.3409
18740TIP3    H177635   6.210   2.072   4.712  0.5327 -0.2084  1.0879
18740TIP3    H277636   6.340   2.063   4.636  0.0462 -0.0285  0.2159
18741TIP3   OH277637   1.275   2.084   0.851  0.1357  0.2209 -0.4076
18741TIP3    H177638   1.278   1.991   0.830 -0.4972  0.3964 -1.3289
18741TIP3    H277639   1.313   2.128   0.775  0.0441  0.7429 -0.1633
18742TIP3   OH277640   4.151   5.386   5.464 -0.0721 -0.3727  0.4739
18742TIP3    H177641   4.124   5.447   5.533 -0.0727  1.1461 -0.8226
18742TIP3    H277642   4.247   5.391   5.465 -0.0292 -1.0805  0.9689
18743TIP3   OH277643   3.021   5.452   2.144  0.7909  0.0097  0.4847
18743TIP3    H177644   3.047   5.364   2.173 -1.0319 -0.2107  1.6552
18743TIP3    H277645   2.928   5.444   2.126  0.8995  1.3805 -0.8181
18744TIP3   OH277646   0.423   4.894   1.198  0.3000  0.6485  0.2787
18744TIP3    H177647   0.417   4.948   1.119  3.4345 -0.1398 -0.6418
18744TIP3    H277648   0.392   4.808   1.170 -0.1270  0.7698  0.3753
18745TIP3   OH277649   3.468   2.228  15.894  0.3182 -0.6384 -0.4278
18745TIP3    H177650   3.505   2.281  15.964  1.3348 -0.9821 -0.6801
18745TIP3    H277651   3.380   2.207  15.923  0.1528  0.5830 -0.0003
18746TIP3   OH277652   0.524   1.607  13.829 -0.6222 -0.2859 -0.0281
18746TIP3    H177653   0.491   1.597  13.918 -1.3211 -1.0909 -0.3687
18746TIP3    H277654   0.617   1.585  13.836  0.0795  2.6115  1.0520
18747TIP3   OH277655   4.923   6.038  15.033  0.2146 -0.4700 -0.3916
18747TIP3    H177656   4.865   6.112  15.015  0.6981  0.3512  1.2244
18747TIP3    H277657   4.920   6.027  15.128  0.7831 -2.0165 -0.5264
18748TIP3   OH277658   4.834   4.007  16.092  0.3279 -0.0297  0.0725
18748TIP3    H177659   4.873   4.094  16.089 -0.5298  0.3399 -0.8415
18748TIP3    H277660   4.801   3.992  16.004 -2.5555  0.1425  1.0266
18749TIP3   OH277661   0.963   3.930  14.103 -0.8651 -0.3347 -0.3788
18749TIP3    H177662   1.049   3.918  14.144 -0.0211  1.1328 -1.6250
18749TIP3    H277663   0.944   4.023  14.115 -1.3576 -0.2284 -1.8444
18750TIP3   OH277664   4.087   5.793   0.791 -0.3232 -0.0713  0.0548
18750TIP3    H177665   4.001   5.823   0.822 -1.2542 -1.5522 -0.9821
18750TIP3    H277666   4.120   5.866   0.739 -2.4449 -0.5957 -2.2457
18751TIP3   OH277667   4.594   0.918   3.284 -0.0536  0.0042  0.5808
18751TIP3    H177668   4.556   0.989   3.233  1.1129 -0.3388 -0.8244
18751TIP3    H277669   4.592   0.951   3.374  1.2705  2.2563 -0.1134
18752TIP3   OH277670   0.881   4.458   3.163  0.2615  0.2836 -0.5362
18752TIP3    H177671   0.920   4.384   3.211  1.2295  1.4662  0.5691
18752TIP3    H277672   0.904   4.535   3.215 -2.4442  1.2022 -0.5547
18753TIP3   OH277673   2.204   0.523   3.050  0.7940 -0.0170 -0.2032
18753TIP3    H177674   2.209   0.596   2.988  0.2555  0.8577  0.7423
18753TIP3    H277675   2.198   0.445   2.995 -2.5503  0.8786 -1.3450
18754TIP3   OH277676   1.919   2.346   3.284 -0.0650 -0.2276  0.5738
18754TIP3    H177677   1.935   2.423   3.230  0.6259  0.2876  1.4715
18754TIP3    H277678   1.926   2.272   3.224 -1.3316  0.4157 -0.4291
18755TIP3   OH277679   6.130   3.762  13.633  0.1397 -0.2540 -0.0782
18755TIP3    H177680   6.117   3.830  13.567 -1.9644 -1.7313 -1.2927
18755TIP3    H277681   6.128   3.809  13.716 -1.7777  1.1464 -0.8495
18756TIP3   OH277682   0.083   2.373   6.623  0.3105 -0.0315 -0.5196
18756TIP3    H177683   0.074   2.468   6.628  0.9615  0.2341 -3.0365
18756TIP3    H277684   0.168   2.359   6.582  0.1094 -1.7167 -0.4519
18757TIP3   OH277685   6.198   4.174   4.166 -0.2667 -0.3662 -0.1275
18757TIP3    H177686   6.282   4.147   4.128  0.5346  0.7945  0.7755
18757TIP3    H277687   6.134   4.116   4.124  0.7812 -0.2991 -1.9514
18758TIP3   OH277688   5.591   6.675   2.503 -0.6116  0.3952 -1.2441
18758TIP3    H177689   5.612   6.726   2.424  0.4935  0.4107 -0.9520
18758TIP3    H277690   5.572   6.742   2.569  0.9072  0.4717 -0.8419
18759TIP3   OH277691   3.215   5.131  17.323  0.7215  0.0687  0.0265
18759TIP3    H177692   3.173   5.176  17.396 -0.2856  0.0235 -0.5016
18759TIP3    H277693   3.274   5.069  17.364 -0.7280 -0.8294  0.8574
18760TIP3   OH277694   6.415   2.001   0.474  0.6497 -0.0156 -0.0260
18760TIP3    H177695   6.423   1.956   0.558  0.7639 -0.8126 -0.4477
18760TIP3    H277696   6.423   2.093   0.494  1.0722 -0.2292  0.7873
18761TIP3   OH277697   6.211   2.173  16.913  0.7867  0.7443 -0.2201
18761TIP3    H177698   6.271   2.105  16.881  1.1744  0.9973 -0.0361
18761TIP3    H277699   6.171   2.135  16.991  1.6957  1.0741  0.4191
18762TIP3   OH277700   2.813   1.317  15.415 -0.4884 -0.6506  0.1196
18762TIP3    H177701   2.751   1.303  15.487  0.3442  0.0368  1.0069
18762TIP3    H277702   2.758   1.339  15.340 -1.3917 -1.5353  0.5030
18763TIP3   OH277703   1.251   2.407  15.876  0.1414  0.6017  0.4160
18763TIP3    H177704   1.175   2.418  15.819  1.6115 -0.1755 -1.8399
18763TIP3    H277705   1.270   2.495  15.908  0.0050  1.3184 -1.3653
18764TIP3   OH277706   0.329   4.782  11.079  0.2380 -0.0914 -0.1125
18764TIP3    H177707   0.270   4.800  11.005 -0.1360 -0.6898  0.0310
18764TIP3    H277708   0.402   4.843  11.067  0.0339  0.0272 -0.8065
18765TIP3   OH277709   2.591   3.395  16.912  0.0379  0.0862  0.2735
18765TIP3    H177710   2.645   3.319  16.931  0.2245  0.2889  0.5426
18765TIP3    H277711   2.543   3.371  16.832  0.3521 -0.1779  0.1648
18766TIP3   OH277712   0.395   5.900   3.514 -0.6282 -0.1481 -0.7155
18766TIP3    H177713   0.419   5.817   3.556 -2.0053 -1.2354 -1.9713
18766TIP3    H277714   0.478   5.933   3.478 -0.4027 -2.3858 -2.5419
18767TIP3   OH277715   1.363   6.104   1.689  0.2054  0.5367  0.3120
18767TIP3    H177716   1.373   6.138   1.600 -0.1360  3.6590  1.3759
18767TIP3    H277717   1.420   6.027   1.691  2.0754  1.7326 -1.9380
18768TIP3   OH277718   6.019   4.338   1.399  0.4579  0.0956 -0.5940
18768TIP3    H177719   6.098   4.389   1.378 -0.0725  1.0276 -0.3754
18768TIP3    H277720   5.951   4.376   1.344 -0.1028  0.0932  0.0805
18769TIP3   OH277721   1.457   4.359  13.415 -0.3561  0.3573  0.1668
18769TIP3    H177722   1.468   4.269  13.386  1.9353  0.5423  0.3171
18769TIP3    H277723   1.373   4.386  13.378  0.0902 -1.0149 -2.0386
18770TIP3   OH277724   3.393   6.472  15.690 -0.0837 -0.6038 -0.5138
18770TIP3    H177725   3.472   6.425  15.663 -0.0237 -0.7831 -0.0412
18770TIP3    H277726   3.425   6.549  15.736  0.0309 -3.0579  4.1745
18771TIP3   OH277727   4.868   4.840   6.269 -0.3606 -0.5700 -0.0583
18771TIP3    H177728   4.927   4.768   6.246  2.5083  2.3232 -2.7540
18771TIP3    H277729   4.907   4.878   6.348  0.0300 -0.0492 -0.4999
18772TIP3   OH277730   0.659   5.926   3.522  0.3564  0.7062 -0.5542
18772TIP3    H177731   0.641   5.913   3.615 -0.7526 -0.1018 -0.8637
18772TIP3    H277732   0.751   5.901   3.513  0.2331 -0.0646  0.1727
18773TIP3   OH277733   0.472   3.929  15.287  0.1890 -0.0253  0.3350
18773TIP3    H177734   0.565   3.952  15.296  0.7027 -1.0611 -1.6674
18773TIP3    H277735   0.464   3.846  15.334  0.5359 -0.4160 -0.2673
18774TIP3   OH277736   0.676   6.687   4.944  0.3897 -0.4757  0.1607
18774TIP3    H177737   0.693   6.763   5.001  0.2947  1.7277 -2.5407
18774TIP3    H277738   0.763   6.657   4.918  0.4250  0.2383 -0.5927
18775TIP3   OH277739   1.527   4.439  11.895  0.2978  0.6989  0.3532
18775TIP3    H177740   1.612   4.418  11.935  0.8863  4.9852  1.9391
18775TIP3    H277741   1.547   4.512  11.836 -1.9704  0.1383 -1.2114
18776TIP3   OH277742   5.759   1.898  14.952 -0.4898  0.1357  0.1664
18776TIP3    H177743   5.716   1.972  14.909 -1.0201 -0.1315  0.2316
18776TIP3    H277744   5.696   1.827  14.946 -0.3299 -0.0703  0.8743
18777TIP3   OH277745   1.822   2.656  14.800  0.4506  0.4724 -0.1934
18777TIP3    H177746   1.897   2.647  14.859  0.5582  0.5712 -0.3115
18777TIP3    H277747   1.857   2.706  14.726  0.2310  0.6407 -0.1848
18778TIP3   OH277748   0.529   0.286  12.058  0.3914 -0.4746 -0.8152
18778TIP3    H177749   0.481   0.368  12.066  0.7275 -0.3748  0.2508
18778TIP3    H277750   0.461   0.218  12.066  0.3619 -0.3264  0.2684
18779TIP3   OH277751   0.690   4.197  17.309 -0.1798 -1.1339  0.1886
18779TIP3    H177752   0.765   4.161  17.261  0.7467 -0.6141  1.1908
18779TIP3    H277753   0.649   4.259  17.248 -0.2415 -1.9646 -0.6284
18780TIP3   OH277754   5.021   1.184  11.155 -0.7004  0.9344  0.4048
18780TIP3    H177755   4.936   1.162  11.193 -0.5820 -0.9525 -0.3369
18780TIP3    H277756   5.022   1.280  11.154 -1.5244  1.0765  3.2646
18781TIP3   OH277757   2.372   5.058   5.283 -0.6511 -1.0615  0.3329
18781TIP3    H177758   2.410   4.972   5.297 -1.1534 -1.0529  1.9755
18781TIP3    H277759   2.338   5.084   5.369  2.5635  2.2991  0.8502
18782TIP3   OH277760   5.062   0.635   3.077 -0.4466 -0.3652 -0.7367
18782TIP3    H177761   5.029   0.703   3.019 -2.5869 -2.4422 -2.1887
18782TIP3    H277762   5.049   0.669   3.165 -0.8639  1.3218 -1.4188
18783TIP3   OH277763   2.102   4.224   4.140 -0.3904 -0.1623 -0.2116
18783TIP3    H177764   2.188   4.217   4.182  0.3344  1.7330 -1.2560
18783TIP3    H277765   2.084   4.135   4.108  1.1935 -0.5942 -0.0072
18784TIP3   OH277766   2.353   4.791   2.732  0.0653  0.1114  0.7390
18784TIP3    H177767   2.285   4.811   2.669  3.1266  2.2765 -2.2418
18784TIP3    H277768   2.379   4.701   2.713 -1.0857 -0.3218  1.1245
18785TIP3   OH277769   0.016   0.480   5.199 -0.2781  0.2397 -0.2082
18785TIP3    H177770  -0.078   0.478   5.184 -0.1653 -3.2553 -1.5061
18785TIP3    H277771   0.053   0.442   5.119  2.1989  0.7765  0.6005
18786TIP3   OH277772   3.800   4.763   5.114  0.1217 -0.6959 -0.4996
18786TIP3    H177773   3.820   4.673   5.139 -0.2467 -0.8052 -0.6006
18786TIP3    H277774   3.738   4.793   5.180  2.2840  0.3982  1.1777
18787TIP3   OH277775   0.115   5.493   2.461 -0.3011 -0.1418  0.1028
18787TIP3    H177776   0.101   5.587   2.449 -0.1520  0.0220  1.0964
18787TIP3    H277777   0.208   5.485   2.479 -0.3653 -0.4516  0.3040
18788TIP3   OH277778   5.131   4.855  13.950  0.0233  0.1939  0.2630
18788TIP3    H177779   5.111   4.924  13.886 -0.2457 -0.2286 -0.1119
18788TIP3    H277780   5.069   4.869  14.021 -1.6559 -1.0790 -0.8643
18789TIP3   OH277781   5.332   6.616  11.691 -0.6506 -0.6006 -0.5044
18789TIP3    H177782   5.297   6.530  11.667 -0.4260 -0.6160 -0.7757
18789TIP3    H277783   5.268   6.652  11.752  1.3366 -2.8527  3.2780
18790TIP3   OH277784   4.857   4.081   3.587 -0.0232  0.2688 -0.3585
18790TIP3    H177785   4.794   4.015   3.617 -0.2854  1.0614  0.9459
18790TIP3    H277786   4.907   4.038   3.518 -1.3871 -0.6857 -0.7848
18791TIP3   OH277787   0.821   2.829   4.805 -0.4370 -0.6699 -0.4186
18791TIP3    H177788   0.886   2.837   4.875 -0.4129 -1.1287 -0.3862
18791TIP3    H277789   0.865   2.777   4.738  0.0592  0.9523 -1.3977
18792TIP3   OH277790   6.139   1.952  14.707  0.1533 -0.4407 -0.5562
18792TIP3    H177791   6.102   1.916  14.626 -0.6055 -2.6356  0.6836
18792TIP3    H277792   6.234   1.946  14.695  0.0428 -1.3132 -1.0494
18793TIP3   OH277793   3.272   0.644   1.500  0.0558  0.0783  0.0446
18793TIP3    H177794   3.321   0.725   1.485 -0.0712 -0.0157 -0.8873
18793TIP3    H277795   3.207   0.642   1.430 -0.1526 -0.6730  0.2566
18794TIP3   OH277796   0.647   4.142  10.851  0.0339  0.4388  0.2249
18794TIP3    H177797   0.556   4.170  10.863  0.5611  2.2050  0.4558
18794TIP3    H277798   0.648   4.102  10.764 -0.9512  0.4349  0.1977
18795TIP3   OH277799   3.610   0.491  12.413  0.0408 -0.1521 -0.0082
18795TIP3    H177800   3.625   0.431  12.486  2.3799 -0.8487 -0.9777
18795TIP3    H277801   3.589   0.434  12.339  2.0329  0.1519 -0.8748
18796TIP3   OH277802   4.899   6.041  15.315  0.3730  0.2535  0.2080
18796TIP3    H177803   4.870   6.132  15.325 -0.7335 -0.1688  1.0554
18796TIP3    H277804   4.950   6.023  15.394  0.7148  0.1791 -0.0289
18797TIP3   OH277805   2.010   5.336  15.934 -0.3950 -0.3584 -0.5218
18797TIP3    H177806   2.021   5.363  16.025  0.3495 -1.8546 -0.1410
18797TIP3    H277807   1.969   5.411  15.892 -0.5267  0.4556  0.9870
18798TIP3   OH277808   4.575   3.332  11.263 -0.0074 -0.1908  0.4008
18798TIP3    H177809   4.504   3.288  11.310 -0.0235 -0.2406  0.3301
18798TIP3    H277810   4.636   3.262  11.241  0.2288 -0.1006  0.7552
18799TIP3   OH277811   3.288   0.945   2.863 -0.6827  0.3015 -0.2905
18799TIP3    H177812   3.210   1.002   2.869 -0.0416  1.2968 -0.9870
18799TIP3    H277813   3.350   0.996   2.812  0.1005 -0.8672 -0.5359
18800TIP3   OH277814   4.591   0.759  15.772 -0.5292 -0.2668 -0.4569
18800TIP3    H177815   4.669   0.712  15.801  0.4059  1.0488 -0.7913
18800TIP3    H277816   4.575   0.726  15.683 -0.4506 -0.6470 -0.3329
18801TIP3   OH277817   1.297   4.197   1.443 -0.1033  0.6326 -0.2303
18801TIP3    H177818   1.334   4.142   1.512 -1.2255 -1.1148 -0.9461
18801TIP3    H277819   1.204   4.178   1.445 -0.7225  3.3821  0.1845
18802TIP3   OH277820   1.188   2.986   3.098 -0.0843 -0.6003  0.1986
18802TIP3    H177821   1.164   3.078   3.110 -0.6083 -0.7664  0.4594
18802TIP3    H277822   1.280   2.982   3.124  0.5670  0.2477 -1.7770
18803TIP3   OH277823   2.445   6.560   3.169 -0.5374  0.0886 -0.0478
18803TIP3    H177824   2.358   6.600   3.171 -1.8824 -2.5688 -0.8620
18803TIP3    H277825   2.485   6.593   3.088 -1.3350  0.3025 -0.3651
18804TIP3   OH277826   3.306   1.222  15.139  0.7458  0.0198  0.0798
18804TIP3    H177827   3.244   1.203  15.209 -0.1059  1.1300 -0.3297
18804TIP3    H277828   3.339   1.310  15.160 -0.0050  0.6351 -1.2325
18805TIP3   OH277829   3.106   2.088   4.472  0.0006 -0.4389  0.0931
18805TIP3    H177830   3.082   2.050   4.388  0.5971  0.2229 -0.3927
18805TIP3    H277831   3.025   2.087   4.523 -1.1981  1.9366 -1.5654
18806TIP3   OH277832   4.516   0.523  10.716 -1.1488  0.5145 -0.3181
18806TIP3    H177833   4.512   0.590  10.647  2.4012  0.9030 -0.3591
18806TIP3    H277834   4.599   0.540  10.760 -0.8833 -2.8611  0.7514
18807TIP3   OH277835   0.696   4.125   3.826 -0.4395  0.1723 -0.5589
18807TIP3    H177836   0.756   4.181   3.777 -0.6748  0.3498 -0.6448
18807TIP3    H277837   0.642   4.084   3.759 -2.2098  2.0498 -0.3823
18808TIP3   OH277838   1.170   2.507  14.348  0.0434  0.1369  0.1413
18808TIP3    H177839   1.197   2.589  14.306 -0.8099  1.1261  1.4454
18808TIP3    H277840   1.251   2.466  14.377  0.4951  0.3840 -0.7470
18809TIP3   OH277841   1.908   2.697   4.873  0.9334  0.1389 -0.0761
18809TIP3    H177842   1.942   2.642   4.803 -0.1473 -0.0300 -0.4901
18809TIP3    H277843   1.873   2.774   4.828 -1.1678 -0.6670  0.0939
18810TIP3   OH277844   0.890   4.417  12.232  0.5563 -0.0734  0.3255
18810TIP3    H177845   0.887   4.466  12.314 -4.0083  0.3679  0.1286
18810TIP3    H277846   0.863   4.329  12.255 -0.7305  0.0408 -0.6021
18811TIP3   OH277847   5.949   0.412   0.086  0.5377 -0.9637 -0.6165
18811TIP3    H177848   5.989   0.499   0.082 -0.6023 -0.4487 -1.3730
18811TIP3    H277849   6.014   0.358   0.132  0.3973  0.7503  1.7656
18812TIP3   OH277850   5.083   0.089   4.316 -0.0176 -0.0034  0.2288
18812TIP3    H177851   5.148   0.151   4.285  0.4573 -1.0003 -0.8568
18812TIP3    H277852   5.023   0.078   4.243 -2.2949  1.9641  1.6823
18813TIP3   OH277853   4.381   0.625  15.405  1.0314 -0.0873  0.0606
18813TIP3    H177854   4.338   0.678  15.337  2.6162  0.7710 -0.3159
18813TIP3    H277855   4.435   0.687  15.453 -0.2831 -0.6220  2.3642
18814TIP3   OH277856   2.495   6.016  12.401  0.0156  0.1615  0.3622
18814TIP3    H177857   2.408   6.053  12.389 -0.3394 -0.1271  1.9067
18814TIP3    H277858   2.547   6.055  12.330 -1.7593 -1.1208 -1.7790
18815TIP3   OH277859   2.688   4.490  15.215  0.2941  0.4714 -0.1075
18815TIP3    H177860   2.712   4.541  15.138 -0.7860  2.3655  0.7399
18815TIP3    H277861   2.730   4.534  15.288 -0.3250 -0.1045  0.6218
18816TIP3   OH277862   1.080   1.270  14.900  0.6117 -0.5937  0.1949
18816TIP3    H177863   1.105   1.315  14.819 -2.0011 -1.0261 -0.9672
18816TIP3    H277864   1.083   1.177  14.877  0.6361 -0.7638  0.8672
18817TIP3   OH277865   5.233   6.314   5.647 -0.4278  0.1555  0.4092
18817TIP3    H177866   5.206   6.246   5.708  0.7827 -0.4725  0.2775
18817TIP3    H277867   5.212   6.278   5.560  1.3032 -0.6108  0.2668
18818TIP3   OH277868   2.487   2.419  14.278  0.1720 -0.3720  0.0096
18818TIP3    H177869   2.565   2.460  14.241  0.0210 -0.5807 -0.5453
18818TIP3    H277870   2.426   2.491  14.294  1.1509  0.0564  2.2122
18819TIP3   OH277871   6.094   2.152   4.393  0.1437  0.0153  0.3357
18819TIP3    H177872   6.157   2.178   4.461  0.6720 -2.1364  0.7534
18819TIP3    H277873   6.008   2.166   4.433  0.3702  1.5475  0.3292
18820TIP3   OH277874   5.239   5.379   3.396 -0.2342  0.4309 -0.0663
18820TIP3    H177875   5.179   5.451   3.374 -0.7889  0.2405  0.7804
18820TIP3    H277876   5.184   5.300   3.393 -0.6727  0.4912  3.0664
18821TIP3   OH277877   6.119   3.458   3.892  0.0512  0.2327 -0.4925
18821TIP3    H177878   6.204   3.416   3.906 -0.4317 -0.8269 -0.6303
18821TIP3    H277879   6.063   3.423   3.962 -1.1986 -1.7631 -2.3718
18822TIP3   OH277880   3.672   5.486  14.010 -0.1382  0.5098  0.3076
18822TIP3    H177881   3.686   5.447  14.096  2.6898  0.3157 -0.1468
18822TIP3    H277882   3.641   5.414  13.956  3.0431 -0.8075 -0.0024
18823TIP3   OH277883   2.209   6.485  14.030  0.3830 -0.0546 -0.2729
18823TIP3    H177884   2.141   6.540  14.068  0.8181  0.8000 -0.7075
18823TIP3    H277885   2.287   6.540  14.027  1.0559 -0.9545  0.0340
18824TIP3   OH277886   4.246   2.259  16.712  0.2430  0.2670  0.2871
18824TIP3    H177887   4.187   2.198  16.668  0.0765 -0.7255  1.8253
18824TIP3    H277888   4.219   2.345  16.679  1.0055 -0.4772 -2.5117
18825TIP3   OH277889   2.608   4.991  13.379  0.0275  0.0285 -0.9257
18825TIP3    H177890   2.604   4.964  13.287 -2.0804 -1.7430 -0.3928
18825TIP3    H277891   2.544   4.935  13.423  1.2340  0.5823  1.7060
18826TIP3   OH277892   1.678   0.418   5.319 -0.0498 -0.0340 -0.3328
18826TIP3    H177893   1.641   0.368   5.391  0.9266 -0.7289 -0.2945
18826TIP3    H277894   1.705   0.501   5.358 -1.6550  0.5418 -0.3917
18827TIP3   OH277895   0.816   3.342   1.042  0.1920 -0.4699  0.3511
18827TIP3    H177896   0.739   3.397   1.028 -0.1231 -0.6561  1.3199
18827TIP3    H277897   0.868   3.354   0.962 -0.2919  0.5330  0.1662
18828TIP3   OH277898   6.613   3.852  16.482 -0.7091  0.2794  0.1170
18828TIP3    H177899   6.686   3.816  16.531 -1.0165 -2.1382 -1.0242
18828TIP3    H277900   6.644   3.936  16.449  1.1415 -0.1955  0.5673
18829TIP3   OH277901   2.302   0.927   5.090  0.4222  0.0282 -0.3073
18829TIP3    H177902   2.312   0.980   5.011  0.3089 -1.1631 -1.1566
18829TIP3    H277903   2.387   0.882   5.099 -0.1108 -1.1246 -0.7553
18830TIP3   OH277904   2.194   1.337   0.519  0.5308  0.2326 -0.6461
18830TIP3    H177905   2.208   1.243   0.518 -0.7700 -0.0057  0.6311
18830TIP3    H277906   2.112   1.350   0.470  0.4073  0.6261 -0.3461
18831TIP3   OH277907   1.301   4.162   0.922  0.1260 -0.1591  0.1832
18831TIP3    H177908   1.353   4.109   0.983  0.8425 -0.3037 -0.5379
18831TIP3    H277909   1.265   4.099   0.860  0.2402  0.1050 -0.1495
18832TIP3   OH277910   0.188   1.342   3.992 -0.8888  0.7321 -0.3841
18832TIP3    H177911   0.265   1.324   4.046 -1.0626  1.1952  0.0265
18832TIP3    H277912   0.160   1.256   3.961 -0.1629  0.5693 -0.5992
18833TIP3   OH277913   0.295   1.558   1.895  0.7576  0.7248  0.6224
18833TIP3    H177914   0.302   1.605   1.978  0.6651  1.1877  0.3728
18833TIP3    H277915   0.301   1.466   1.919 -3.2480  0.5317  1.6456
18834TIP3   OH277916   3.585   0.762   4.977  0.2784 -0.3299  0.2388
18834TIP3    H177917   3.611   0.852   4.957  1.6618 -1.0175 -1.3413
18834TIP3    H277918   3.658   0.709   4.945 -0.3438 -2.0055  1.4566
18835TIP3   OH277919   1.044   1.647   2.734 -0.4074  0.4318  0.0600
18835TIP3    H177920   1.121   1.702   2.743 -0.8046  1.1518 -0.8131
18835TIP3    H277921   1.055   1.579   2.801  0.6401  0.9117  0.3924
18836TIP3   OH277922   2.975   2.962  11.247  0.0411 -0.1907  0.1727
18836TIP3    H177923   3.040   3.006  11.193 -1.3565 -0.1504 -1.5496
18836TIP3    H277924   2.914   2.922  11.185  0.0943 -2.8677  1.6640
18837TIP3   OH277925   1.725   3.095   2.474 -0.1944  0.3908  0.5260
18837TIP3    H177926   1.819   3.109   2.476 -0.0438 -0.4082 -0.2697
18837TIP3    H277927   1.710   3.025   2.538  0.0237 -0.7980 -0.6728
18838TIP3   OH277928   1.870   0.627   3.322 -0.1786 -0.8265  0.5405
18838TIP3    H177929   1.907   0.635   3.410  0.8892  0.0845  0.0350
18838TIP3    H277930   1.830   0.712   3.306 -0.8287 -1.1674  0.3354
18839TIP3   OH277931   1.877   3.996  14.316  0.0813 -0.8629 -0.4390
18839TIP3    H177932   1.855   4.077  14.270  1.3003  0.4653  1.2106
18839TIP3    H277933   1.794   3.967  14.354 -0.3509 -0.3591 -0.9704
18840TIP3   OH277934   0.387   1.924  14.002  0.3405  0.1618  0.1438
18840TIP3    H177935   0.471   1.884  14.027 -0.5835 -0.6190  2.2513
18840TIP3    H277936   0.322   1.856  14.021 -0.9549  1.4933  0.6202
18841TIP3   OH277937   3.053   0.516  14.135 -0.2291  0.1996  0.3615
18841TIP3    H177938   3.073   0.516  14.229 -2.4539  0.3279  0.8950
18841TIP3    H277939   3.040   0.608  14.113  1.7417  0.3219 -0.4682
18842TIP3   OH277940   1.876   6.037  15.093  0.0056 -0.3893  0.1048
18842TIP3    H177941   1.887   6.097  15.167 -0.5982 -0.1258 -0.0191
18842TIP3    H277942   1.963   5.999  15.082  0.7982  1.4939 -0.7040
18843TIP3   OH277943   6.495   5.396  11.056 -0.1381  0.2598 -0.3233
18843TIP3    H177944   6.403   5.380  11.074  0.2438 -0.6748  0.9111
18843TIP3    H277945   6.506   5.490  11.070 -0.6086  0.1370  1.0502
18844TIP3   OH277946   1.736   6.704   2.528  0.2999 -0.0866  0.4013
18844TIP3    H177947   1.766   6.794   2.544  0.4106  0.2013 -1.2505
18844TIP3    H277948   1.809   6.649   2.555  2.8078  0.6139 -4.0315
18845TIP3   OH277949   1.685   1.453  13.879 -0.6384 -0.0579  0.7127
18845TIP3    H177950   1.743   1.402  13.935 -0.3903 -1.1302 -0.4738
18845TIP3    H277951   1.743   1.498  13.818 -0.7092  2.9880  2.6703
18846TIP3   OH277952   3.745   6.362  15.909 -0.5222 -0.0148 -0.1911
18846TIP3    H177953   3.740   6.283  15.855 -1.8350 -0.1228  0.0668
18846TIP3    H277954   3.674   6.353  15.972  1.2893 -0.1636  1.9656
18847TIP3   OH277955   6.252   5.331   5.939 -0.1921 -0.0755  0.1326
18847TIP3    H177956   6.251   5.427   5.945 -0.4751 -0.1050  0.6141
18847TIP3    H277957   6.325   5.305   5.996  1.8518 -0.0136 -2.2911
18848TIP3   OH277958   4.786   4.993   4.924 -0.0478 -0.4822  0.2225
18848TIP3    H177959   4.860   5.029   4.971  0.3240 -0.2912 -0.4919
18848TIP3    H277960   4.715   5.056   4.937 -0.3836 -1.1238  1.6840
18849TIP3   OH277961   6.167   0.226  14.478  0.1738 -0.0564 -0.1229
18849TIP3    H177962   6.247   0.187  14.443 -0.5102 -1.1595 -0.5259
18849TIP3    H277963   6.178   0.320  14.464  0.9151 -0.2847 -1.2261
18850TIP3   OH277964   2.684   1.828  11.418 -0.7508  0.1781 -0.2702
18850TIP3    H177965   2.699   1.915  11.381 -0.9574  1.1400  1.7724
18850TIP3    H277966   2.598   1.803  11.385 -0.3338  0.3516 -1.5515
18851TIP3   OH277967   3.735   4.739  16.050  0.3496  0.2760 -0.1333
18851TIP3    H177968   3.746   4.731  15.955 -0.4425 -0.2414 -0.1978
18851TIP3    H277969   3.650   4.782  16.060 -0.4435 -1.3330  0.3433
18852TIP3   OH277970   4.641   1.640   5.428  0.3275  0.8357 -1.1059
18852TIP3    H177971   4.555   1.651   5.468  0.2116  1.3281 -1.4806
18852TIP3    H277972   4.703   1.656   5.499  0.1133 -0.2435 -0.6535
18853TIP3   OH277973   6.696   1.805   1.173 -0.5997  0.2203 -0.0642
18853TIP3    H177974   6.727   1.784   1.262 -0.3741 -1.2915 -0.4757
18853TIP3    H277975   6.603   1.825   1.184 -0.2499  1.5989  0.7135
18854TIP3   OH277976   1.897   3.600   2.003 -0.1929  0.8920 -0.5410
18854TIP3    H177977   1.958   3.540   1.960 -0.9284  1.3556 -2.3399
18854TIP3    H277978   1.952   3.673   2.032  0.4662  0.1208  0.2103
18855TIP3   OH277979   1.661   0.232  11.047 -0.1836  0.1504  0.1109
18855TIP3    H177980   1.691   0.320  11.022 -1.2420  0.5834  0.3088
18855TIP3    H277981   1.566   0.241  11.056 -0.2334 -0.8774  0.7330
18856TIP3   OH277982   3.702   3.899  13.113 -0.2974 -0.6564  0.0790
18856TIP3    H177983   3.709   3.805  13.133  0.4417 -0.3265  1.5710
18856TIP3    H277984   3.727   3.906  13.021 -0.7322 -1.9593 -0.1633
18857TIP3   OH277985   2.964   1.340  16.098 -0.8829 -0.3145  0.3390
18857TIP3    H177986   2.904   1.340  16.023 -0.6700 -0.1183  0.1682
18857TIP3    H277987   3.049   1.365  16.061 -1.0495  1.1014  0.8814
18858TIP3   OH277988   4.685   1.969  13.591 -0.1038 -0.0830 -0.3564
18858TIP3    H177989   4.637   2.010  13.663  1.3343  1.8714 -0.4114
18858TIP3    H277990   4.763   1.932  13.632  0.1753  0.0773 -0.7330
18859TIP3   OH277991   1.798   4.769  13.737 -0.4874  0.1068 -0.1397
18859TIP3    H177992   1.854   4.744  13.810 -0.2206  2.1643  0.4046
18859TIP3    H277993   1.709   4.752  13.768 -0.2815 -2.4982 -0.7508
18860TIP3   OH277994   5.873   0.500  15.853 -0.4027  0.2465 -0.9125
18860TIP3    H177995   5.851   0.462  15.938  0.2125  0.4900 -0.6366
18860TIP3    H277996   5.951   0.453  15.824  0.1997  1.0777 -0.6987
18861TIP3   OH277997   2.036   6.006   3.750 -0.0528 -0.2133 -0.5037
18861TIP3    H177998   2.042   5.916   3.718  1.3109 -0.1531 -0.5050
18861TIP3    H277999   2.072   6.060   3.679 -0.1492  0.2529 -0.2063
18862TIP3   OH278000   3.081   3.956   1.819 -0.2289 -0.1390 -0.8433
18862TIP3    H178001   3.124   3.994   1.896 -0.9332  1.5423 -1.2371
18862TIP3    H278002   3.099   4.017   1.748  0.0143 -1.4237 -1.9439
18863TIP3   OH278003   6.499   0.622   2.948  0.1907  0.0674  0.3415
18863TIP3    H178004   6.537   0.616   2.860 -1.8563  2.0220 -0.7684
18863TIP3    H278005   6.414   0.580   2.939 -0.8624  2.0192  0.8325
18864TIP3   OH278006   4.743   2.373  17.125 -0.5433 -0.2485 -0.5398
18864TIP3    H178007   4.667   2.419  17.089  1.0373  0.0435 -3.9013
18864TIP3    H278008   4.798   2.443  17.160  1.0766  0.5040 -4.1237
18865TIP3   OH278009   5.029   1.733  16.982 -0.4749 -0.7510 -0.5007
18865TIP3    H178010   5.046   1.825  16.962 -1.8484 -0.1370  1.0025
18865TIP3    H278011   4.934   1.723  16.975 -0.6647 -1.3358  2.0995
18866TIP3   OH278012   1.403   0.576  13.293  0.6006  0.0660  0.1263
18866TIP3    H178013   1.477   0.521  13.319 -0.3732 -0.9337  0.9517
18866TIP3    H278014   1.347   0.517  13.241 -0.3082  0.3462  0.7553
18867TIP3   OH278015   0.595   3.563   4.357 -0.0091 -0.2710  0.2725
18867TIP3    H178016   0.659   3.491   4.353  1.8949  1.3705 -0.7840
18867TIP3    H278017   0.623   3.616   4.432 -1.2907 -0.4884  0.9380
18868TIP3   OH278018   0.627   0.960   0.534  0.1770 -0.1934  0.1784
18868TIP3    H178019   0.621   0.937   0.626 -1.0528  2.6089  0.9109
18868TIP3    H278020   0.537   0.955   0.502  0.5325 -0.7236 -0.7779
18869TIP3   OH278021   6.772   3.259  11.879 -0.6011  0.1546 -0.0702
18869TIP3    H178022   6.795   3.249  11.971 -1.9601  0.3035  0.3065
18869TIP3    H278023   6.808   3.344  11.855 -2.3330  1.2935  1.0548
18870TIP3   OH278024   1.795   3.946  13.606  0.4529  0.3015  0.2001
18870TIP3    H178025   1.816   3.878  13.542 -0.1357  0.1372  0.1815
18870TIP3    H278026   1.872   4.004  13.604  0.2811  0.5219 -0.9420
18871TIP3   OH278027   3.323   0.838  16.944  0.0467  0.3100 -0.7185
18871TIP3    H178028   3.384   0.910  16.934 -1.1407  1.7130  1.2831
18871TIP3    H278029   3.238   0.874  16.918 -0.8072  0.1731  1.5987
18872TIP3   OH278030   5.565   6.487  11.613  0.1193  0.2514  0.2175
18872TIP3    H178031   5.569   6.516  11.522 -1.0921  1.5146  0.5235
18872TIP3    H278032   5.480   6.519  11.644  0.3772 -0.4291  1.6966
18873TIP3   OH278033   2.751   6.319  16.962 -0.1701 -0.0717 -0.3460
18873TIP3    H178034   2.733   6.352  17.050 -0.6273  1.6493 -1.0616
18873TIP3    H278035   2.707   6.234  16.959  1.1464 -0.8950  1.5752
18874TIP3   OH278036   3.540   1.757   2.825  0.3259 -0.3411 -0.2818
18874TIP3    H178037   3.517   1.678   2.776  0.2456 -0.3529 -0.2259
18874TIP3    H278038   3.589   1.725   2.901  1.7383 -0.2224 -1.1035
18875TIP3   OH278039   0.239   6.756   3.295  0.1159 -0.6223 -0.1698
18875TIP3    H178040   0.168   6.693   3.310 -0.8646 -0.1468 -2.4265
18875TIP3    H278041   0.210   6.836   3.338  0.8983 -1.3390  1.8194
18876TIP3   OH278042   1.611   2.664   4.983 -0.2738  0.1096 -0.4024
18876TIP3    H178043   1.600   2.621   4.899  0.2147  2.0968 -1.5328
18876TIP3    H278044   1.655   2.747   4.963  1.1269  0.0287  1.9721
18877TIP3   OH278045   1.738   5.099  11.871  0.6237 -0.6439 -0.3982
18877TIP3    H178046   1.774   5.033  11.812  0.8534 -0.3795 -0.5526
18877TIP3    H278047   1.804   5.109  11.939 -0.8484 -3.0882  1.5757
18878TIP3   OH278048   3.740   2.085  15.436 -0.1203  0.0606  0.2529
18878TIP3    H178049   3.770   1.998  15.460 -0.6098  0.2999  1.8600
18878TIP3    H278050   3.814   2.142  15.456 -0.3802  0.2077  0.8238
18879TIP3   OH278051   0.168   4.281   2.004 -0.3931  0.3907  0.4082
18879TIP3    H178052   0.152   4.346   1.936  2.1892 -0.7061 -1.4192
18879TIP3    H278053   0.178   4.198   1.957 -1.9003 -1.0863  2.5018
18880TIP3   OH278054   5.135   6.599   0.291 -0.1939  0.4912 -0.4970
18880TIP3    H178055   5.109   6.511   0.264  0.1794  0.9379 -2.4501
18880TIP3    H278056   5.231   6.596   0.294 -0.1849  0.0890  2.3184
18881TIP3   OH278057   0.804   1.372   0.002  0.1461 -0.4686  0.0208
18881TIP3    H178058   0.829   1.327   0.082  2.5860  0.9877  0.1615
18881TIP3    H278059   0.877   1.358  -0.058  1.1729  3.2681  0.1226
18882TIP3   OH278060   2.807   4.133  12.274 -0.6962 -0.1315 -0.2305
18882TIP3    H178061   2.881   4.179  12.234 -2.5087  3.1285 -0.1260
18882TIP3    H278062   2.830   4.127  12.367  0.0643 -0.5863 -0.4307
18883TIP3   OH278063   3.279   5.744  13.424  0.2186  0.3635  0.9772
18883TIP3    H178064   3.185   5.742  13.445  0.0574  2.2204  0.5771
18883TIP3    H278065   3.284   5.713  13.333 -0.2067  1.7542  0.4600
18884TIP3   OH278066   4.338   3.963  17.224 -0.5191  0.6667  0.6097
18884TIP3    H178067   4.363   3.917  17.304 -0.3232 -0.8109 -0.2653
18884TIP3    H278068   4.412   4.021  17.207  2.3979 -3.2077 -1.6089
18885TIP3   OH278069   1.039   3.027   5.558 -0.1658 -0.1700 -0.1307
18885TIP3    H178070   1.117   3.080   5.539  0.2734 -1.0381 -0.8047
18885TIP3    H278071   1.072   2.938   5.567 -0.7522 -0.2374  1.9697
18886TIP3   OH278072   1.015   2.671  15.737  0.0840  0.3561 -0.0462
18886TIP3    H178073   0.984   2.601  15.679 -1.6940  0.7737  0.3474
18886TIP3    H278074   1.007   2.635  15.825  3.4623 -0.5434  0.0307
18887TIP3   OH278075   1.007   6.354  11.787 -0.4803 -0.3454 -1.0326
18887TIP3    H178076   0.970   6.342  11.699 -0.0555  0.4869 -1.3348
18887TIP3    H278077   0.940   6.320  11.846 -0.2528 -2.0943 -1.7197
18888TIP3   OH278078   0.593   5.121   4.893  0.6820 -0.2741  0.0387
18888TIP3    H178079   0.598   5.090   4.802 -2.0264  2.1019 -1.0911
18888TIP3    H278080   0.510   5.085   4.925 -1.1119  3.0531 -0.3681
18889TIP3   OH278081   1.193   0.568   1.254  0.2417 -0.1324 -0.5607
18889TIP3    H178082   1.180   0.568   1.160  0.7817  1.1616 -0.6611
18889TIP3    H278083   1.121   0.515   1.289 -0.0258 -0.5197 -1.6808
18890TIP3   OH278084   0.351   3.531  17.367  0.1541 -0.1637 -0.2849
18890TIP3    H178085   0.270   3.481  17.367 -1.2423  1.9595 -1.2325
18890TIP3    H278086   0.373   3.542  17.274 -0.2534  1.9218 -0.1763
18891TIP3   OH278087   5.752   0.751   5.065 -0.0844 -0.6047  0.5381
18891TIP3    H178088   5.695   0.677   5.087  1.0113 -1.5763  0.2121
18891TIP3    H278089   5.764   0.797   5.148 -0.9142 -0.6836  0.7126
18892TIP3   OH278090   1.976   2.142  13.808 -0.1273  0.6979  0.1975
18892TIP3    H178091   2.019   2.223  13.836  0.4552  0.4511  0.0142
18892TIP3    H278092   2.027   2.072  13.849  0.5224  0.3434 -1.1812
18893TIP3   OH278093   2.061   6.576   2.266 -0.5447  0.0556  0.3064
18893TIP3    H178094   2.026   6.487   2.275  1.7361 -0.8821  0.4608
18893TIP3    H278095   1.998   6.621   2.210 -1.7758 -1.6263  0.2687
18894TIP3   OH278096   1.035   6.772   1.536  0.4951 -0.1555  0.0737
18894TIP3    H178097   1.012   6.708   1.603  1.3287 -1.4043 -0.7861
18894TIP3    H278098   1.028   6.857   1.580 -2.2396 -0.6580  0.8075
18895TIP3   OH278099   2.964   3.637   2.306  0.0584 -0.1215  0.1015
18895TIP3    H178100   2.947   3.708   2.369  0.0939 -1.1009  1.2488
18895TIP3    H278101   2.879   3.599   2.288  0.1277 -0.2453  0.0323
18896TIP3   OH278102   1.350   2.716   3.409  0.2824 -0.1339  0.6376
18896TIP3    H178103   1.432   2.710   3.360  0.6719  0.0013  1.2536
18896TIP3    H278104   1.375   2.698   3.500 -0.0713  1.5151  1.0973
18897TIP3   OH278105   0.439   2.052  15.460  0.2177  0.0652  0.1314
18897TIP3    H178106   0.361   2.004  15.489 -0.8701  1.6735 -0.0310
18897TIP3    H278107   0.493   2.060  15.539 -2.0594  3.1501  1.5731
18898TIP3   OH278108   2.548   6.125  13.547  0.5147 -0.1886 -0.2981
18898TIP3    H178109   2.620   6.188  13.560 -0.3623  0.5583  1.2398
18898TIP3    H278110   2.581   6.043  13.584  1.0593 -0.2140 -0.8185
18899TIP3   OH278111   2.317   5.252   6.009  0.1058  0.0877  0.2233
18899TIP3    H178112   2.294   5.159   6.007  0.3690  0.0264 -0.0670
18899TIP3    H278113   2.255   5.291   6.070  0.0697 -0.3006  0.4383
18900TIP3   OH278114   3.166   0.847   5.322 -0.0181 -0.1441  0.3189
18900TIP3    H178115   3.192   0.884   5.407 -0.2604 -0.6494  0.6191
18900TIP3    H278116   3.223   0.771   5.311  1.2182  0.8781 -0.7934
18901TIP3   OH278117   1.200   1.699   6.206 -0.4871 -0.0685 -0.0158
18901TIP3    H178118   1.151   1.633   6.256 -2.1985 -0.1432 -1.6570
18901TIP3    H278119   1.147   1.712   6.127  1.4514  0.9541 -1.2109
18902TIP3   OH278120   3.137   6.371  11.697 -0.4020 -0.2006 -0.1509
18902TIP3    H178121   3.122   6.336  11.609  0.1622  0.4160 -0.5047
18902TIP3    H278122   3.230   6.354  11.714  0.0013  1.4442 -0.5021
18903TIP3   OH278123   5.430   2.502   0.355  0.2457 -0.7255  0.1223
18903TIP3    H178124   5.441   2.527   0.447 -0.1465 -0.9370  0.2278
18903TIP3    H278125   5.465   2.413   0.349  0.8143 -0.4926 -0.0619
18904TIP3   OH278126   2.238   5.050  17.187  0.0839 -0.8254  0.1657
18904TIP3    H178127   2.252   5.006  17.103 -0.3471  0.0805 -0.3896
18904TIP3    H278128   2.146   5.074  17.187  0.1205 -0.6720  0.8258
18905TIP3   OH278129   3.929   1.619   3.772  0.2225 -0.3903  0.2534
18905TIP3    H178130   3.872   1.696   3.770  0.4167 -0.2469  0.1876
18905TIP3    H278131   3.951   1.608   3.865  0.3872 -0.2235  0.2344
18906TIP3   OH278132   4.049   0.407  15.998 -0.2140  0.4138  0.1749
18906TIP3    H178133   4.038   0.312  15.999 -0.6800  0.4579  1.6609
18906TIP3    H278134   4.007   0.435  15.917  0.4577 -0.6927 -0.5837
18907TIP3   OH278135   1.346   5.758  12.758 -0.0496  0.2693  0.4969
18907TIP3    H178136   1.347   5.667  12.730 -0.7625 -0.0778  1.5233
18907TIP3    H278137   1.341   5.808  12.676 -2.1272 -0.6983 -0.0554
18908TIP3   OH278138   4.430   1.952   0.540 -0.2460 -0.3527 -0.1785
18908TIP3    H178139   4.428   1.928   0.448 -0.6454 -0.6346 -0.0937
18908TIP3    H278140   4.481   1.883   0.582 -0.7500 -0.6513 -0.0575
18909TIP3   OH278141   4.411   3.915   1.783  0.1985 -0.0514 -0.2858
18909TIP3    H178142   4.323   3.907   1.746  0.6905 -0.8333 -1.3206
18909TIP3    H278143   4.425   3.833   1.831 -0.1310  0.6298  1.0377
18910TIP3   OH278144   4.746   3.636   3.664 -0.0420  0.4742  0.2723
18910TIP3    H178145   4.738   3.557   3.717  1.4587  0.1071 -0.0016
18910TIP3    H278146   4.839   3.658   3.668 -0.0427  0.9122 -1.5172
18911TIP3   OH278147   2.575   2.336  15.767 -0.1199 -0.5826 -0.4918
18911TIP3    H178148   2.534   2.335  15.681  0.0986  1.0836 -0.6479
18911TIP3    H278149   2.531   2.408  15.813  1.8880  0.6045 -0.3284
18912TIP3   OH278150   2.909   1.395  14.250  0.0678  0.2898 -0.4159
18912TIP3    H178151   2.823   1.428  14.224 -0.6033 -2.0578 -1.5634
18912TIP3    H278152   2.904   1.385  14.345 -0.6661  0.8470 -0.3905
18913TIP3   OH278153   6.337   5.302   1.293  0.1630  0.3940  0.2118
18913TIP3    H178154   6.366   5.236   1.230  0.3892 -0.5298  1.2473
18913TIP3    H278155   6.256   5.266   1.329  1.0321 -0.0380  1.8200
18914TIP3   OH278156   2.366   1.937  14.305 -0.6435 -0.2900 -0.5163
18914TIP3    H178157   2.299   1.959  14.370 -1.4605 -0.1024 -1.4066
18914TIP3    H278158   2.438   1.900  14.357 -2.2084 -2.4162  0.3000
18915TIP3   OH278159   6.619   6.044   2.371  0.4889  0.1616  0.6622
18915TIP3    H178160   6.609   6.075   2.281  0.4934 -0.4764  0.4349
18915TIP3    H278161   6.542   5.988   2.385  0.5716  0.1305  0.9989
18916TIP3   OH278162   6.157   3.366  15.970  0.5716 -0.1651 -0.5586
18916TIP3    H178163   6.105   3.300  16.015 -0.9413  0.5933 -1.1134
18916TIP3    H278164   6.232   3.319  15.935  0.4769 -1.2253  0.6162
18917TIP3   OH278165   4.534   3.321  11.582  0.2685  0.0869 -0.3419
18917TIP3    H178166   4.537   3.289  11.672  0.0458  0.3546 -0.2404
18917TIP3    H278167   4.512   3.413  11.590 -0.8805 -0.1358 -0.7214
18918TIP3   OH278168   2.379   0.507   4.314  0.0894  0.3686  0.7923
18918TIP3    H178169   2.389   0.464   4.399  0.7783 -0.7394  0.1746
18918TIP3    H278170   2.449   0.471   4.261 -2.4685 -1.8680 -1.3950
18919TIP3   OH278171   5.571   0.649   2.790  0.4458  0.4860 -0.2748
18919TIP3    H178172   5.620   0.572   2.763  2.1663  1.7740 -1.0265
18919TIP3    H278173   5.564   0.703   2.711 -0.4429  1.2621  0.3031
18920TIP3   OH278174   3.998   3.334  15.042 -0.2315  0.4514  0.4840
18920TIP3    H178175   3.988   3.329  15.137 -1.7613  1.0709  0.3874
18920TIP3    H278176   4.032   3.421  15.026  1.5139 -0.1949  0.5403
18921TIP3   OH278177   3.090   0.408  12.766  0.6404  0.2439 -0.1521
18921TIP3    H178178   3.021   0.458  12.809  1.4610  0.5940  0.8232
18921TIP3    H278179   3.091   0.324  12.813  0.2541 -0.1219 -0.7926
18922TIP3   OH278180   4.964   0.980   1.603  0.0451  0.2676  0.2036
18922TIP3    H178181   4.891   1.019   1.554 -0.5864 -0.7291  0.3414
18922TIP3    H278182   4.929   0.900   1.640  1.8992 -1.6396 -1.8911
18923TIP3   OH278183   4.866   5.273  14.502  0.1948  0.0293 -0.1615
18923TIP3    H178184   4.920   5.244  14.575 -0.0024  2.2250  0.9602
18923TIP3    H278185   4.797   5.207  14.496  2.0308 -1.9431 -0.5684
18924TIP3   OH278186   1.662   1.311  11.743 -0.2245 -0.6034 -0.5753
18924TIP3    H178187   1.693   1.235  11.793  1.7382  0.6346  0.1713
18924TIP3    H278188   1.675   1.385  11.802 -2.4338  0.3244 -1.1575
18925TIP3   OH278189   3.644   0.404   5.574  0.2629 -0.0127  0.2934
18925TIP3    H178190   3.602   0.331   5.618  1.4220  0.8443  3.0912
18925TIP3    H278191   3.580   0.475   5.579  0.7495  0.3672  1.6167
18926TIP3   OH278192   0.826   3.798  14.724 -0.2477 -0.0817 -0.4202
18926TIP3    H178193   0.799   3.709  14.702 -0.1225 -0.4398  0.8070
18926TIP3    H278194   0.745   3.849  14.721 -0.6400 -0.6134  0.6403
18927TIP3   OH278195   1.046   6.070  16.225  0.1477  0.0007  0.1441
18927TIP3    H178196   1.060   5.979  16.199  0.9871  0.2724 -0.3971
18927TIP3    H278197   1.118   6.090  16.285  0.6031  0.6378 -0.6043
18928TIP3   OH278198   0.317   2.344   6.492  0.9870 -0.1780 -0.2964
18928TIP3    H178199   0.254   2.279   6.463 -0.3085  0.4309  1.0338
18928TIP3    H278200   0.402   2.304   6.473  0.2308 -1.8349 -0.4080
18929TIP3   OH278201   4.152   3.598   3.372  0.6326  0.0675 -0.1877
18929TIP3    H178202   4.066   3.567   3.344  0.7603  0.0888 -0.6165
18929TIP3    H278203   4.151   3.590   3.467 -0.1647  0.8913 -0.1132
18930TIP3   OH278204   4.356   2.500   1.892 -0.1213  0.1623 -0.2454
18930TIP3    H178205   4.345   2.405   1.892 -3.9615  0.4213 -2.0351
18930TIP3    H278206   4.405   2.519   1.812  0.0571 -0.2477 -0.2363
18931TIP3   OH278207   4.748   2.245   4.534  0.3397 -0.1371  0.2644
18931TIP3    H178208   4.663   2.209   4.556  1.0804 -1.1190  1.6483
18931TIP3    H278209   4.728   2.326   4.486 -1.3606  0.4848  1.9113
18932TIP3   OH278210   4.977   5.455   2.745  0.3264  0.1808 -0.0854
18932TIP3    H178211   4.943   5.498   2.824 -0.6881 -0.9644  0.1383
18932TIP3    H278212   4.913   5.476   2.677  1.0929  0.9987 -0.5669
18933TIP3   OH278213   3.758   6.755  10.669 -0.2971 -0.1877  0.0117
18933TIP3    H178214   3.730   6.675  10.624  1.1967 -0.2253 -0.9078
18933TIP3    H278215   3.838   6.730  10.715 -1.3271  0.0887  2.0421
18934TIP3   OH278216   0.317   4.027  15.890  0.4265 -0.7888  0.0413
18934TIP3    H178217   0.314   4.028  15.986 -0.7776  1.0742  0.0185
18934TIP3    H278218   0.226   4.034  15.862  0.8246 -0.4317 -1.2498
18935TIP3   OH278219   0.539   2.871   0.915 -0.1097  0.0646  0.2649
18935TIP3    H178220   0.569   2.924   0.842 -0.2924  1.7899  1.3748
18935TIP3    H278221   0.590   2.902   0.990 -1.3631 -0.1657  1.2606
18936TIP3   OH278222   6.539   6.211   4.137 -0.5803  0.2790  0.3804
18936TIP3    H178223   6.569   6.290   4.092 -0.4761 -0.5037 -0.9513
18936TIP3    H278224   6.618   6.176   4.179 -0.4994  0.5125  0.4277
18937TIP3   OH278225   1.706   1.404   1.738  0.1127 -0.5777  0.0674
18937TIP3    H178226   1.770   1.470   1.763 -0.0223 -0.8156  1.1202
18937TIP3    H278227   1.736   1.370   1.654  1.0022 -0.2328  0.2413
18938TIP3   OH278228   0.787   6.683   5.983  0.4035  0.2727  0.4489
18938TIP3    H178229   0.800   6.593   5.952  0.5106  0.0676  1.0577
18938TIP3    H278230   0.870   6.727   5.965  0.3362  0.2637  0.1085
18939TIP3   OH278231   3.279   1.669  11.127 -0.5365  0.1762 -0.1333
18939TIP3    H178232   3.364   1.671  11.082 -1.3214  0.1846 -1.6838
18939TIP3    H278233   3.231   1.744  11.090 -0.6202  1.2579  2.0232
18940TIP3   OH278234   6.534   4.588   4.036 -0.0583  0.5133 -0.2149
18940TIP3    H178235   6.452   4.547   4.064 -0.3237  1.4179  0.3424
18940TIP3    H278236   6.579   4.518   3.988  0.4160 -1.0978  2.3611
18941TIP3   OH278237   3.596   3.851   1.433  0.0190 -0.0599  0.1861
18941TIP3    H178238   3.546   3.796   1.373  0.5247  0.9018 -1.1549
18941TIP3    H278239   3.599   3.937   1.391  0.7242  0.5541  1.4103
18942TIP3   OH278240   3.964   0.857   4.170 -0.4913 -0.1704  0.6344
18942TIP3    H178241   3.896   0.903   4.121 -1.4884 -0.9196  1.2634
18942TIP3    H278242   4.023   0.926   4.200 -1.2725  0.5656  0.5164
18943TIP3   OH278243   4.252   0.919   2.620  0.5756 -0.4006  0.1537
18943TIP3    H178244   4.262   1.000   2.669  1.2555 -1.0216  1.0743
18943TIP3    H278245   4.205   0.860   2.680 -2.0366  0.0254 -1.3429
18944TIP3   OH278246   4.150   4.599  13.160 -0.2490 -0.3368 -0.1409
18944TIP3    H178247   4.221   4.627  13.102 -0.2831  0.2335  0.0896
18944TIP3    H278248   4.188   4.530  13.214 -0.5869 -1.8332 -1.7424
18945TIP3   OH278249   5.149   0.008  15.595  0.1632  0.8385  0.4996
18945TIP3    H178250   5.109   0.095  15.588  0.1824  0.9381  1.4719
18945TIP3    H278251   5.185  -0.009  15.508 -1.6458  0.9132 -0.3015
18946TIP3   OH278252   0.691   3.316  16.049  0.2746  0.0701 -0.0200
18946TIP3    H178253   0.618   3.307  15.988  0.5663  1.5097 -0.6101
18946TIP3    H278254   0.764   3.270  16.007  0.1947  0.1691 -0.2697
18947TIP3   OH278255   3.607   4.949   1.538  0.3112  0.1140 -0.2374
18947TIP3    H178256   3.559   4.904   1.469  0.3725  0.8133 -0.7535
18947TIP3    H278257   3.592   4.897   1.617 -0.4322 -0.2466 -0.6117
18948TIP3   OH278258   4.583   6.135  15.424  0.3948  0.1717 -0.4262
18948TIP3    H178259   4.622   6.112  15.508 -0.0567 -1.9566 -0.7338
18948TIP3    H278260   4.538   6.218  15.439 -1.2761 -1.0648  1.9632
18949TIP3   OH278261   0.401   3.082  13.964  0.5035 -0.0577  0.0219
18949TIP3    H178262   0.449   3.158  13.930  0.2575  0.8228  1.5334
18949TIP3    H278263   0.409   3.015  13.896  2.0269  0.8079 -0.6867
18950TIP3   OH278264   3.683   2.225  13.922 -0.2820  0.0741 -0.0771
18950TIP3    H178265   3.720   2.285  13.856  1.0079 -0.6542 -0.0290
18950TIP3    H278266   3.743   2.151  13.924  0.1529  0.4206  2.4998
18951TIP3   OH278267   3.592   2.738  17.258 -0.2386  1.0293  0.0547
18951TIP3    H178268   3.568   2.830  17.250  1.5020  1.6165  1.1217
18951TIP3    H278269   3.652   2.722  17.185 -1.8716  0.2310 -1.1659
18952TIP3   OH278270   0.397   4.995  11.711  0.0115 -0.3255  0.8979
18952TIP3    H178271   0.387   4.920  11.770 -0.3459  0.7802  2.2918
18952TIP3    H278272   0.360   5.069  11.759  0.9812  0.9013 -0.1702
18953TIP3   OH278273   3.857   1.762  11.877  0.3305 -0.5954  0.1996
18953TIP3    H178274   3.842   1.692  11.941  1.9227 -0.2219  1.0382
18953TIP3    H278275   3.901   1.831  11.927 -0.0337  0.4865 -0.9091
18954TIP3   OH278276   3.649   4.014   2.861 -0.0250  0.4996  0.0937
18954TIP3    H178277   3.696   4.056   2.789 -0.0548  0.3683 -0.0019
18954TIP3    H278278   3.646   3.921   2.838  0.0721  0.4382  0.3219
18955TIP3   OH278279   5.090   2.671  17.113  0.8243  0.3679 -0.4103
18955TIP3    H178280   5.023   2.640  17.052 -0.7741 -0.1104  1.4988
18955TIP3    H278281   5.054   2.753  17.147  0.7657 -0.3340  1.2811
18956TIP3   OH278282   3.701   5.931   2.573  0.4343  0.0682  0.1520
18956TIP3    H178283   3.627   5.872   2.584 -0.9096  1.7474  0.3642
18956TIP3    H278284   3.751   5.922   2.654 -1.2356  1.1973  1.3546
18957TIP3   OH278285   6.679   0.951  16.053  0.6558  0.1474 -0.5619
18957TIP3    H178286   6.753   0.971  16.111  1.2593 -3.3106  0.0465
18957TIP3    H278287   6.604   0.945  16.111  0.1132  2.0120 -0.9781
18958TIP3   OH278288   1.407   5.202  12.062  0.3860  0.2277  0.4254
18958TIP3    H178289   1.409   5.148  11.984 -0.3843  1.0671 -0.1964
18958TIP3    H278290   1.489   5.250  12.061 -0.1705  1.1926 -0.5807
18959TIP3   OH278291   1.065   5.464   6.419  0.5163 -0.3854  0.2102
18959TIP3    H178292   1.056   5.545   6.368  0.6212 -0.6573 -0.2486
18959TIP3    H278293   0.986   5.460   6.471  0.3922 -0.1131  0.0475
18960TIP3   OH278294   0.374   4.473   5.382 -0.0190  0.9257 -0.4223
18960TIP3    H178295   0.291   4.515   5.357 -1.2517  0.2396  2.1522
18960TIP3    H278296   0.396   4.513   5.466  0.3524 -1.3688  0.6383
18961TIP3   OH278297   1.208   3.934  15.510 -0.7498  0.2148 -0.0757
18961TIP3    H178298   1.287   3.905  15.464 -0.1787 -0.9972  1.5603
18961TIP3    H278299   1.137   3.916  15.448 -0.1010 -2.1025 -0.2595
18962TIP3   OH278300   0.065   4.806  15.338  0.4608  0.3296 -0.3350
18962TIP3    H178301   0.037   4.721  15.371 -0.8565  0.1665 -1.7605
18962TIP3    H278302   0.006   4.869  15.381  0.3909  0.3704 -0.4914
18963TIP3   OH278303   3.829   5.610   2.545 -0.5969 -0.1354 -0.4687
18963TIP3    H178304   3.744   5.624   2.502 -0.4338  0.9869 -0.4674
18963TIP3    H278305   3.886   5.577   2.475 -1.2234 -1.6495 -0.2867
18964TIP3   OH278306   3.995   5.308   0.828  0.1330  0.1689  1.0772
18964TIP3    H178307   3.986   5.351   0.743 -0.4433  0.8046  1.4422
18964TIP3    H278308   3.905   5.284   0.852  0.3789 -0.6802  1.1690
18965TIP3   OH278309   5.939   4.802   0.425 -0.0315  0.3266 -0.0866
18965TIP3    H178310   5.985   4.879   0.391  0.8403  0.0160  0.3497
18965TIP3    H278311   5.853   4.835   0.449 -0.1569  0.8525 -1.2323
18966TIP3   OH278312   5.260   4.700   4.928 -0.4469 -0.0093 -0.1299
18966TIP3    H178313   5.228   4.617   4.965  0.3419 -0.7393 -1.0342
18966TIP3    H278314   5.212   4.710   4.846  0.2124 -0.1123 -0.5352
18967TIP3   OH278315   1.817   5.864   1.255  0.2924  0.3700 -0.3252
18967TIP3    H178316   1.733   5.839   1.216  0.1599 -0.0608  0.2274
18967TIP3    H278317   1.797   5.885   1.346  0.9192 -0.5985  0.0524
18968TIP3   OH278318   6.000   3.479   2.355  0.2985 -0.7322  0.0783
18968TIP3    H178319   5.923   3.493   2.299 -0.9888 -1.0354  1.6772
18968TIP3    H278320   6.055   3.556   2.339 -0.7179 -0.0898 -0.5123
18969TIP3   OH278321   1.171   3.116  12.489  0.1162  0.3520  0.1856
18969TIP3    H178322   1.171   3.029  12.450 -1.0265  0.0645  0.7556
18969TIP3    H278323   1.253   3.156  12.462  0.7242 -0.9642  0.0465
18970TIP3   OH278324   5.297   0.907  17.199 -0.3083 -0.7686 -0.6089
18970TIP3    H178325   5.203   0.897  17.182 -0.3372 -0.2966 -0.7488
18970TIP3    H278326   5.339   0.846  17.139 -0.3954  0.9573 -2.5511
18971TIP3   OH278327   6.740   3.559   3.448 -0.7232  0.7655 -0.1840
18971TIP3    H178328   6.762   3.520   3.364 -3.4553 -2.8758  0.5227
18971TIP3    H278329   6.810   3.532   3.507 -1.5137 -1.5449 -0.2011
18972TIP3   OH278330   0.335   1.543   0.609  0.0036 -0.4400  0.0070
18972TIP3    H178331   0.248   1.564   0.641 -1.0792 -1.4854 -2.0459
18972TIP3    H278332   0.393   1.561   0.683 -1.7560  1.5557  1.0186
18973TIP3   OH278333   2.230   2.182  13.500 -0.6822 -0.1298  0.0511
18973TIP3    H178334   2.283   2.112  13.538  0.0651 -0.0399 -0.7956
18973TIP3    H278335   2.230   2.251  13.567  0.9817  0.2059 -0.2573
18974TIP3   OH278336   5.245   0.497  15.321 -0.5094  0.1394 -0.4954
18974TIP3    H178337   5.275   0.418  15.366  0.0181  0.3989 -0.3762
18974TIP3    H278338   5.318   0.559  15.330 -0.9212  0.6469 -0.5662
18975TIP3   OH278339   4.005   5.315  12.991  0.1969  0.5888 -0.7316
18975TIP3    H178340   3.948   5.288  12.919 -0.7131 -1.0133  0.5285
18975TIP3    H278341   4.053   5.236  13.015  0.9483  1.2477  0.0217
18976TIP3   OH278342   1.360   2.225   1.114  0.2489 -0.2990  0.3304
18976TIP3    H178343   1.413   2.161   1.161 -0.1110  0.0360  1.2206
18976TIP3    H278344   1.333   2.180   1.033  1.7667 -0.5045 -0.0829
18977TIP3   OH278345   3.636   0.261  17.139  0.0360 -0.1170 -0.1299
18977TIP3    H178346   3.688   0.316  17.081  0.6561  1.0768  1.4722
18977TIP3    H278347   3.657   0.171  17.113  0.0631  0.3666 -1.8968
18978TIP3   OH278348   3.187   6.187   3.961  0.8828 -0.2894  0.0765
18978TIP3    H178349   3.210   6.230   3.879  0.4098  0.5589  0.3629
18978TIP3    H278350   3.235   6.105   3.961  1.9609  0.3247 -0.4227
18979TIP3   OH278351   5.860   2.859  15.288 -0.1104  0.2004 -0.3919
18979TIP3    H178352   5.776   2.890  15.256  0.1809  0.9409 -0.4686
18979TIP3    H278353   5.889   2.794  15.224 -0.9814 -0.6472  0.0516
18980TIP3   OH278354   3.860   3.917  17.318  0.3008 -0.2805  0.1691
18980TIP3    H178355   3.890   3.948  17.233 -0.0131  0.8582  0.4556
18980TIP3    H278356   3.804   3.987  17.351 -1.2756 -1.5930  0.4093
18981TIP3   OH278357   4.008   1.345   4.417  0.2909 -0.0055 -0.5503
18981TIP3    H178358   4.079   1.405   4.439  0.7931 -0.5145 -0.7669
18981TIP3    H278359   4.033   1.262   4.458  0.4866 -0.5435 -1.7310
18982TIP3   OH278360   0.902   2.849   3.931 -0.0682 -0.4036  0.4108
18982TIP3    H178361   0.812   2.856   3.899 -0.2008  0.6044  0.9652
18982TIP3    H278362   0.898   2.783   4.000 -0.0385 -1.5975 -0.6728
18983TIP3   OH278363   0.028   2.063  13.920  0.2911 -0.2336  0.1756
18983TIP3    H178364   0.085   2.112  13.862 -2.7495  2.8397 -0.5332
18983TIP3    H278365   0.049   1.971  13.903  2.9354  0.6590 -2.0513
18984TIP3   OH278366   1.890   1.482  13.647 -0.3919 -0.2776  0.4162
18984TIP3    H178367   1.980   1.514  13.647 -0.8730  1.2870  2.0286
18984TIP3    H278368   1.897   1.390  13.672  0.6645  0.3234  2.5295
18985TIP3   OH278369   4.682   6.225   2.476  0.3942  0.4703  0.3011
18985TIP3    H178370   4.640   6.191   2.397  0.7557 -0.5997  0.5651
18985TIP3    H278371   4.771   6.246   2.449  0.1769  1.2232  0.1426
18986TIP3   OH278372   3.900   5.356  11.990  0.6367  0.0159 -0.2815
18986TIP3    H178373   3.895   5.385  11.899  1.6934  0.3287 -0.2613
18986TIP3    H278374   3.817   5.381  12.029 -0.0241 -0.5537 -1.2792
18987TIP3   OH278375   2.697   4.192  13.798  0.1477  0.6632  0.2866
18987TIP3    H178376   2.760   4.134  13.842 -0.9360 -0.0169  1.0054
18987TIP3    H278377   2.673   4.257  13.864  1.4712  2.0809 -0.5659
18988TIP3   OH278378   0.013   3.195  13.634 -0.2509 -0.0014  0.2834
18988TIP3    H178379  -0.068   3.235  13.601 -0.0210  0.8264  0.6748
18988TIP3    H278380   0.003   3.102  13.616  0.2901  0.4588 -2.9933
18989TIP3   OH278381   6.606   4.880  13.443  0.3311  0.3573  0.6115
18989TIP3    H178382   6.682   4.877  13.502  2.1866  1.4030 -1.5760
18989TIP3    H278383   6.624   4.812  13.378 -0.2041  1.1236 -0.3645
18990TIP3   OH278384   4.755   3.876   0.442  0.0633  0.4181  0.4251
18990TIP3    H178385   4.738   3.784   0.462 -2.2658  1.1403  2.2768
18990TIP3    H278386   4.837   3.895   0.487  0.2233 -0.5958  0.5870
18991TIP3   OH278387   5.029   5.214   5.514 -0.1330 -0.3043  0.0413
18991TIP3    H178388   5.023   5.309   5.506  0.6419 -0.2809 -0.2677
18991TIP3    H278389   5.122   5.195   5.516 -0.2801 -1.0094  0.8038
18992TIP3   OH278390   3.121   5.779   4.330 -0.1244 -0.2360 -0.3899
18992TIP3    H178391   3.159   5.748   4.248 -0.6753 -1.0460 -0.3564
18992TIP3    H278392   3.037   5.818   4.304 -0.2403 -0.3796 -0.2371
18993TIP3   OH278393   4.146   1.720  15.900  0.2253 -0.6949  0.3956
18993TIP3    H178394   4.062   1.693  15.937  0.0828 -0.3355  0.3356
18993TIP3    H278395   4.136   1.709  15.806 -0.3932  1.0750  0.2242
18994TIP3   OH278396   6.029   3.367   4.701 -0.1549 -0.1403 -0.2866
18994TIP3    H178397   5.976   3.337   4.774  0.8294 -0.2543  0.3941
18994TIP3    H278398   5.965   3.396   4.635 -1.0428  0.0124  0.6250
18995TIP3   OH278399   1.673   6.404   3.772 -0.1041  0.2806  0.3459
18995TIP3    H178400   1.593   6.418   3.822  0.5979 -0.5036  1.7316
18995TIP3    H278401   1.721   6.487   3.778  0.4690 -0.1364  1.9256
18996TIP3   OH278402   2.825   0.474   2.642  0.3333 -0.0663 -0.3824
18996TIP3    H178403   2.789   0.562   2.654 -0.2902 -0.4715  0.8767
18996TIP3    H278404   2.748   0.417   2.637  0.7092 -0.4589 -2.0607
18997TIP3   OH278405   3.160   4.824   1.413 -0.1038 -0.3713 -0.5534
18997TIP3    H178406   3.110   4.781   1.344 -1.5563  1.1291 -0.5048
18997TIP3    H278407   3.108   4.900   1.436  1.7318  0.7205  0.2396
18998TIP3   OH278408   2.820   4.262   1.144  0.5414 -0.1402  0.1501
18998TIP3    H178409   2.761   4.334   1.165 -1.6822 -2.2129  1.6760
18998TIP3    H278410   2.799   4.239   1.054 -0.7306 -0.5521  0.5286
18999TIP3   OH278411   5.518   1.377  15.205 -0.3281 -0.8174  0.1912
18999TIP3    H178412   5.599   1.359  15.252  0.4901  0.0507 -0.8353
18999TIP3    H278413   5.454   1.398  15.273  0.1689 -1.9212  1.0411
19000TIP3   OH278414   0.630   6.549   3.804  0.5010  0.1120  0.5048
19000TIP3    H178415   0.557   6.524   3.861  0.5270  0.6607  0.7794
19000TIP3    H278416   0.689   6.473   3.805 -1.0369 -1.2239 -1.3589
19001TIP3   OH278417   4.032   1.137  11.031  0.2966 -0.5345  0.9570
19001TIP3    H178418   3.997   1.048  11.034  0.5646 -0.6279  1.3177
19001TIP3    H278419   3.960   1.189  10.995 -0.6485 -0.5282  2.7510
19002TIP3   OH278420   3.971   2.354  13.966 -0.0181 -0.1065 -0.2671
19002TIP3    H178421   4.044   2.387  13.914  0.6524 -0.4724  0.4143
19002TIP3    H278422   3.961   2.263  13.938 -0.1393 -0.0876 -0.2834
19003TIP3   OH278423   4.304   3.362  12.964 -0.3290  0.1430 -0.3091
19003TIP3    H178424   4.347   3.447  12.975 -1.8347  0.7708  1.3266
19003TIP3    H278425   4.320   3.317  13.047 -0.8259 -0.5353 -0.5774
19004TIP3   OH278426   1.612   5.658  10.621 -0.6721 -0.1547 -0.0824
19004TIP3    H178427   1.701   5.689  10.603 -0.1047  1.0626  3.8748
19004TIP3    H278428   1.556   5.722  10.577  0.4849  1.2423  0.3719
19005TIP3   OH278429   0.776   6.485   4.165 -0.4423  0.2778 -0.2277
19005TIP3    H178430   0.724   6.426   4.110 -1.8523  1.1933  0.0562
19005TIP3    H278431   0.789   6.562   4.111  2.6538 -0.7577 -1.1469
19006TIP3   OH278432   3.541   5.489   5.484  0.5894  0.0733  0.0181
19006TIP3    H178433   3.475   5.451   5.542  0.8637 -1.8906 -0.8766
19006TIP3    H278434   3.625   5.458   5.518  0.9070  0.7043 -0.1612
19007TIP3   OH278435   0.820   4.672   3.387  0.0512 -0.1839 -0.3069
19007TIP3    H178436   0.781   4.593   3.424 -1.7849 -0.1631 -2.0051
19007TIP3    H278437   0.773   4.744   3.429 -1.4081 -0.1449 -1.8940
19008TIP3   OH278438   2.514   2.695   4.926  0.0121  0.1855 -0.9525
19008TIP3    H178439   2.609   2.701   4.914 -0.1118 -0.0232 -2.1033
19008TIP3    H278440   2.482   2.785   4.915  0.2986  0.7233  1.8505
19009TIP3   OH278441   6.412   1.319   3.220 -0.6957 -0.3375 -0.1174
19009TIP3    H178442   6.468   1.397   3.220 -0.8239 -0.2317 -1.2952
19009TIP3    H278443   6.338   1.343   3.164 -0.6750 -1.3413 -0.5976
19010TIP3   OH278444   4.893   3.118  15.226  0.1921 -0.2445 -0.1309
19010TIP3    H178445   4.857   3.134  15.313 -0.8121  1.7617 -0.8537
19010TIP3    H278446   4.863   3.031  15.203 -1.1128 -0.0660  0.7993
19011TIP3   OH278447   2.728   6.003  10.414 -0.4058  0.3545  0.4278
19011TIP3    H178448   2.740   5.908  10.410 -1.3955  0.2616 -1.0962
19011TIP3    H278449   2.732   6.024  10.507  0.8360 -1.0300  0.7298
19012TIP3   OH278450   0.401   2.713   1.490 -0.1349 -0.4915  0.1382
19012TIP3    H178451   0.474   2.656   1.513  0.3862 -0.1494 -0.6608
19012TIP3    H278452   0.440   2.799   1.478 -0.1662 -0.7741 -2.8867
19013TIP3   OH278453   1.897   2.022  15.605  0.1171 -0.5479 -0.2953
19013TIP3    H178454   1.956   1.997  15.676  1.0205  0.3743 -0.7007
19013TIP3    H278455   1.844   1.944  15.589  0.4656 -1.0309  0.8246
19014TIP3   OH278456   3.586   2.062   4.138 -0.1592 -0.3537  0.1014
19014TIP3    H178457   3.579   2.131   4.073  0.0773 -0.2646  0.1691
19014TIP3    H278458   3.674   2.026   4.126  0.6021  0.8925  1.5874
19015TIP3   OH278459   1.727   2.642   2.688 -0.6387  0.0435  0.1228
19015TIP3    H178460   1.802   2.587   2.666 -0.5348  0.1130  0.3014
19015TIP3    H278461   1.652   2.597   2.649 -0.3011  0.8791 -1.6014
19016TIP3   OH278462   3.766   1.094  15.936  0.3426 -0.1345  0.1225
19016TIP3    H178463   3.711   1.075  15.861 -1.2664  0.0008  1.2292
19016TIP3    H278464   3.825   1.019  15.943 -0.9694 -1.2095  0.0329
19017TIP3   OH278465   6.683   4.794   4.161  0.2588  0.1215 -0.1041
19017TIP3    H178466   6.750   4.754   4.217 -1.5146 -0.8639  1.4499
19017TIP3    H278467   6.638   4.720   4.121  0.5753  0.7939 -1.7912
19018TIP3   OH278468   4.390   1.680  15.102 -0.0808 -1.6874  0.2529
19018TIP3    H178469   4.347   1.700  15.186  0.9023  1.3114  0.1695
19018TIP3    H278470   4.341   1.731  15.038  0.6524 -2.0457 -0.6123
19019TIP3   OH278471   0.803   5.700   5.361  0.1269 -0.5059 -0.1809
19019TIP3    H178472   0.764   5.673   5.278  0.2954  0.8853 -0.7456
19019TIP3    H278473   0.887   5.655   5.363 -0.1184 -0.9860 -0.5023
19020TIP3   OH278474   6.587   1.860   2.434 -0.3590 -0.0984  0.2942
19020TIP3    H178475   6.597   1.796   2.505  1.3473 -0.0611  0.1487
19020TIP3    H278476   6.558   1.940   2.479 -1.5480 -0.6924  0.6112
19021TIP3   OH278477   1.082   0.963   0.966 -0.2333  0.2773 -0.0179
19021TIP3    H178478   1.105   0.966   1.059  0.4334  0.2432 -0.1763
19021TIP3    H278479   1.090   0.871   0.942  1.2770  0.5112 -0.5066
19022TIP3   OH278480   1.481   4.187   2.746  0.0713 -0.6686 -0.3785
19022TIP3    H178481   1.393   4.154   2.761 -0.9546  1.5234 -1.1175
19022TIP3    H278482   1.514   4.137   2.672 -0.2687 -1.9825  0.3377
19023TIP3   OH278483   3.427   4.021   0.465 -0.2679 -0.5005 -0.2476
19023TIP3    H178484   3.428   3.936   0.422  1.7513  1.0385 -3.6442
19023TIP3    H278485   3.508   4.024   0.515 -1.2892 -1.2180  1.5586
19024TIP3   OH278486   6.257   2.332   6.903  0.0291  0.2181  0.8523
19024TIP3    H178487   6.181   2.351   6.847  0.3737  0.0742  0.3261
19024TIP3    H278488   6.333   2.349   6.847  0.3868  0.4249  1.3964
19025TIP3   OH278489   4.477   3.460  15.999  0.1927 -0.4513  0.1260
19025TIP3    H178490   4.505   3.369  15.989  3.3050  0.4073  0.0626
19025TIP3    H278491   4.478   3.496  15.910 -1.3031 -0.3626  0.1102
19026TIP3   OH278492   1.932   0.739  12.008 -0.1984  0.7228 -0.2430
19026TIP3    H178493   1.923   0.834  12.014  0.6633  0.7876  0.1268
19026TIP3    H278494   1.952   0.723  11.915 -0.0073  0.9347 -0.2387
19027TIP3   OH278495   1.457   5.788   2.676 -0.0323 -0.0443 -0.2551
19027TIP3    H178496   1.495   5.872   2.653  0.8474 -1.0354 -2.7272
19027TIP3    H278497   1.405   5.762   2.599 -1.4674 -1.1367  1.0002
19028TIP3   OH278498   2.092   0.559  11.472  0.0125  0.0761 -0.3168
19028TIP3    H178499   2.180   0.583  11.442 -0.3303 -0.3188 -1.7585
19028TIP3    H278500   2.060   0.637  11.518  0.3819  0.9596 -1.4944
19029TIP3   OH278501   3.566   5.912   1.800  0.2707  0.5202  0.3842
19029TIP3    H178502   3.515   5.881   1.874  0.3145 -0.3725  0.0491
19029TIP3    H278503   3.592   5.833   1.753  0.2250  1.0674 -0.5967
19030TIP3   OH278504   5.268   0.654  11.947  0.4479  0.4002  0.1903
19030TIP3    H178505   5.290   0.731  11.894 -1.6272  1.6879  1.1141
19030TIP3    H278506   5.174   0.642  11.934  0.5648 -1.4547  0.8004
19031TIP3   OH278507   2.690   6.220  12.715 -1.0759  0.0818  0.1086
19031TIP3    H178508   2.635   6.148  12.746  1.4894 -1.6935  0.8246
19031TIP3    H278509   2.719   6.263  12.795 -1.1373  0.8209 -0.2561
19032TIP3   OH278510   1.876   0.389  14.469  0.4344  0.0879  0.1541
19032TIP3    H178511   1.899   0.309  14.422 -1.1885  0.6482 -1.7172
19032TIP3    H278512   1.927   0.458  14.426  1.6669  0.1480  1.6250
19033TIP3   OH278513   2.639   4.820  15.078 -0.3670 -0.4261 -0.4051
19033TIP3    H178514   2.575   4.849  15.144 -1.3899 -0.0545 -1.5181
19033TIP3    H278515   2.663   4.901  15.032  0.7966 -0.5930 -0.1208
19034TIP3   OH278516   0.535   5.938  13.174 -0.5507  0.1947  0.7767
19034TIP3    H178517   0.573   6.025  13.183  0.8315 -0.3070  0.0084
19034TIP3    H278518   0.536   5.902  13.263 -0.5342  0.7138  0.9895
19035TIP3   OH278519   1.940   5.611  13.201  0.5123 -0.4787  0.2282
19035TIP3    H178520   1.890   5.530  13.211 -1.6234  0.7576  0.1099
19035TIP3    H278521   2.013   5.588  13.143  0.7833 -2.6172  1.3372
19036TIP3   OH278522   4.218   0.138  12.201  0.2240  0.4119  0.0065
19036TIP3    H178523   4.287   0.185  12.249  1.7279 -0.9625 -0.7262
19036TIP3    H278524   4.243   0.046  12.206 -0.6912  0.0245 -1.6727
19037TIP3   OH278525   4.544   4.952  15.772  0.6442 -0.2944  0.0334
19037TIP3    H178526   4.612   5.015  15.752  0.2990  1.5299  3.7946
19037TIP3    H278527   4.466   4.985  15.727  1.2080  0.0455 -0.7094
19038TIP3   OH278528   0.411   0.458   2.959 -1.1392  0.9677 -0.2987
19038TIP3    H178529   0.353   0.434   2.887 -0.1449 -0.3651 -0.6757
19038TIP3    H278530   0.420   0.378   3.011  0.0722  1.2411 -0.0553
19039TIP3   OH278531   2.245   2.903   4.287  0.2479  0.4013  0.1438
19039TIP3    H178532   2.325   2.933   4.331 -0.7445  1.2299  1.4724
19039TIP3    H278533   2.174   2.934   4.344 -0.9778 -1.2894 -0.3970
19040TIP3   OH278534   6.188   6.470  17.051  0.2093 -0.1341  0.3941
19040TIP3    H178535   6.254   6.441  17.114  0.3094 -1.2101 -0.1829
19040TIP3    H278536   6.229   6.461  16.966  0.0063  1.1389  0.1336
19041TIP3   OH278537   6.457   6.722   0.489  0.2532 -0.3579  0.5941
19041TIP3    H178538   6.474   6.771   0.409  1.5172 -1.3234  0.2335
19041TIP3    H278539   6.408   6.645   0.460 -0.7163  0.0940  0.9946
19042TIP3   OH278540   4.023   5.059   3.510 -0.3018  0.2278  0.2232
19042TIP3    H178541   4.076   5.139   3.513  0.0607  0.1072 -1.6499
19042TIP3    H278542   3.992   5.047   3.600  2.7401  0.3614  1.3964
19043TIP3   OH278543   6.409   3.062   0.859  0.4806 -0.1983  0.2792
19043TIP3    H178544   6.503   3.043   0.855  0.7847  0.3543  2.8436
19043TIP3    H278545   6.399   3.145   0.812  1.5342  0.4023  1.0674
19044TIP3   OH278546   5.588   6.760  17.261 -0.0687  0.7032 -0.2449
19044TIP3    H178547   5.511   6.729  17.308 -1.2341  3.6927  0.0392
19044TIP3    H278548   5.578   6.725  17.173 -1.3906  0.4854 -0.0272
19045TIP3   OH278549   0.924   6.594   4.883  0.1670 -0.6527  0.4791
19045TIP3    H178550   0.967   6.565   4.802  1.2625  0.4343  0.6548
19045TIP3    H278551   0.992   6.640   4.932 -1.2579  1.4434  0.6097
19046TIP3   OH278552   5.150   2.238  15.799  0.0190  0.6198  0.0800
19046TIP3    H178553   5.055   2.231  15.801  0.0275  0.3633  2.3845
19046TIP3    H278554   5.168   2.326  15.832  0.5942 -0.2436  2.2139
19047TIP3   OH278555   2.755   1.550   2.169  0.1242 -0.4521  0.4493
19047TIP3    H178556   2.719   1.464   2.194  0.0087 -0.3647  0.5886
19047TIP3    H278557   2.736   1.558   2.076 -0.3275 -0.3528  0.5502
19048TIP3   OH278558   2.386   0.166  16.553 -0.6552  0.1813  1.2155
19048TIP3    H178559   2.392   0.142  16.646  0.8686  1.5293  1.5123
19048TIP3    H278560   2.443   0.104  16.508  0.3346  0.8752  1.4870
19049TIP3   OH278561   4.577   4.520   2.261  0.0087  0.5400  0.6346
19049TIP3    H178562   4.628   4.519   2.342 -0.0938 -0.1008  0.6993
19049TIP3    H278563   4.635   4.481   2.196  0.5766  2.2189  0.0767
19050TIP3   OH278564   6.630   4.457  14.861 -0.3258 -0.3604 -0.1953
19050TIP3    H178565   6.701   4.483  14.919 -0.3573  1.9099 -1.0644
19050TIP3    H278566   6.554   4.507  14.892 -0.8968 -0.8219 -0.8157
19051TIP3   OH278567   1.502   3.414   2.042 -0.4427  0.2592 -0.1998
19051TIP3    H178568   1.567   3.433   2.110 -2.1043  0.4648  1.4065
19051TIP3    H278569   1.490   3.497   1.996 -0.9871  0.7453  0.7894
19052TIP3   OH278570   2.211   3.365   3.834 -0.5298 -0.7876 -0.2016
19052TIP3    H178571   2.277   3.306   3.799  0.0195 -1.7002  2.1368
19052TIP3    H278572   2.142   3.307   3.867 -0.5415 -0.1120  1.0554
19053TIP3   OH278573   1.230   5.083   2.385 -0.3479  0.1506 -0.7214
19053TIP3    H178574   1.195   5.026   2.453 -0.8688 -0.2793 -1.3349
19053TIP3    H278575   1.180   5.061   2.307  0.0800  0.7985 -1.1939
19054TIP3   OH278576   4.532   5.048  15.140 -0.0115  0.2908 -0.5083
19054TIP3    H178577   4.586   5.045  15.219 -0.3738  0.3319 -0.2568
19054TIP3    H278578   4.553   4.967  15.094 -0.4756 -0.1765  0.0860
19055TIP3   OH278579   1.538   5.728  13.382  0.5175 -0.2199 -0.1990
19055TIP3    H178580   1.561   5.636  13.382  1.5649  0.0236 -1.1990
19055TIP3    H278581   1.603   5.770  13.326  0.3616  1.2068  0.6305
19056TIP3   OH278582   3.317   5.954   1.606 -0.8954  0.2737  0.4391
19056TIP3    H178583   3.278   5.869   1.626  0.5270 -0.4898  0.1236
19056TIP3    H278584   3.405   5.933   1.574 -1.2406  1.7277 -1.6889
19057TIP3   OH278585   2.750   3.611   0.076 -0.3069  0.0571 -0.1287
19057TIP3    H178586   2.729   3.569   0.159 -1.7484 -0.1400 -0.5691
19057TIP3    H278587   2.747   3.705   0.095  0.5653  0.0112  0.3021
19058TIP3   OH278588   4.399   1.992  12.854  0.9489  0.0426 -0.0349
19058TIP3    H178589   4.374   1.900  12.864  0.0429  0.3174  0.3437
19058TIP3    H278590   4.494   1.990  12.846  0.9310 -0.9409 -0.2071
19059TIP3   OH278591   4.817   0.368  11.455 -0.5957  0.5187 -0.5494
19059TIP3    H178592   4.904   0.373  11.495 -0.3062 -1.8981 -0.6962
19059TIP3    H278593   4.760   0.413  11.517  0.3232 -0.4348  1.0608
19060TIP3   OH278594   0.872   6.046   3.776 -0.3384 -0.4722  0.1077
19060TIP3    H178595   0.782   6.060   3.746 -0.3435 -0.1202  0.2852
19060TIP3    H278596   0.884   6.109   3.847  0.6390  0.7663 -1.1067
19061TIP3   OH278597   2.582   4.211  11.919 -0.1131  1.0244 -0.7213
19061TIP3    H178598   2.672   4.238  11.938 -0.4856  2.3399 -0.7279
19061TIP3    H278599   2.532   4.293  11.919 -1.3453  0.2998 -0.5368
19062TIP3   OH278600   5.594   0.629   5.408  0.1959  0.3231 -0.7569
19062TIP3    H178601   5.577   0.566   5.478  0.5362 -0.4240 -1.3318
19062TIP3    H278602   5.513   0.633   5.358 -0.0241  0.8021 -0.3620
19063TIP3   OH278603   1.983   2.541   4.646 -0.6289 -0.4515 -0.1063
19063TIP3    H178604   1.923   2.470   4.666 -1.4465 -0.1216 -1.3233
19063TIP3    H278605   1.986   2.546   4.551 -0.3718  0.9587 -0.0587
19064TIP3   OH278606   4.144   0.800  15.797  0.1693  0.0357 -0.7051
19064TIP3    H178607   4.149   0.713  15.758  2.4614  0.9612 -2.7686
19064TIP3    H278608   4.084   0.848  15.741 -0.9693 -0.1159  0.3395
19065TIP3   OH278609   5.811   6.551  15.369 -0.0386 -0.2757 -0.5636
19065TIP3    H178610   5.745   6.492  15.333 -0.3683  0.3946 -1.0707
19065TIP3    H278611   5.776   6.638  15.356  0.7279  0.0714 -0.3825
19066TIP3   OH278612   1.015   4.265   0.631 -0.0042  0.1383 -0.2926
19066TIP3    H178613   1.052   4.344   0.671  1.2637 -0.4883 -0.1780
19066TIP3    H278614   0.921   4.274   0.642  0.2244  0.6880  1.5162
19067TIP3   OH278615   2.622   3.678  15.358 -0.8802 -0.0505  0.3653
19067TIP3    H178616   2.649   3.770  15.361  0.5272 -0.4188 -0.4465
19067TIP3    H278617   2.704   3.629  15.359 -1.5417 -1.2532 -1.1949
19068TIP3   OH278618   0.650   1.927   6.253  0.0630 -0.0379  0.0288
19068TIP3    H178619   0.689   1.859   6.307  2.4398 -0.3283 -1.8981
19068TIP3    H278620   0.666   2.008   6.301  2.0571 -0.3028 -0.0955
19069TIP3   OH278621   3.378   3.717  15.118  0.4314  0.5301  0.0616
19069TIP3    H178622   3.356   3.660  15.044  1.5181 -0.3602  0.3782
19069TIP3    H278623   3.403   3.800  15.078 -0.6954  0.6431 -0.4440
19070TIP3   OH278624   3.851   3.465  12.802  0.8079 -0.0221  0.8011
19070TIP3    H178625   3.883   3.538  12.855 -0.2341 -1.0063  2.9271
19070TIP3    H278626   3.923   3.402  12.802  1.8878  1.1094 -1.4292
19071TIP3   OH278627   1.020   5.968  13.420 -0.0092 -0.2327 -0.1216
19071TIP3    H178628   1.051   5.922  13.498  0.1722 -0.1790 -0.1627
19071TIP3    H278629   1.092   5.961  13.358  0.0045  0.0703 -0.1431
19072TIP3   OH278630   3.645   4.260  15.697  0.4559 -0.2416 -0.4102
19072TIP3    H178631   3.718   4.199  15.688  1.0566  0.4976 -0.6851
19072TIP3    H278632   3.682   4.336  15.742 -0.1779  0.0800 -0.4145
19073TIP3   OH278633   5.519   4.071   5.444 -0.0367 -0.1016 -0.3348
19073TIP3    H178634   5.554   3.982   5.444 -0.6558 -0.3555 -0.9680
19073TIP3    H278635   5.429   4.061   5.476  0.7792  0.7064  2.5361
19074TIP3   OH278636   3.749   5.941   3.468  0.2708  0.0528 -0.1264
19074TIP3    H178637   3.716   5.878   3.403 -0.5479 -0.2711  0.5714
19074TIP3    H278638   3.793   5.886   3.534 -1.7433  0.0000  1.2664
19075TIP3   OH278639   0.687   6.239   4.530  0.4581 -0.0192 -0.0029
19075TIP3    H178640   0.737   6.318   4.553  0.6903 -0.2418  0.2595
19075TIP3    H278641   0.741   6.167   4.559  0.4999 -0.2980 -0.7523
19076TIP3   OH278642   0.945   3.476   5.528 -0.1105 -0.6918 -0.0744
19076TIP3    H178643   0.950   3.455   5.621  2.4987  0.4859  0.1375
19076TIP3    H278644   0.901   3.561   5.525  0.4690 -0.3722  0.1885
19077TIP3   OH278645   1.482   2.725   4.361  0.0466  0.3346  0.3880
19077TIP3    H178646   1.478   2.634   4.330 -0.3082  0.7776 -0.9063
19077TIP3    H278647   1.551   2.724   4.428  0.8694 -0.6439 -0.4415
19078TIP3   OH278648   2.055   4.210   1.334 -0.5962  0.0148 -0.0412
19078TIP3    H178649   2.040   4.270   1.260 -0.2209  1.2012  0.8134
19078TIP3    H278650   1.991   4.237   1.400 -0.9660 -1.0681  0.0546
19079TIP3   OH278651   0.656   5.953   1.208 -0.0468 -0.3231 -0.6875
19079TIP3    H178652   0.650   6.035   1.257 -1.0296 -0.1360 -1.0858
19079TIP3    H278653   0.732   5.965   1.151 -0.2596  0.3652 -0.8382
19080TIP3   OH278654   2.537   4.453  12.321 -0.0168 -0.2230  0.0607
19080TIP3    H178655   2.451   4.429  12.285  0.9461 -0.3955 -2.2584
19080TIP3    H278656   2.570   4.373  12.360 -0.6371 -0.3030  0.4506
19081TIP3   OH278657   2.811   2.599   0.820 -0.1545  0.2222  0.1819
19081TIP3    H178658   2.758   2.584   0.741  1.3651 -3.4039 -0.3701
19081TIP3    H278659   2.766   2.551   0.889  0.6523 -0.0973  0.5026
19082TIP3   OH278660   2.097   2.664   0.198  0.3380 -0.6416 -0.2062
19082TIP3    H178661   2.163   2.717   0.242 -0.1991 -0.3984  0.3252
19082TIP3    H278662   2.127   2.574   0.207  0.9892 -0.4766 -0.6536
19083TIP3   OH278663   3.929   5.723  13.585 -0.2348 -0.2743 -0.5566
19083TIP3    H178664   3.911   5.673  13.664 -0.5232 -0.0472 -0.4749
19083TIP3    H278665   4.008   5.684  13.549  0.2405  0.0071  0.1636
19084TIP3   OH278666   0.318   0.406   4.272  0.2968 -0.0695 -0.4598
19084TIP3    H178667   0.329   0.445   4.359  1.6915  0.9184 -1.0286
19084TIP3    H278668   0.242   0.349   4.280  1.6345 -1.7283  2.0281
19085TIP3   OH278669   3.860   5.516  15.943  0.1204  0.2236 -0.5083
19085TIP3    H178670   3.886   5.518  15.851  1.5857  0.8387 -0.1052
19085TIP3    H278671   3.919   5.578  15.987 -2.5637  2.3550  0.3701
19086TIP3   OH278672   6.518   1.495   0.144  0.3890 -0.3527  0.1610
19086TIP3    H178673   6.583   1.485   0.214  0.4815  0.9789  0.2781
19086TIP3    H278674   6.434   1.494   0.190  0.3988 -0.4253  0.1783
19087TIP3   OH278675   1.050   5.630  15.967 -0.6545 -0.6494 -0.0845
19087TIP3    H178676   1.036   5.548  15.920 -0.9101 -1.0174  0.6156
19087TIP3    H278677   1.056   5.697  15.898 -2.5191 -0.9448 -0.6038
19088TIP3   OH278678   3.529   5.691   3.969 -0.5984  0.0376  0.0550
19088TIP3    H178679   3.456   5.657   3.918  0.0714 -0.4005 -0.6294
19088TIP3    H278680   3.606   5.676   3.914 -0.3411  3.7187 -0.8486
19089TIP3   OH278681   1.248   2.162   2.626 -0.2604 -0.6613 -0.5901
19089TIP3    H178682   1.212   2.177   2.714 -1.0398 -1.4582 -0.7528
19089TIP3    H278683   1.339   2.139   2.641 -0.2629 -0.3209 -0.0231
19090TIP3   OH278684   1.115   5.771   4.618  0.4128 -0.0257 -1.0360
19090TIP3    H178685   1.144   5.680   4.613  0.4380 -0.0300 -0.7904
19090TIP3    H278686   1.108   5.799   4.526 -1.9585 -1.0191 -1.2232
19091TIP3   OH278687   3.856   6.424   4.808 -0.4442 -0.3080 -0.1751
19091TIP3    H178688   3.832   6.421   4.900 -0.5363 -0.4677 -0.2041
19091TIP3    H278689   3.833   6.513   4.780 -0.3894 -0.2507 -0.0374
19092TIP3   OH278690   5.232   1.486   0.328  0.2509  0.4893  0.0006
19092TIP3    H178691   5.190   1.565   0.293  0.0528  0.4011  0.0341
19092TIP3    H278692   5.297   1.518   0.389 -2.3451  0.6420  2.9646
19093TIP3   OH278693   3.435   5.111  15.898  0.2905  0.2946 -0.0369
19093TIP3    H178694   3.431   5.065  15.814  0.2509 -0.3826  0.3271
19093TIP3    H278695   3.410   5.201  15.877  0.0301  0.0763 -0.7097
19094TIP3   OH278696   3.057   4.921   1.814  0.2230 -0.3944  0.0596
19094TIP3    H178697   3.015   4.995   1.770  1.9650  0.3691 -0.4236
19094TIP3    H278698   3.138   4.957   1.849  1.1388 -2.0853 -0.2104
19095TIP3   OH278699   2.492   0.986  14.546  0.3385  0.0040 -0.1039
19095TIP3    H178700   2.544   1.047  14.493  2.3406 -1.2358  0.3162
19095TIP3    H278701   2.439   1.042  14.602  1.3056  1.3557 -0.4751
19096TIP3   OH278702   3.223   5.748   1.768 -0.1555  0.0514  0.1787
19096TIP3    H178703   3.271   5.689   1.826 -0.3790 -1.6116 -1.2571
19096TIP3    H278704   3.133   5.747   1.800 -0.3373 -1.0851 -0.3301
19097TIP3   OH278705   4.919   2.660   2.507 -0.4127  0.3260 -1.0224
19097TIP3    H178706   4.934   2.751   2.529  0.6938 -0.0713  0.0070
19097TIP3    H278707   4.834   2.639   2.545 -0.2473  0.6861 -0.4402
19098TIP3   OH278708   4.788   3.946  14.782 -0.6430 -0.2694  0.1573
19098TIP3    H178709   4.863   3.886  14.778  0.5313  1.1853 -2.1359
19098TIP3    H278710   4.722   3.906  14.727  0.2637  0.5623 -1.6476
19099TIP3   OH278711   4.505   6.631  16.924 -0.2707 -0.3230 -0.3474
19099TIP3    H178712   4.566   6.704  16.940  2.6447 -2.2183 -1.9778
19099TIP3    H278713   4.474   6.645  16.835 -1.6589  0.1588  0.1775
19100TIP3   OH278714   5.131   0.033  13.243 -1.1135  0.4740 -0.2081
19100TIP3    H178715   5.051   0.039  13.294 -1.7365  1.6537 -1.2646
19100TIP3    H278716   5.184  -0.032  13.288 -2.6372 -0.2893  0.5442
19101TIP3   OH278717   0.149   5.990   3.443  0.2969  0.4043  0.6057
19101TIP3    H178718   0.156   6.085   3.459  0.9629  0.3688  0.5271
19101TIP3    H278719   0.239   5.958   3.450  0.5845  0.2811 -2.5956
19102TIP3   OH278720   6.144   4.369  13.836 -0.0976 -0.1471  0.2282
19102TIP3    H178721   6.069   4.319  13.870 -0.6388  0.0640 -0.6267
19102TIP3    H278722   6.108   4.454  13.811 -0.2572 -0.9996 -2.9341
19103TIP3   OH278723   1.055   2.134  15.645 -0.3603  0.2077  0.6649
19103TIP3    H178724   1.149   2.147  15.638 -0.4684  1.3661  1.2065
19103TIP3    H278725   1.025   2.124  15.555  0.4366 -1.5478  0.5454
19104TIP3   OH278726   1.216   3.052   5.045  0.0839 -0.3858 -0.6838
19104TIP3    H178727   1.172   3.137   5.043  0.8992  0.0265 -1.5914
19104TIP3    H278728   1.295   3.064   4.994 -1.1740 -2.4848 -3.3841
19105TIP3   OH278729   2.296   4.061  14.033  0.1774  0.2278  0.3607
19105TIP3    H178730   2.303   4.032  13.942  0.3804 -0.8206  0.7051
19105TIP3    H278731   2.385   4.086  14.057 -0.0675  1.6567 -0.0762
19106TIP3   OH278732   6.154   1.981   3.388 -0.1954 -0.0324  0.3267
19106TIP3    H178733   6.195   2.052   3.438 -1.0908  1.3103 -0.7731
19106TIP3    H278734   6.227   1.937   3.344  0.7160 -1.6968  3.2070
19107TIP3   OH278735   3.525   3.388  11.945  0.5573  0.0287  0.0034
19107TIP3    H178736   3.611   3.409  11.909 -0.2917  1.1939 -1.4509
19107TIP3    H278737   3.464   3.405  11.873 -1.3488  3.2659  2.1272
19108TIP3   OH278738   6.307   5.007  11.273  0.0644  0.1453 -0.0125
19108TIP3    H178739   6.251   5.080  11.248 -1.1701 -1.2288 -1.5219
19108TIP3    H278740   6.277   4.934  11.218  0.2054 -1.9200  2.4500
19109TIP3   OH278741   4.507   2.296  16.614 -0.2682 -0.2427 -0.5175
19109TIP3    H178742   4.436   2.324  16.672 -0.8552 -0.3743 -1.1456
19109TIP3    H278743   4.465   2.287  16.528  0.0912 -2.1439 -0.5411
19110TIP3   OH278744   4.411   4.786  16.320  0.0616  0.8078 -0.0657
19110TIP3    H178745   4.437   4.802  16.229  2.0588  1.8941  0.6342
19110TIP3    H278746   4.420   4.692  16.331 -2.2950  0.3170 -1.5302
19111TIP3   OH278747   1.261   0.411  13.128 -0.2827  0.1453  0.1918
19111TIP3    H178748   1.224   0.324  13.144  0.7327 -0.0928  1.4207
19111TIP3    H278749   1.186   0.465  13.102 -0.7358 -1.3844 -1.9200
19112TIP3   OH278750   3.590   5.216  13.365 -0.5338  0.1556 -0.5244
19112TIP3    H178751   3.560   5.244  13.452 -1.8672 -1.8919 -0.2600
19112TIP3    H278752   3.678   5.181  13.381 -0.7290 -0.1118 -0.0093
19113TIP3   OH278753   2.851   5.132   1.137  0.2948 -0.0790 -0.4838
19113TIP3    H178754   2.822   5.066   1.075  1.4563  0.1205 -1.2665
19113TIP3    H278755   2.945   5.139   1.123  0.4318  0.6519  0.6439
19114TIP3   OH278756   5.384   4.703  13.972  0.1373 -0.4669 -0.2156
19114TIP3    H178757   5.430   4.752  13.904  0.3504 -0.8743 -0.3675
19114TIP3    H278758   5.301   4.749  13.983 -0.0516 -0.6090 -1.0082
19115TIP3   OH278759   0.824   1.854   3.853 -0.7456  0.0003 -0.2536
19115TIP3    H178760   0.793   1.841   3.942  0.0003 -1.7524 -0.2171
19115TIP3    H278761   0.805   1.772   3.808 -1.8353  1.1084 -1.9661
19116TIP3   OH278762   1.764   2.061   4.121  0.3918 -0.1043 -0.2312
19116TIP3    H178763   1.827   2.029   4.056  1.8622 -2.0542  1.9670
19116TIP3    H278764   1.688   2.005   4.111  2.2564 -3.4755  2.3650
19117TIP3   OH278765   1.360   3.483   5.539  0.1198 -0.2799  0.4295
19117TIP3    H178766   1.434   3.485   5.478 -0.2485  2.8715 -0.0686
19117TIP3    H278767   1.370   3.563   5.591 -1.4162 -1.2294  2.2969
19118TIP3   OH278768   0.948   6.303  11.511  0.6360 -0.1192 -0.0205
19118TIP3    H178769   0.861   6.274  11.483 -0.1506  1.7865  0.2870
19118TIP3    H278770   0.997   6.312  11.429 -0.3105  1.3063 -0.4724
19119TIP3   OH278771   6.676   0.379  15.154  0.4218  0.2264  0.3546
19119TIP3    H178772   6.747   0.329  15.192 -0.9275 -2.9959 -0.9902
19119TIP3    H278773   6.669   0.346  15.064 -0.9216  2.5352 -0.4731
19120TIP3   OH278774   5.962   1.247   0.262 -0.1715  0.3725 -0.5713
19120TIP3    H178775   6.010   1.222   0.341  1.0368  1.8299 -0.8037
19120TIP3    H278776   5.997   1.190   0.194 -1.2659 -0.9380 -0.0723
19121TIP3   OH278777   2.901   1.708  12.314  0.1849  0.2337  0.1238
19121TIP3    H178778   2.990   1.680  12.296 -0.1715 -0.4154 -0.6735
19121TIP3    H278779   2.910   1.772  12.385  1.1281 -0.9513  1.0990
19122TIP3   OH278780   5.435   1.527   5.713 -0.3681 -0.1802  0.4280
19122TIP3    H178781   5.484   1.450   5.685 -0.0166  0.7197 -1.5891
19122TIP3    H278782   5.372   1.493   5.776 -0.3423 -2.1396 -0.5224
19123TIP3   OH278783   1.142   4.812   5.402  0.5874  0.5898  0.2473
19123TIP3    H178784   1.096   4.772   5.476 -3.9462  1.8491 -1.5983
19123TIP3    H278785   1.165   4.900   5.433  0.8324  0.3247  0.8461
19124TIP3   OH278786   5.291   4.480  16.234 -0.5418  0.2470  0.1279
19124TIP3    H178787   5.374   4.529  16.236 -0.6458  0.5516 -1.4919
19124TIP3    H278788   5.274   4.467  16.140 -2.4781  0.4299  0.4268
19125TIP3   OH278789   3.960   4.346   1.824  0.7159 -0.5849  0.1412
19125TIP3    H178790   3.900   4.285   1.782 -0.1398 -0.0289  0.5244
19125TIP3    H278791   4.018   4.291   1.876 -0.7862 -1.0434  1.4349
19126TIP3   OH278792   0.958   0.754   3.906  0.0014 -0.5195  0.1889
19126TIP3    H178793   0.924   0.839   3.934 -0.4045 -0.6385  0.0539
19126TIP3    H278794   0.911   0.690   3.959 -0.6182 -0.7354 -0.6055
19127TIP3   OH278795   6.239   1.850   3.987 -0.3609 -0.2368 -0.3398
19127TIP3    H178796   6.145   1.853   4.006 -0.3730 -1.1616 -0.2243
19127TIP3    H278797   6.245   1.866   3.893 -0.6072  0.0932 -0.3026
19128TIP3   OH278798   4.056   1.069  16.521  0.4613 -0.0333  0.2780
19128TIP3    H178799   4.135   1.016  16.513  1.2385  1.0926  0.2073
19128TIP3    H278800   4.057   1.100  16.612 -0.1464 -0.3595  0.4054
19129TIP3   OH278801   6.101   6.085  14.206  0.8985 -0.5244 -0.0218
19129TIP3    H178802   6.030   6.039  14.250 -1.3016 -0.6835 -3.4271
19129TIP3    H278803   6.090   6.177  14.231 -0.8761 -0.4718 -0.8985
19130TIP3   OH278804   0.159   1.375  11.834  0.2783  0.2833  0.5677
19130TIP3    H178805   0.155   1.409  11.745 -0.3487 -0.0269  0.4731
19130TIP3    H278806   0.195   1.287  11.824  0.7237  0.4494  0.6816
19131TIP3   OH278807   2.555   4.040  12.784 -0.0159  0.2744 -0.3152
19131TIP3    H178808   2.492   4.090  12.835  2.0958  1.6894  1.0651
19131TIP3    H278809   2.556   3.954  12.825 -0.9904  0.2472 -0.3286
19132TIP3   OH278810   2.980   1.175  14.561 -0.1476  0.6941 -0.3212
19132TIP3    H178811   2.911   1.111  14.540  0.2342 -0.2651  1.1648
19132TIP3    H278812   2.945   1.258  14.530 -0.8335 -0.1663 -1.9684
19133TIP3   OH278813   0.767   3.497  13.947 -0.3144 -0.1526 -0.3049
19133TIP3    H178814   0.701   3.560  13.916 -1.3440 -0.9328  0.2289
19133TIP3    H278815   0.802   3.536  14.027 -0.7007 -0.0910 -0.1617
19134TIP3   OH278816   0.098   5.161  14.887  0.0279 -0.1184  0.4861
19134TIP3    H178817   0.065   5.072  14.879 -2.1604  0.7096 -0.7828
19134TIP3    H278818   0.111   5.190  14.796  0.2281  1.0158  0.8596
19135TIP3   OH278819   5.058   6.201   4.964 -0.2858 -0.2088  0.6098
19135TIP3    H178820   4.975   6.153   4.960  0.0686 -0.7807 -0.5128
19135TIP3    H278821   5.125   6.132   4.960  0.2347  0.3503 -0.9626
19136TIP3   OH278822   1.872   0.991   4.634  1.0196 -0.1276 -0.0764
19136TIP3    H178823   1.824   0.937   4.571 -0.7343  0.7970  0.3970
19136TIP3    H278824   1.963   0.965   4.624  1.4371  2.0352 -5.3035
19137TIP3   OH278825   5.247   4.653   1.552 -0.1844 -0.0977 -0.8377
19137TIP3    H178826   5.291   4.568   1.549 -0.8047 -0.4336 -3.7831
19137TIP3    H278827   5.154   4.632   1.557 -0.2811  0.4577 -0.1656
19138TIP3   OH278828   6.221   0.821  15.075  0.0623 -0.4154 -0.1997
19138TIP3    H178829   6.313   0.830  15.051  0.0717 -0.7290 -0.2853
19138TIP3    H278830   6.221   0.770  15.156  0.0590  1.1190  0.8037
19139TIP3   OH278831   6.089   2.853  13.280  0.5840 -0.1137 -0.1974
19139TIP3    H178832   6.005   2.813  13.258  1.4082 -1.2393 -1.4222
19139TIP3    H278833   6.109   2.821  13.368 -1.1659  1.7745  0.9961
19140TIP3   OH278834   4.355   4.392  16.266  0.7570 -0.7886  0.2877
19140TIP3    H178835   4.390   4.397  16.177  2.7222 -0.3402  1.0249
19140TIP3    H278836   4.324   4.302  16.275  0.7163 -0.8926 -0.7809
19141TIP3   OH278837   1.508   0.269   4.404  0.1741 -0.1402 -0.6865
19141TIP3    H178838   1.462   0.186   4.395  4.4641 -2.8943 -0.0888
19141TIP3    H278839   1.514   0.303   4.315 -1.0362 -0.8238 -1.0427
19142TIP3   OH278840   5.398   1.323   3.816 -0.3953 -0.0936  0.3059
19142TIP3    H178841   5.490   1.322   3.791  0.1610  1.4525  2.0772
19142TIP3    H278842   5.391   1.256   3.884 -0.3806  0.3423  0.7430
19143TIP3   OH278843   1.830   4.130  17.022 -0.2457 -0.3958  0.0021
19143TIP3    H178844   1.832   4.072  17.098 -1.3540  0.6340  0.8411
19143TIP3    H278845   1.741   4.123  16.989 -0.0135 -0.1641 -0.6791
19144TIP3   OH278846   5.487   0.475  11.870  0.1658  0.5594  0.0155
19144TIP3    H178847   5.488   0.469  11.774 -0.8205  0.1703  0.0237
19144TIP3    H278848   5.423   0.544  11.889 -0.8308 -0.4692  0.4392
19145TIP3   OH278849   0.763   4.011  16.335  0.1276  0.4989 -0.2167
19145TIP3    H178850   0.848   4.053  16.349  0.9017 -0.7128 -1.0578
19145TIP3    H278851   0.748   4.018  16.241 -0.9340  1.0863 -0.0201
19146TIP3   OH278852   4.533   2.351   4.924  0.3732  0.0177  0.5377
19146TIP3    H178853   4.608   2.319   4.975 -0.3747  0.6544  2.0959
19146TIP3    H278854   4.458   2.343   4.982 -0.6810  0.0079 -0.7687
19147TIP3   OH278855   0.179   3.014  11.798 -0.5867 -0.1416  0.1187
19147TIP3    H178856   0.105   2.958  11.818 -0.8998  0.4998  0.7930
19147TIP3    H278857   0.160   3.097  11.842 -0.4644  0.7379 -1.3917
19148TIP3   OH278858   3.321   2.570  12.686 -0.1618 -0.0209 -0.0624
19148TIP3    H178859   3.270   2.650  12.672  0.2086  0.4709  1.2583
19148TIP3    H278860   3.272   2.522  12.752 -0.6736 -1.1888 -1.2314
19149TIP3   OH278861   4.131   1.903  16.148  0.8266  0.2950  0.0505
19149TIP3    H178862   4.058   1.855  16.189  1.5833 -0.8779  0.0702
19149TIP3    H278863   4.157   1.847  16.075  2.1960  0.3194  0.4971
19150TIP3   OH278864   1.656   4.180  11.732 -0.4389 -0.7873  0.0981
19150TIP3    H178865   1.651   4.263  11.684  0.1096 -0.2796  0.9079
19150TIP3    H278866   1.726   4.132  11.688 -1.1887 -1.1160 -0.7904
19151TIP3   OH278867   6.219   4.989   5.096  0.0013 -0.8158  0.3684
19151TIP3    H178868   6.254   5.067   5.139 -0.0251 -0.2462 -0.6213
19151TIP3    H278869   6.177   4.940   5.167  0.7696 -0.3699  1.1592
19152TIP3   OH278870   2.380   1.472   3.709  0.3811 -0.5546 -0.8799
19152TIP3    H178871   2.290   1.495   3.730 -0.0137 -1.8623 -1.0416
19152TIP3    H278872   2.379   1.457   3.614  1.5895  2.8731 -1.5864
19153TIP3   OH278873   3.802   3.292   0.631  0.3361 -0.1295  0.8894
19153TIP3    H178874   3.827   3.233   0.560  1.3656  1.8539 -0.4974
19153TIP3    H278875   3.882   3.303   0.682  0.5249  1.0665  0.3573
19154TIP3   OH278876   6.013   6.741  11.411  0.6014  0.1743 -0.1200
19154TIP3    H178877   5.990   6.649  11.419 -0.3249  0.3402 -0.7376
19154TIP3    H278878   6.062   6.761  11.491 -1.1909 -0.2749  1.1345
19155TIP3   OH278879   0.339   4.829  11.913 -0.2086  0.6603 -0.0161
19155TIP3    H178880   0.321   4.860  12.002 -0.2426  2.2221 -0.5240
19155TIP3    H278881   0.253   4.805  11.878 -0.3001  0.7571  0.1383
19156TIP3   OH278882   0.413   3.345  16.288  0.0858 -0.2076  0.6112
19156TIP3    H178883   0.375   3.346  16.376 -1.2982 -2.7788  0.1661
19156TIP3    H278884   0.343   3.378  16.232  0.4256  0.0215  0.3224
19157TIP3   OH278885   4.180   0.832  16.437  0.0457  0.0089  0.0115
19157TIP3    H178886   4.203   0.853  16.347  1.1430  2.6682  0.8087
19157TIP3    H278887   4.256   0.783  16.470 -1.4629 -3.3537 -1.1497
19158TIP3   OH278888   6.369   0.546  15.819  0.1014  0.3370  0.0553
19158TIP3    H178889   6.459   0.530  15.791  0.6091 -0.7679  2.1360
19158TIP3    H278890   6.332   0.600  15.749  1.4115 -1.6873 -2.3765
19159TIP3   OH278891   6.362   5.406  11.399  0.1896 -0.2793 -0.3824
19159TIP3    H178892   6.318   5.416  11.315  1.3435  1.0533 -0.8448
19159TIP3    H278893   6.399   5.492  11.418  0.8181 -0.8250  0.9990
19160TIP3   OH278894   3.625   3.598   2.111 -0.2887 -0.4346 -0.7751
19160TIP3    H178895   3.686   3.656   2.065 -0.2818  0.5018  0.3789
19160TIP3    H278896   3.680   3.530   2.148 -0.1686 -0.5855 -1.2191
19161TIP3   OH278897   5.737   3.272  10.652  0.5145 -0.9789 -0.3980
19161TIP3    H178898   5.725   3.354  10.603  0.7659 -2.0548 -2.3457
19161TIP3    H278899   5.746   3.300  10.743 -2.1641  0.9547 -0.6174
19162TIP3   OH278900   6.698   0.412   4.089 -0.0228 -0.0320 -0.4096
19162TIP3    H178901   6.719   0.327   4.126 -0.4422  0.8472  2.0124
19162TIP3    H278902   6.781   0.442   4.050  0.8993 -0.3991  1.1761
19163TIP3   OH278903   0.897   2.076  12.410 -0.2026 -0.1709 -0.2607
19163TIP3    H178904   0.987   2.109  12.419 -0.1955 -0.4629  0.8979
19163TIP3    H278905   0.851   2.147  12.364  0.1459  0.8952  0.9541
19164TIP3   OH278906   5.619   2.443  17.232 -0.0582 -0.7395  0.4178
19164TIP3    H178907   5.592   2.502  17.303  0.0697  0.0582 -0.1725
19164TIP3    H278908   5.539   2.431  17.180  0.4452  0.8784 -0.8115
19165TIP3   OH278909   5.848   3.760  15.090  0.4920 -0.0171  0.5749
19165TIP3    H178910   5.826   3.745  15.182  0.1694  2.4111  0.9436
19165TIP3    H278911   5.767   3.792  15.050  1.1341  0.8622 -0.0644
19166TIP3   OH278912   0.997   1.707   1.321 -0.4627 -0.0652  0.1868
19166TIP3    H178913   0.917   1.663   1.291  0.1589 -1.1235  0.0113
19166TIP3    H278914   0.988   1.797   1.292  0.1328 -0.9999 -3.3777
19167TIP3   OH278915   6.564   6.130  16.460 -0.3987  0.1068  0.2923
19167TIP3    H178916   6.547   6.061  16.525  0.7639  0.2556  0.7759
19167TIP3    H278917   6.612   6.197  16.508  0.2494  0.3376 -0.6660
19168TIP3   OH278918   6.096   0.989   3.068  0.7515 -0.1866 -0.5618
19168TIP3    H178919   6.124   0.957   3.154 -1.2804 -0.0218  0.2049
19168TIP3    H278920   6.176   0.989   3.015  2.1974  0.3370  1.5098
19169TIP3   OH278921   5.161   3.880   3.976  0.0501 -0.0365  0.4856
19169TIP3    H178922   5.219   3.819   4.023 -0.6529 -0.6232  0.6119
19169TIP3    H278923   5.207   3.964   3.979  0.5589 -0.3302  1.2071
19170TIP3   OH278924   5.396   5.735   4.212 -0.3585 -0.2610  0.2313
19170TIP3    H178925   5.465   5.700   4.268  0.4537 -0.1500 -0.6730
19170TIP3    H278926   5.418   5.703   4.124 -2.1609 -1.2663  0.0964
19171TIP3   OH278927   5.264   4.630  11.848 -0.0084 -0.2928 -0.3116
19171TIP3    H178928   5.207   4.579  11.791 -1.5994  1.6309 -0.5389
19171TIP3    H278929   5.235   4.720  11.838 -0.4699  0.1847  3.5802
19172TIP3   OH278930   6.622   5.455  13.814 -0.0492 -0.5621  1.0922
19172TIP3    H178931   6.632   5.381  13.875  0.5092 -3.5715 -2.3465
19172TIP3    H278932   6.708   5.496  13.812 -0.0323 -0.4988  2.1107
19173TIP3   OH278933   0.877   0.492   2.661  0.2517 -0.6765 -0.4221
19173TIP3    H178934   0.946   0.543   2.703  1.1544 -2.2898  0.1347
19173TIP3    H278935   0.879   0.521   2.569  0.9379  0.0579 -0.1876
19174TIP3   OH278936   0.770   6.424  11.237 -0.4969 -0.2124 -0.1856
19174TIP3    H178937   0.829   6.371  11.183 -1.7050  0.3463 -2.1663
19174TIP3    H278938   0.703   6.363  11.266  0.2655 -0.5583  0.9328
19175TIP3   OH278939   2.156   3.404  13.678  0.0234 -0.2931  0.1565
19175TIP3    H178940   2.063   3.408  13.702 -0.2774  0.4220 -1.0366
19175TIP3    H278941   2.165   3.468  13.608  0.9738 -1.7972 -1.1632
19176TIP3   OH278942   5.474   1.124  11.594 -0.0417  0.2794 -0.4931
19176TIP3    H178943   5.388   1.088  11.571  0.7657 -0.9795 -1.7123
19176TIP3    H278944   5.533   1.087  11.529  1.6796  0.0041  1.1425
19177TIP3   OH278945   4.609   2.205  14.322  0.2623 -0.2411  0.4346
19177TIP3    H178946   4.701   2.207  14.296 -0.2115  0.2836 -1.3157
19177TIP3    H278947   4.577   2.120  14.293 -0.2302  0.2767 -0.5825
19178TIP3   OH278948   3.647   2.147  16.974  0.1245  0.4621  0.3939
19178TIP3    H178949   3.642   2.147  17.070 -2.4992  1.4739  0.3524
19178TIP3    H278950   3.730   2.188  16.954  0.8742 -0.0567  2.2260
19179TIP3   OH278951   3.210   1.523   5.800 -0.2556  0.2215 -0.3605
19179TIP3    H178952   3.208   1.614   5.829 -0.4692  0.2880 -0.5844
19179TIP3    H278953   3.119   1.500   5.784 -0.5452 -0.8881  2.3418
19180TIP3   OH278954   2.932   0.727   2.103  0.1744 -0.2133 -0.2236
19180TIP3    H178955   2.957   0.793   2.039  1.5200 -1.3268 -0.8894
19180TIP3    H278956   3.011   0.713   2.156 -0.7128  0.1993  1.2596
19181TIP3   OH278957   2.438   2.032  17.089  0.0571  0.1388 -0.0797
19181TIP3    H178958   2.495   2.097  17.130 -1.2191  0.2632  1.5759
19181TIP3    H278959   2.498   1.975  17.041  1.2676  2.1197 -1.0324
19182TIP3   OH278960   3.355   1.318  16.666  0.1936  0.1676  0.0464
19182TIP3    H178961   3.383   1.404  16.697 -1.2645  0.5465  0.4271
19182TIP3    H278962   3.352   1.264  16.745 -1.4275  0.5292  0.2691
19183TIP3   OH278963   2.095   6.406   3.916  0.2045 -0.5068 -0.3820
19183TIP3    H178964   2.022   6.413   3.977 -0.5239 -0.8774 -1.1931
19183TIP3    H278965   2.151   6.481   3.936 -0.4013 -0.2076  0.2259
19184TIP3   OH278966   5.023   6.086  13.931 -0.2140  0.5599 -0.9772
19184TIP3    H178967   5.110   6.060  13.963 -1.2403 -1.8759  0.0985
19184TIP3    H278968   4.964   6.061  14.001 -1.7844  2.8125 -1.3909
19185TIP3   OH278969   6.627   3.915   1.395 -0.0127  0.0434 -0.3415
19185TIP3    H178970   6.716   3.896   1.424  0.1253  1.6302  0.3452
19185TIP3    H278971   6.576   3.920   1.475 -0.8860 -1.4831 -0.7608
19186TIP3   OH278972   3.748   3.068  12.138  0.1742 -0.2506 -0.3939
19186TIP3    H178973   3.665   3.034  12.172 -0.4213 -0.1182 -1.6778
19186TIP3    H278974   3.800   2.989  12.119  0.5539 -0.3261  0.8628
19187TIP3   OH278975   4.459   1.628   0.486  0.4619 -0.1514 -0.3144
19187TIP3    H178976   4.531   1.690   0.494  0.5079 -0.3227  0.7893
19187TIP3    H278977   4.424   1.621   0.575  0.3531 -1.5768 -0.4426
19188TIP3   OH278978   6.662   2.952   0.472 -0.5751  0.0815  0.5415
19188TIP3    H178979   6.576   2.913   0.454  0.3086 -1.4785 -0.5411
19188TIP3    H278980   6.669   2.949   0.568 -1.0290 -1.4247  0.5594
19189TIP3   OH278981   0.388   5.789   1.329  0.4273  0.1065 -0.2179
19189TIP3    H178982   0.386   5.884   1.344 -0.3385 -0.0518  0.8194
19189TIP3    H278983   0.469   5.760   1.371  1.3630  0.4590 -1.7130
19190TIP3   OH278984   3.743   6.267  14.343  0.0172  0.3579  0.3493
19190TIP3    H178985   3.744   6.187  14.290  2.0957  1.2906 -1.1839
19190TIP3    H278986   3.835   6.293  14.348 -0.6526  3.0628  0.1050
19191TIP3   OH278987   0.188   4.877   4.698  0.0787 -0.2448 -0.1251
19191TIP3    H178988   0.144   4.863   4.781 -0.8728  3.3285  0.1171
19191TIP3    H278989   0.129   4.932   4.647  1.8903  0.1277 -2.0038
19192TIP3   OH278990   4.287   6.178  16.268  0.3429 -0.6893  0.2784
19192TIP3    H178991   4.286   6.089  16.234 -1.7499 -0.6252  0.0578
19192TIP3    H278992   4.213   6.182  16.329  0.7698  0.7284  0.7665
19193TIP3   OH278993   0.301   2.977  12.454 -0.7845  0.3571  0.2093
19193TIP3    H178994   0.289   3.052  12.512 -0.3154  1.1795 -0.7395
19193TIP3    H278995   0.231   2.985  12.390 -1.4031 -0.6414  0.7183
19194TIP3   OH278996   0.462   6.236  15.461 -0.3454 -0.0266  0.3356
19194TIP3    H178997   0.455   6.331  15.459 -1.0769 -0.0844 -0.7139
19194TIP3    H278998   0.371   6.205  15.456 -0.0344 -0.7857 -1.3846
19195TIP3   OH278999   6.500   5.711   0.561  0.0659  0.0353 -0.0815
19195TIP3    H179000   6.447   5.699   0.640  1.0593 -0.8046  0.4760
19195TIP3    H279001   6.587   5.733   0.593  0.4709 -0.2755 -0.9464
19196TIP3   OH279002   3.433   6.464  12.883  0.2648 -0.3444  0.7205
19196TIP3    H179003   3.408   6.476  12.975 -1.2699  0.0440  0.2831
19196TIP3    H279004   3.370   6.518  12.835  0.8756 -0.7753 -0.5814
19197TIP3   OH279005   5.863   4.364   1.823  0.0776 -0.2174 -0.1824
19197TIP3    H179006   5.771   4.337   1.827 -0.7832  2.5940  1.8474
19197TIP3    H279007   5.861   4.458   1.840  3.3299  0.0340 -0.6149
19198TIP3   OH279008   3.691   2.771   6.792  0.2033  0.3287  0.2143
19198TIP3    H179009   3.618   2.826   6.820 -0.6224 -0.3974 -0.4891
19198TIP3    H279010   3.661   2.681   6.806  1.7014 -0.0033  1.7773
19199TIP3   OH279011   6.153   0.491  16.568 -0.3886 -0.0068  0.3493
19199TIP3    H179012   6.114   0.420  16.516 -0.4154  1.2152 -1.3849
19199TIP3    H279013   6.081   0.552  16.581  0.1007  0.6355  0.0896
19200TIP3   OH279014   4.180   0.964   3.214  0.1210 -0.0132  0.1019
19200TIP3    H179015   4.218   1.033   3.160 -1.2915  0.5066 -0.2624
19200TIP3    H279016   4.197   0.992   3.304  0.2042  0.4200 -0.0470
19201TIP3   OH279017   2.429   1.301  12.108 -0.1852 -0.1076  0.0316
19201TIP3    H179018   2.399   1.363  12.041 -1.3623  1.0005  1.5207
19201TIP3    H279019   2.504   1.258  12.068 -1.1688  0.1237 -2.2006
19202TIP3   OH279020   0.351   1.567  16.900 -0.5142 -0.0930  0.1720
19202TIP3    H179021   0.385   1.506  16.964 -0.0857 -0.9361 -0.8231
19202TIP3    H279022   0.291   1.623  16.949  0.3549 -0.2415  1.4265
19203TIP3   OH279023   0.367   6.698   2.605  0.4652 -0.0765  0.1376
19203TIP3    H179024   0.343   6.761   2.537 -2.1409 -1.5874 -0.5046
19203TIP3    H279025   0.432   6.641   2.564  0.2286  0.1036 -0.4970
19204TIP3   OH279026   2.459   5.493   3.232 -0.3709 -0.1540 -0.2651
19204TIP3    H179027   2.535   5.536   3.193 -0.5733 -0.6002 -1.1542
19204TIP3    H279028   2.402   5.473   3.158 -0.2544 -2.0188  0.1241
19205TIP3   OH279029   0.059   1.961  14.989  0.0526 -0.3110  0.1074
19205TIP3    H179030  -0.029   1.927  15.003  0.6409 -2.4118 -0.9198
19205TIP3    H279031   0.066   2.035  15.049 -2.5769  0.2585 -0.1476
19206TIP3   OH279032   3.885   1.290   0.392  0.3447  0.5716  0.3363
19206TIP3    H179033   3.849   1.317   0.308  1.0190  1.8106  0.4340
19206TIP3    H279034   3.863   1.362   0.452  1.3167  0.4716  0.8344
19207TIP3   OH279035   0.398   4.689  15.911 -0.0434  0.1502  0.9517
19207TIP3    H179036   0.479   4.728  15.878  0.8543 -1.5885  0.9676
19207TIP3    H279037   0.330   4.754  15.892  1.1249  1.0300 -0.3917
19208TIP3   OH279038   3.776   2.985  13.660 -0.2266 -0.3268  0.0842
19208TIP3    H179039   3.719   3.057  13.634 -2.8493 -2.0972  0.4922
19208TIP3    H279040   3.729   2.941  13.731  2.0117 -1.5430  0.9347
19209TIP3   OH279041   2.270   4.756  11.931 -0.0336  0.3786 -0.0183
19209TIP3    H179042   2.303   4.668  11.949  1.2497  1.1039  1.3688
19209TIP3    H279043   2.263   4.798  12.017 -2.1587  1.1421 -0.4922
19210TIP3   OH279044   1.675   6.009   6.168  0.7828 -0.2842  0.0384
19210TIP3    H179045   1.750   6.023   6.109  0.1764 -0.3195 -0.7568
19210TIP3    H279046   1.640   5.924   6.143  0.5027 -0.2895  0.4445
19211TIP3   OH279047   3.739   6.530   3.789  0.9928 -0.3097 -0.0933
19211TIP3    H179048   3.759   6.624   3.784  0.3744 -0.1611  0.1468
19211TIP3    H279049   3.821   6.487   3.765  1.6576  0.2795  1.0289
19212TIP3   OH279050   6.159   4.883   2.551 -0.2557  0.0039 -0.0425
19212TIP3    H179051   6.113   4.805   2.580 -2.3777  0.8852 -0.8139
19212TIP3    H279052   6.092   4.951   2.550  0.9928  1.2958 -1.5846
19213TIP3   OH279053   2.390   6.743  14.329  0.1587 -0.5030  0.1345
19213TIP3    H179054   2.410   6.684  14.256 -2.5433 -1.3410 -0.0539
19213TIP3    H279055   2.338   6.690  14.389 -0.0087  0.9444  1.3258
19214TIP3   OH279056   2.807   6.467   2.317 -0.4777  0.4866  0.1069
19214TIP3    H179057   2.758   6.437   2.394  0.9170 -2.1873  0.0751
19214TIP3    H279058   2.868   6.532   2.351 -2.0041  1.6781  0.6576
19215TIP3   OH279059   2.639   3.688  14.745  0.0256  0.0837  0.3782
19215TIP3    H179060   2.630   3.771  14.791  2.0283  0.9484 -0.6667
19215TIP3    H279061   2.561   3.682  14.689  0.3861  1.8324 -0.3648
19216TIP3   OH279062   1.200   1.862   4.100 -0.9584 -0.0459  0.0532
19216TIP3    H179063   1.143   1.926   4.058 -1.5114 -0.0054  0.8509
19216TIP3    H279064   1.194   1.881   4.193 -0.4878 -0.7379  0.2353
19217TIP3   OH279065   5.078   2.229  16.744 -0.2161  0.4633  0.0331
19217TIP3    H179066   5.042   2.184  16.668  0.7908  1.2749 -0.9527
19217TIP3    H279067   5.001   2.254  16.795 -1.1841  2.6937 -2.3049
19218TIP3   OH279068   1.444   0.090  16.037 -0.6783  0.1019  1.2406
19218TIP3    H179069   1.493   0.034  16.097 -0.1543  1.8151  2.4729
19218TIP3    H279070   1.397   0.151  16.094 -0.2193  1.7444 -0.0753
19219TIP3   OH279071   0.283   2.246  10.837 -0.0631  0.4051  0.2988
19219TIP3    H179072   0.207   2.261  10.782 -0.6350  2.7304  1.5809
19219TIP3    H279073   0.343   2.318  10.816  1.0752 -0.4458  0.5058
19220TIP3   OH279074   1.280   1.315  13.699 -0.3915  0.0198  0.0500
19220TIP3    H179075   1.341   1.285  13.767 -0.5988  1.0289  0.7101
19220TIP3    H279076   1.334   1.321  13.620  0.7175  1.9722  0.8571
19221TIP3   OH279077   5.746   6.262  14.550  0.2723  0.0434 -0.3221
19221TIP3    H179078   5.692   6.229  14.478 -0.1745 -0.6908  0.3297
19221TIP3    H279079   5.797   6.186  14.578 -0.0368  0.1455  0.5576
19222TIP3   OH279080   0.712   4.896  15.456  0.0918 -0.2961 -0.0506
19222TIP3    H179081   0.710   4.926  15.365 -2.2446  2.1417  0.6744
19222TIP3    H279082   0.640   4.834  15.462 -1.0646  1.0534  0.5248
19223TIP3   OH279083   0.761   0.363  13.023  0.4574  0.5138 -0.0854
19223TIP3    H179084   0.760   0.422  13.099  1.4216  0.2053  0.1898
19223TIP3    H279085   0.766   0.422  12.947  2.0163  0.8245  0.2060
19224TIP3   OH279086   5.347   6.234   3.342 -0.7637 -0.3279 -0.0524
19224TIP3    H179087   5.271   6.251   3.286 -0.3331 -0.1634 -0.5967
19224TIP3    H279088   5.416   6.291   3.308  0.1029 -1.6457 -0.6166
19225TIP3   OH279089   3.875   0.953   1.939  0.3019 -0.5141  0.5386
19225TIP3    H179090   3.890   0.959   2.033 -2.4938  0.2929  1.0208
19225TIP3    H279091   3.823   0.874   1.928 -0.4250  0.0523 -0.1710
19226TIP3   OH279092   4.100   6.053  16.910 -0.2184 -0.3769  0.3949
19226TIP3    H179093   4.178   5.999  16.923 -0.2241 -0.3143  0.6832
19226TIP3    H279094   4.034   6.012  16.966  0.4019  1.2874  2.4564
19227TIP3   OH279095   0.101   3.831   6.928 -0.3335 -0.0276  0.0545
19227TIP3    H179096   0.174   3.850   6.988  0.8081 -0.7886 -1.0295
19227TIP3    H279097   0.031   3.800   6.985  0.7685 -0.8818  1.0165
19228TIP3   OH279098   5.430   1.211   5.916 -0.0682 -0.3933 -0.4772
19228TIP3    H179099   5.524   1.224   5.932  0.8671 -0.4691 -4.7530
19228TIP3    H279100   5.404   1.146   5.982  2.9267 -0.6408  0.6667
19229TIP3   OH279101   6.081   1.589  17.275 -0.0098 -0.6495  0.1048
19229TIP3    H179102   6.061   1.680  17.295 -0.2554 -0.6294 -0.2222
19229TIP3    H279103   6.176   1.582  17.286  0.0466 -0.2891 -0.1214
19230TIP3   OH279104   4.045   0.738   3.807  0.2087  0.4645  0.0279
19230TIP3    H179105   4.098   0.808   3.768  0.8351 -0.1182 -0.1925
19230TIP3    H279106   4.011   0.776   3.888  2.4130  0.3106  1.1065
19231TIP3   OH279107   1.684   4.010  13.873  0.1725  0.0860 -0.4444
19231TIP3    H179108   1.753   4.070  13.902  0.0231 -0.5097  1.3189
19231TIP3    H279109   1.707   3.988  13.783  1.2052  1.4007 -0.5335
19232TIP3   OH279110   3.354   4.173  16.920 -0.0694  0.4282 -0.0032
19232TIP3    H179111   3.285   4.234  16.895  0.1679  0.6238 -0.1819
19232TIP3    H279112   3.394   4.146  16.837  0.8982  1.2851  0.1719
19233TIP3   OH279113   4.814   1.966  13.364  0.3248  0.1553  0.0493
19233TIP3    H179114   4.758   1.966  13.287  0.3940  1.1910 -0.0151
19233TIP3    H279115   4.753   1.976  13.438  0.3837  0.9316  0.0020
19234TIP3   OH279116   1.109   1.314  16.286 -0.1134 -0.1894 -0.0739
19234TIP3    H179117   1.052   1.323  16.210 -0.0228  0.2646 -0.0915
19234TIP3    H279118   1.173   1.248  16.261 -1.1255 -1.3368  0.2510
19235TIP3   OH279119   2.612   5.625   3.586  0.9627  0.2386  0.2525
19235TIP3    H179120   2.696   5.638   3.543  0.1343  0.1967 -1.4704
19235TIP3    H279121   2.599   5.530   3.585 -0.0843  0.3689 -1.5340
19236TIP3   OH279122   4.529   4.199  17.251 -0.7602  0.0516 -0.4582
19236TIP3    H179123   4.594   4.174  17.185 -1.2122 -0.9069 -0.5590
19236TIP3    H279124   4.580   4.237  17.322 -0.0713 -0.7157 -0.5233
19237TIP3   OH279125   5.607   0.507  16.692 -0.2630 -0.3348 -0.1161
19237TIP3    H179126   5.695   0.478  16.669 -0.1391  1.0326 -1.5313
19237TIP3    H279127   5.552   0.477  16.619 -0.3000  1.9685 -1.1135
19238TIP3   OH279128   2.871   3.700   0.386 -0.4754  0.1853 -1.0522
19238TIP3    H179129   2.776   3.686   0.392 -0.2850 -1.1576 -0.8619
19238TIP3    H279130   2.909   3.617   0.416  0.8050  1.3824  0.8317
19239TIP3   OH279131   1.750   5.098  15.342 -0.3800 -0.1624 -0.0364
19239TIP3    H179132   1.843   5.085  15.361 -0.0835 -0.0545 -1.3128
19239TIP3    H279133   1.736   5.192  15.355  0.5775  0.5371 -3.1846
19240TIP3   OH279134   3.643   6.643   5.728  0.3596 -0.4585  0.1689
19240TIP3    H179135   3.668   6.595   5.649  1.1049  1.2586 -0.6971
19240TIP3    H279136   3.563   6.689   5.703  0.5954  0.0846  0.4162
19241TIP3   OH279137   3.343   6.539  13.146  0.2075 -0.2966 -0.3894
19241TIP3    H179138   3.260   6.588  13.150  0.4875  0.1694 -0.1498
19241TIP3    H279139   3.336   6.475  13.216  0.2853  0.1318  0.0182
19242TIP3   OH279140   3.018   3.424   0.208  0.4261  0.0877 -0.8438
19242TIP3    H179141   3.010   3.352   0.270  2.4065  0.2478 -0.3474
19242TIP3    H279142   2.928   3.444   0.183 -0.2941 -1.1778  0.5854
19243TIP3   OH279143   4.977   3.084  11.758 -0.5208 -0.0366 -0.5088
19243TIP3    H179144   4.903   3.025  11.747  0.0841 -0.4921 -2.5275
19243TIP3    H279145   5.051   3.027  11.778 -0.2566  0.1666 -0.8734
19244TIP3   OH279146   3.131   6.355  14.601 -0.3302  0.1479 -0.2303
19244TIP3    H179147   3.082   6.429  14.565  0.3290  0.0683 -1.3685
19244TIP3    H279148   3.070   6.281  14.595  0.5404 -0.5110 -3.9156
19245TIP3   OH279149   5.056   5.979  13.124 -0.1932  0.1413 -0.5855
19245TIP3    H179150   5.092   5.924  13.193  1.6401 -0.3704 -1.8961
19245TIP3    H279151   4.962   5.958  13.124 -0.1692 -0.1906  1.3843
19246TIP3   OH279152   0.846   6.202  16.985  0.0806  0.3102 -0.1568
19246TIP3    H179153   0.889   6.218  16.901  0.0256  0.4014 -0.1674
19246TIP3    H279154   0.765   6.156  16.963  0.1031  0.2674 -0.1480
19247TIP3   OH279155   1.282   1.462  10.660 -0.1928  0.2229  0.0472
19247TIP3    H179156   1.291   1.509  10.743  2.0664  1.2327 -0.7089
19247TIP3    H279157   1.236   1.523  10.603 -0.4345  0.0956  0.1019
19248TIP3   OH279158   5.891   3.302  13.204  0.1377 -0.4616  0.0670
19248TIP3    H179159   5.810   3.274  13.247 -0.6472 -0.4247 -1.3237
19248TIP3    H279160   5.897   3.244  13.127  0.7107  0.4268 -0.5647
19249TIP3   OH279161   4.307   2.691  15.388  0.0988  0.6764 -0.4412
19249TIP3    H179162   4.258   2.698  15.306 -0.2747  0.8549 -0.2015
19249TIP3    H279163   4.390   2.735  15.369 -0.5431  1.9901 -0.2896
19250TIP3   OH279164   4.858   5.301   1.167 -0.3022 -0.0200  0.0822
19250TIP3    H179165   4.832   5.374   1.224  1.4726 -1.0321  2.3452
19250TIP3    H279166   4.775   5.265   1.135 -1.3948  0.7673  1.8373
19251TIP3   OH279167   3.402   4.851   6.057  0.3161  0.1547  0.2358
19251TIP3    H179168   3.335   4.896   6.006  1.0621  0.0207 -0.8842
19251TIP3    H279169   3.470   4.917   6.069 -0.1349  0.4071  1.6898
19252TIP3   OH279170   4.298   6.699  13.152 -0.0391 -0.4082 -0.5657
19252TIP3    H179171   4.235   6.695  13.080  1.2540  0.6404 -1.8153
19252TIP3    H279172   4.312   6.792  13.167 -0.2025 -0.6048  1.0127
19253TIP3   OH279173   2.721   6.551   1.173  0.0198 -0.2059 -0.4768
19253TIP3    H179174   2.626   6.538   1.180  0.1612 -0.5614  1.0539
19253TIP3    H279175   2.736   6.639   1.206  0.3529 -0.6406  0.5656
19254TIP3   OH279176   5.267   3.510  14.712  0.5800  0.2075 -0.4317
19254TIP3    H179177   5.172   3.497  14.722  0.5757  0.2001 -0.4857
19254TIP3    H279178   5.282   3.507  14.617  0.5622  0.7126 -0.4564
19255TIP3   OH279179   1.337   0.652   5.785 -0.1507  0.0923  0.1490
19255TIP3    H179180   1.427   0.657   5.818  0.1183 -0.1774 -0.5313
19255TIP3    H279181   1.329   0.728   5.726  0.0583 -0.6115 -0.8054
19256TIP3   OH279182   3.187   6.765  16.356 -0.3842 -0.9921  0.3338
19256TIP3    H179183   3.135   6.736  16.431  0.5755 -0.2052  1.3219
19256TIP3    H279184   3.277   6.739  16.378 -0.1605 -1.2089 -0.7837
19257TIP3   OH279185   2.396   4.962   1.628  0.2709  0.3658  0.2799
19257TIP3    H179186   2.456   5.015   1.681 -0.3338  0.6040  0.7386
19257TIP3    H279187   2.452   4.918   1.565  0.7522  1.8980 -0.4023
19258TIP3   OH279188   2.739   5.434   2.090  0.4608  0.2139 -0.0228
19258TIP3    H179189   2.700   5.516   2.059 -0.1724 -0.9352 -2.5329
19258TIP3    H279190   2.667   5.388   2.133  0.8503  0.9603  1.5135
19259TIP3   OH279191   5.521   3.190  12.359  0.3867  0.2368  0.8945
19259TIP3    H179192   5.585   3.223  12.295 -0.8440  0.5663 -0.2178
19259TIP3    H279193   5.531   3.095  12.355 -1.6584 -0.0013 -2.0974
19260TIP3   OH279194   3.095   4.299  17.131  0.0402  0.1528 -0.1400
19260TIP3    H179195   3.095   4.295  17.035  0.3680  0.0415 -0.1366
19260TIP3    H279196   3.047   4.221  17.158  3.4018 -2.1140 -0.1333
19261TIP3   OH279197   5.908   5.197   1.348  0.2755 -0.3432 -0.0011
19261TIP3    H179198   5.916   5.279   1.299 -1.0121  1.0543  1.9245
19261TIP3    H279199   5.976   5.203   1.416  0.1685 -0.8624  0.1552
19262TIP3   OH279200   5.070   1.200  12.640 -0.9271  0.3095  0.8657
19262TIP3    H179201   5.016   1.206  12.718 -1.5535  2.1086  0.3396
19262TIP3    H279202   5.160   1.198  12.673 -1.1960  0.6498  1.6406
19263TIP3   OH279203   5.169   1.719   1.807  0.2802  0.1660 -0.6448
19263TIP3    H179204   5.179   1.666   1.886  1.3765 -0.0310 -0.8888
19263TIP3    H279205   5.159   1.655   1.737 -1.0696  0.3451 -0.6403
19264TIP3   OH279206   5.009   0.316   3.367 -0.2069 -0.5228 -0.1792
19264TIP3    H179207   5.038   0.373   3.438  0.1474 -0.3632 -0.4466
19264TIP3    H279208   4.962   0.374   3.307  0.6122 -0.3916 -0.7184
19265TIP3   OH279209   5.410   0.773  14.704  0.0106  0.1846  0.3157
19265TIP3    H179210   5.319   0.794  14.684  0.0097 -0.5219 -0.4802
19265TIP3    H279211   5.461   0.840  14.660 -0.0898  0.0216 -0.0504
19266TIP3   OH279212   2.689   4.947  16.300 -0.7017  0.0340 -0.5041
19266TIP3    H179213   2.712   4.970  16.390  1.1072 -2.5615 -0.1767
19266TIP3    H279214   2.755   4.991  16.247 -0.3992 -0.2202 -0.3425
19267TIP3   OH279215   2.892   4.154   2.768 -0.6352  0.1521 -0.3793
19267TIP3    H179216   2.920   4.063   2.756  0.1834  0.1330  1.3052
19267TIP3    H279217   2.797   4.150   2.773 -0.6249 -0.5615 -0.7133
19268TIP3   OH279218   4.549   6.653   2.964  0.2386  0.2497  0.5899
19268TIP3    H179219   4.633   6.675   3.004  0.3790  1.5489 -0.3439
19268TIP3    H279220   4.561   6.669   2.870 -0.2247 -2.2725  0.0358
19269TIP3   OH279221   3.203   6.508   4.088 -0.2031  0.0256 -0.4260
19269TIP3    H179222   3.182   6.600   4.104  0.0519  0.0668 -0.3104
19269TIP3    H279223   3.122   6.469   4.058 -0.9982 -0.2893  1.8921
19270TIP3   OH279224   2.275   4.344  14.825  0.2740  0.3680 -0.3138
19270TIP3    H179225   2.214   4.284  14.869  2.1048 -1.4417 -0.0917
19270TIP3    H279226   2.263   4.324  14.732  2.1553 -1.8068 -0.1819
19271TIP3   OH279227   6.463   6.155   4.470  0.5494 -0.1736 -0.3136
19271TIP3    H179228   6.503   6.069   4.480  0.8051 -0.0440 -0.1787
19271TIP3    H279229   6.514   6.212   4.528 -0.4760 -0.1989  0.6384
19272TIP3   OH279230   0.445   5.875   1.793 -0.2230 -0.4453 -0.3421
19272TIP3    H179231   0.470   5.818   1.866 -0.3043 -0.1942 -0.1188
19272TIP3    H279232   0.351   5.862   1.783 -0.2584 -0.2744 -0.2275
19273TIP3   OH279233   4.410   4.122   5.704 -0.2720  0.6370 -0.0958
19273TIP3    H179234   4.330   4.174   5.718  0.2547  1.5662 -0.4348
19273TIP3    H279235   4.475   4.186   5.676  0.0567 -0.3866 -1.8397
19274TIP3   OH279236   0.555   2.417   1.510 -0.4697  0.1853  0.0644
19274TIP3    H179237   0.508   2.348   1.465 -0.1315  0.2203 -0.3498
19274TIP3    H279238   0.525   2.411   1.601 -0.4888 -0.4634  0.0221
19275TIP3   OH279239   3.937   0.360   5.857 -0.0456  0.3441 -0.4990
19275TIP3    H179240   4.022   0.374   5.899  0.0772  0.5155 -0.8027
19275TIP3    H279241   3.958   0.336   5.767 -0.2021 -2.4955  0.1072
19276TIP3   OH279242   0.599   6.373   1.740 -0.3281 -0.1276  0.0936
19276TIP3    H179243   0.521   6.327   1.773  0.0259 -1.5731 -1.0013
19276TIP3    H279244   0.594   6.364   1.645  1.4024 -0.6499  0.0213
19277TIP3   OH279245   4.454   3.351  15.052  0.0266  0.0366 -0.2350
19277TIP3    H179246   4.474   3.338  14.959  1.7280 -1.8838  0.3356
19277TIP3    H279247   4.421   3.267  15.082  0.2432  0.4073  1.1017
19278TIP3   OH279248   1.562   3.558   6.186  0.8246  0.1358  0.0066
19278TIP3    H179249   1.547   3.465   6.172  1.5345  0.1396 -0.8474
19278TIP3    H279250   1.542   3.572   6.278 -0.0775 -0.6971 -0.0457
19279TIP3   OH279251   2.720   0.949   3.972  0.3532 -0.0594 -1.0554
19279TIP3    H179252   2.635   0.956   3.928 -0.5484 -1.1206  0.4387
19279TIP3    H279253   2.748   0.859   3.956  1.1169  0.2356 -1.3936
19280TIP3   OH279254   3.358   4.384  14.525 -0.4569 -0.4318 -0.0626
19280TIP3    H179255   3.437   4.380  14.579 -0.5281  0.6240  0.1530
19280TIP3    H279256   3.381   4.447  14.456 -1.0145 -0.3218 -0.1505
19281TIP3   OH279257   2.168   3.926  13.582  0.4311 -0.3986  0.3445
19281TIP3    H179258   2.118   4.008  13.572 -0.3672 -0.7953  0.9696
19281TIP3    H279259   2.135   3.870  13.511  2.9342  0.7078 -1.8886
19282TIP3   OH279260   2.537   6.392  14.398 -0.4236  0.2046 -0.8389
19282TIP3    H179261   2.628   6.416  14.377 -0.2830  0.5406  0.1338
19282TIP3    H279262   2.516   6.324  14.334  1.5890 -2.2115  0.8552
19283TIP3   OH279263   6.653   4.875   3.532 -0.1990 -0.7064  0.1054
19283TIP3    H179264   6.724   4.924   3.491 -0.4900 -0.0004  0.4417
19283TIP3    H279265   6.648   4.793   3.481  1.6541 -1.3179  0.8439
19284TIP3   OH279266   5.159   3.247   2.161 -0.1521 -0.1316  0.4457
19284TIP3    H179267   5.245   3.215   2.186  0.5605  1.1787 -0.1991
19284TIP3    H279268   5.129   3.298   2.236  0.9256  1.7766 -0.3319
19285TIP3   OH279269   4.793   3.886   4.169 -0.0798 -0.5835 -0.6283
19285TIP3    H179270   4.781   3.832   4.091  0.1933  0.7865 -1.6519
19285TIP3    H279271   4.842   3.830   4.229 -0.4547 -1.7286 -1.3520
19286TIP3   OH279272   6.122   1.011  14.548  0.1219 -0.4860 -0.2875
19286TIP3    H179273   6.129   0.975  14.460 -0.8174 -1.0393 -0.1498
19286TIP3    H279274   6.158   0.943  14.605 -1.3145 -1.0739 -0.0599
19287TIP3   OH279275   2.981   4.799  11.326 -0.1403  0.1754 -0.5217
19287TIP3    H179276   3.043   4.781  11.254 -1.5822 -2.3059 -1.2587
19287TIP3    H279277   2.911   4.849  11.284  1.1932  2.9264  0.2998
19288TIP3   OH279278   1.072   0.173   6.312  0.3212  0.1797 -0.0181
19288TIP3    H179279   1.020   0.241   6.356  0.4923  1.5816 -1.8332
19288TIP3    H279280   1.154   0.217   6.289  0.5794 -0.7382 -0.9468
19289TIP3   OH279281   1.922   6.177  11.187  0.4117  0.6077  0.5299
19289TIP3    H179282   1.851   6.195  11.125  0.9149 -1.0009 -0.5626
19289TIP3    H279283   1.937   6.260  11.231 -1.5687  1.2007  0.1758
19290TIP3   OH279284   4.145   3.678  14.614  0.1758  0.3240  0.3684
19290TIP3    H179285   4.164   3.600  14.561  1.8716 -0.1619  1.6144
19290TIP3    H279286   4.177   3.751  14.562 -1.8196  0.2916 -1.0051
19291TIP3   OH279287   0.316   6.330  16.122  0.2236 -0.6315  0.1928
19291TIP3    H179288   0.334   6.406  16.067 -1.0199  0.3722  1.1127
19291TIP3    H279289   0.401   6.306  16.158  0.9216 -0.7729 -1.4277
19292TIP3   OH279290   5.154   0.977  15.197  0.1153  0.0906 -0.5849
19292TIP3    H179291   5.139   0.899  15.251  4.0355 -0.6434 -0.2770
19292TIP3    H279292   5.121   0.953  15.110  2.1425 -2.4259 -0.7696
19293TIP3   OH279293   6.384   1.147  16.972  0.5065  0.0712 -0.3886
19293TIP3    H179294   6.456   1.195  16.929 -0.0175  0.1389 -1.2123
19293TIP3    H279295   6.387   1.177  17.063  2.5172 -1.1032 -0.0024
19294TIP3   OH279296   4.640   3.363   3.278 -0.4652 -0.4406 -0.1517
19294TIP3    H179297   4.559   3.376   3.327  0.2285  0.1369  0.8780
19294TIP3    H279298   4.675   3.452   3.265  0.3328 -0.7199  0.0086
19295TIP3   OH279299   6.469   3.256   0.280 -0.1907 -0.4234 -0.2392
19295TIP3    H179300   6.374   3.268   0.288 -0.0202  0.7884  0.2972
19295TIP3    H279301   6.498   3.335   0.233  0.1803 -2.2943 -3.4199
19296TIP3   OH279302   6.302   3.867   3.315 -0.3160 -0.0726  0.4809
19296TIP3    H179303   6.292   3.960   3.333  0.9744  0.4575 -1.3018
19296TIP3    H279304   6.249   3.852   3.237 -0.2054 -0.7478  0.5283
19297TIP3   OH279305   1.410   1.387  16.385 -0.3093  0.0934  0.6716
19297TIP3    H179306   1.338   1.418  16.440 -0.9627  2.5281 -1.3471
19297TIP3    H279307   1.400   1.292  16.384 -1.8392  0.1625  2.5804
19298TIP3   OH279308   3.997   4.569   6.762 -0.1601 -0.0294  0.3879
19298TIP3    H179309   4.055   4.645   6.762 -0.4124  0.1610  0.2605
19298TIP3    H279310   4.021   4.520   6.841  1.6203 -1.0441 -0.7101
19299TIP3   OH279311   3.359   4.583   1.960 -0.0957  0.4377 -0.3265
19299TIP3    H179312   3.403   4.620   2.037 -0.4161  0.0728  0.0306
19299TIP3    H279313   3.303   4.654   1.929 -0.6692  0.2731  0.3280
19300TIP3   OH279314   6.146   6.672   1.811  0.2029  0.1965  0.3914
19300TIP3    H179315   6.141   6.601   1.876 -1.2096 -0.9398 -0.8970
19300TIP3    H279316   6.091   6.643   1.739  1.3535  1.6455 -1.1439
19301TIP3   OH279317   0.621   6.205  15.924  0.1102  0.0449 -0.1271
19301TIP3    H179318   0.580   6.141  15.983  1.6079 -0.4650  0.3998
19301TIP3    H279319   0.648   6.154  15.848  0.1023  0.3177 -0.3157
19302TIP3   OH279320   0.725   4.174  14.476 -0.1423 -0.1320 -0.1300
19302TIP3    H179321   0.745   4.263  14.505 -0.7315 -0.1036  0.2092
19302TIP3    H279322   0.792   4.120  14.516  0.5320  0.2190 -0.7613
19303TIP3   OH279323   4.823   6.483  17.281 -0.1862  0.2012 -0.3002
19303TIP3    H179324   4.812   6.562  17.228  0.2110  0.7066  0.3566
19303TIP3    H279325   4.817   6.411  17.218 -0.0486  0.7706 -0.9809
19304TIP3   OH279326   2.706   5.803  11.607 -0.5692  0.1193 -0.7562
19304TIP3    H179327   2.797   5.833  11.600 -0.6375  0.2985 -0.8748
19304TIP3    H279328   2.713   5.713  11.640 -0.3771  0.4468  0.1305
19305TIP3   OH279329   0.519   0.248  11.434 -0.3524  0.0261 -0.8016
19305TIP3    H179330   0.493   0.188  11.364 -1.5627 -1.6510  0.9737
19305TIP3    H279331   0.439   0.297  11.455 -0.1708  0.0793 -0.2028
19306TIP3   OH279332   1.953   0.849  16.311  0.1539 -0.1595 -0.1627
19306TIP3    H179333   2.029   0.792  16.326  0.4179  0.5772  1.4589
19306TIP3    H279334   1.907   0.808  16.238  0.1536 -2.6401  1.1357
19307TIP3   OH279335   6.536   2.223  11.737  0.1710 -0.5977  0.5065
19307TIP3    H179336   6.603   2.256  11.678 -2.6880 -0.3179 -2.9228
19307TIP3    H279337   6.528   2.130  11.714  0.4729 -1.0242  2.0506
19308TIP3   OH279338   1.851   2.324   4.746  0.3385  0.7004  0.2943
19308TIP3    H179339   1.852   2.344   4.840 -1.9458 -1.9931  1.0538
19308TIP3    H279340   1.852   2.229   4.742 -0.5733  0.7173 -2.3845
19309TIP3   OH279341   4.278   1.854   4.172  0.3184 -0.4267  0.0754
19309TIP3    H179342   4.271   1.950   4.180  1.4159 -0.1429 -1.8589
19309TIP3    H279343   4.187   1.825   4.164  0.0119  0.5621 -0.2163
19310TIP3   OH279344   1.677   0.120   0.133 -0.2991  0.0631 -0.1141
19310TIP3    H179345   1.632   0.058   0.076 -0.3143  0.3622 -0.4306
19310TIP3    H279346   1.685   0.074   0.217 -3.1382  0.7825  0.6368
19311TIP3   OH279347   4.079   1.101   0.323 -0.2573 -0.0653 -0.0872
19311TIP3    H179348   4.033   1.182   0.345 -1.2422 -1.0680  1.7744
19311TIP3    H279349   4.102   1.111   0.231 -1.4731  1.7894 -0.2482
19312TIP3   OH279350   0.311   6.769   2.994  0.3990 -0.2399  0.1135
19312TIP3    H179351   0.324   6.694   3.051 -0.3094 -2.5054 -2.5121
19312TIP3    H279352   0.227   6.754   2.952  0.9512  1.2285 -1.6442
19313TIP3   OH279353   0.197   5.847   0.545 -0.1305  0.1133 -0.2456
19313TIP3    H179354   0.245   5.848   0.628  0.2505  0.7906 -0.4737
19313TIP3    H279355   0.126   5.910   0.558  0.1442  0.4882 -0.5624
19314TIP3   OH279356   1.305   1.582   0.676 -0.2711  0.3807 -0.8223
19314TIP3    H179357   1.351   1.629   0.605 -0.2067  0.0681 -0.9919
19314TIP3    H279358   1.299   1.492   0.644  0.2083  0.1240 -0.2140
19315TIP3   OH279359   4.551   1.566  11.903 -0.2370 -0.2188 -0.0602
19315TIP3    H179360   4.504   1.538  11.825  1.2093 -0.3359 -0.9184
19315TIP3    H279361   4.584   1.653  11.883 -0.5120  0.0836  0.7325
19316TIP3   OH279362   2.404   5.288   1.593 -0.2885  0.0852  0.6986
19316TIP3    H179363   2.378   5.228   1.523  1.8346  0.4387 -0.4756
19316TIP3    H279364   2.499   5.280   1.597 -0.2246  1.2363  2.5185
19317TIP3   OH279365   4.680   1.776   0.552  0.3731 -0.3181 -0.2176
19317TIP3    H179366   4.746   1.733   0.607  0.8664 -0.8557 -1.2007
19317TIP3    H279367   4.731   1.824   0.487 -0.2058  0.1189 -0.3524
19318TIP3   OH279368   4.578   4.575  14.301 -0.7051  0.0087 -0.2320
19318TIP3    H179369   4.554   4.584  14.209  0.0963  0.1622 -0.4340
19318TIP3    H279370   4.632   4.652  14.320  0.9154 -1.0764 -0.2352
19319TIP3   OH279371   4.955   2.276  13.986  0.6667 -0.4548 -0.4343
19319TIP3    H179372   4.879   2.248  13.936 -0.1508  1.0865 -0.1232
19319TIP3    H279373   5.017   2.203  13.980 -1.3873 -2.3750  0.5456
19320TIP3   OH279374   0.262   5.603   4.349 -0.1118 -0.0864 -0.4949
19320TIP3    H179375   0.332   5.555   4.393 -1.0809 -2.7610 -1.6121
19320TIP3    H279376   0.191   5.606   4.413  0.2836  0.7748 -0.0836
19321TIP3   OH279377   4.068   3.387  11.350  0.2813 -0.5567  0.0941
19321TIP3    H179378   3.992   3.436  11.379 -0.7843 -2.0234 -0.1396
19321TIP3    H279379   4.142   3.427  11.397 -0.3935  1.7437 -0.6608
19322TIP3   OH279380   0.767   1.012  13.413  0.4247  0.4051 -0.2258
19322TIP3    H179381   0.676   1.044  13.417 -1.2699 -3.8415  0.7401
19322TIP3    H279382   0.792   1.000  13.505 -0.6261 -4.2032 -0.2682
19323TIP3   OH279383   3.806   4.569  13.559 -0.1081 -0.6960  0.3020
19323TIP3    H179384   3.724   4.552  13.605 -0.3968  0.2226  0.1538
19323TIP3    H279385   3.796   4.524  13.474 -1.2811  0.9831 -0.5075
19324TIP3   OH279386   2.484   4.917  14.693 -0.3089  0.1313 -0.3234
19324TIP3    H179387   2.418   4.888  14.756 -0.3615  0.4283 -0.2402
19324TIP3    H279388   2.561   4.937  14.747 -0.3629  0.4119 -0.3466
19325TIP3   OH279389   6.767   0.860   2.994 -0.6630 -0.4048  0.1273
19325TIP3    H179390   6.733   0.880   3.081 -0.3407 -1.8937  0.6261
19325TIP3    H279391   6.719   0.918   2.935 -1.3860  0.1368  1.2198
19326TIP3   OH279392   6.652   2.109  16.278 -0.3932  0.0860 -0.7328
19326TIP3    H179393   6.728   2.143  16.231  0.4152 -0.8746 -0.1472
19326TIP3    H279394   6.589   2.181  16.277  0.6318  0.9979 -0.9751
19327TIP3   OH279395   0.769   0.579   4.659  0.2557 -0.1220 -0.0366
19327TIP3    H179396   0.695   0.596   4.600 -0.9540 -0.4075  1.3456
19327TIP3    H279397   0.746   0.496   4.702  1.6584 -0.5006  0.0306
19328TIP3   OH279398   6.065   1.732  11.293 -0.7138  0.0425  0.1398
19328TIP3    H179399   6.123   1.659  11.312 -0.5154  0.2450  0.3247
19328TIP3    H279400   6.070   1.742  11.198 -0.5008  0.0128  0.1473
19329TIP3   OH279401   0.438   3.950   6.037 -0.6455 -0.3437  0.0580
19329TIP3    H179402   0.345   3.973   6.034 -0.3212  1.0532 -0.1208
19329TIP3    H279403   0.464   3.971   6.127 -0.0504  1.2875 -0.4613
19330TIP3   OH279404   2.678   4.822   2.429  0.9536 -0.5799  0.2529
19330TIP3    H179405   2.718   4.800   2.345  0.2831 -2.4258  0.3599
19330TIP3    H279406   2.584   4.812   2.414  0.3751  3.4303  0.0719
19331TIP3   OH279407   4.047   4.225   0.556 -0.7076  0.0667  0.2438
19331TIP3    H179408   4.078   4.180   0.635  0.5313  1.6165  0.6958
19331TIP3    H279409   4.032   4.315   0.584  0.0972  0.7379 -1.3692
19332TIP3   OH279410   0.969   2.369  15.784  0.1377  0.0501 -0.3203
19332TIP3    H179411   0.967   2.353  15.879 -1.7626  0.5553 -0.2321
19332TIP3    H279412   1.001   2.287  15.746  1.0837 -0.1072  0.7439
19333TIP3   OH279413   4.699   3.922   4.633  0.1866  0.5890  0.7972
19333TIP3    H179414   4.765   3.859   4.605 -0.9814  0.3473 -1.5888
19333TIP3    H279415   4.728   4.006   4.596 -0.3204  0.6809  0.6062
19334TIP3   OH279416   3.951   3.407   5.655 -0.0440 -0.1654 -0.7177
19334TIP3    H179417   3.956   3.395   5.749 -0.7293  1.7120 -0.3943
19334TIP3    H279418   4.000   3.487   5.638  0.2459 -0.5897 -1.9939
19335TIP3   OH279419   3.390   0.428  13.328 -0.0857 -1.0813 -0.3996
19335TIP3    H179420   3.428   0.349  13.290 -1.6337 -2.0281 -0.0580
19335TIP3    H279421   3.301   0.403  13.353 -0.0931  0.3280  1.1830
19336TIP3   OH279422   1.241   0.436   4.668 -0.1596 -0.3117 -0.4836
19336TIP3    H179423   1.247   0.531   4.680  0.4320 -0.2268 -1.3800
19336TIP3    H279424   1.322   0.402   4.705 -0.5474 -0.5190  0.1999
19337TIP3   OH279425   2.125   3.872  16.533  0.6830 -0.1027 -0.0326
19337TIP3    H179426   2.159   3.831  16.612 -1.1524 -1.0127  0.3449
19337TIP3    H279427   2.032   3.886  16.551  0.2353 -0.2425 -1.9761
19338TIP3   OH279428   6.032   5.085   0.845  0.3317  0.2477 -0.5581
19338TIP3    H179429   6.006   5.045   0.928  0.7486 -1.4365 -1.1911
19338TIP3    H279430   6.126   5.068   0.839  0.6032  1.6661 -0.7108
19339TIP3   OH279431   5.007   4.774  12.134  0.7310  0.2014 -0.1619
19339TIP3    H179432   5.101   4.770  12.120  0.6961 -0.0740 -0.3136
19339TIP3    H279433   4.997   4.792  12.228  0.9132 -1.3428  0.1671
19340TIP3   OH279434   1.639   0.300  14.806 -0.3191 -0.7400  0.2400
19340TIP3    H179435   1.642   0.385  14.762  0.7549 -0.5811  0.5871
19340TIP3    H279436   1.602   0.240  14.740  2.5739 -0.8128 -1.4867
19341TIP3   OH279437   2.968   6.114  15.699 -0.3194 -0.5060  0.2244
19341TIP3    H179438   2.984   6.020  15.692 -2.2396 -1.1507  2.9439
19341TIP3    H279439   3.048   6.149  15.739 -1.0579 -1.7784  3.0931
19342TIP3   OH279440   4.610   3.170   2.562 -0.1180  0.2348 -0.3217
19342TIP3    H179441   4.606   3.130   2.648 -2.2399  2.1017  0.5717
19342TIP3    H279442   4.625   3.097   2.502 -2.2633 -1.7254  1.3131
19343TIP3   OH279443   6.061   1.015  15.691 -1.2991 -0.0641 -0.3257
19343TIP3    H179444   5.987   0.971  15.733  0.7716 -1.5842  2.0215
19343TIP3    H279445   6.134   0.953  15.701  1.2651  2.9428  1.1681
19344TIP3   OH279446   2.935   3.802   3.418 -0.2923  0.0446  0.1754
19344TIP3    H179447   2.864   3.863   3.438  0.3188  0.4338  1.2508
19344TIP3    H279448   2.963   3.769   3.503  1.2061  0.3662 -0.1654
19345TIP3   OH279449   2.954   2.758  15.027 -0.5924  0.2507 -0.4584
19345TIP3    H179450   2.930   2.834  15.080 -0.8511 -0.4135  0.4068
19345TIP3    H279451   2.952   2.684  15.088 -1.5626 -0.6626 -1.5441
19346TIP3   OH279452   2.700   2.440   3.431  0.2235  0.0334  0.2754
19346TIP3    H179453   2.777   2.497   3.430 -0.7550  1.4147  0.7644
19346TIP3    H279454   2.669   2.440   3.340  0.2056  0.3030  0.2821
19347TIP3   OH279455   1.139   3.105  15.682 -0.1266 -0.0607 -0.6073
19347TIP3    H179456   1.090   3.143  15.609 -2.1651 -1.1517  0.1162
19347TIP3    H279457   1.071   3.075  15.743  1.4955 -0.4576  1.0742
19348TIP3   OH279458   6.362   1.859   1.581  0.2512  0.5937  0.0061
19348TIP3    H179459   6.386   1.943   1.541 -2.9833  1.1286 -1.0678
19348TIP3    H279460   6.304   1.882   1.653 -0.3275 -0.6951 -0.0233
19349TIP3   OH279461   0.483   3.075   5.390 -0.3816  0.1507  0.1673
19349TIP3    H179462   0.526   3.019   5.325  0.7841 -0.5781  1.5086
19349TIP3    H279463   0.451   3.015   5.456 -1.4181  0.8894  0.3544
19350TIP3   OH279464   2.356   1.668  12.413 -0.3479  0.2323  0.1233
19350TIP3    H179465   2.342   1.577  12.438 -1.4501  0.4806  0.4756
19350TIP3    H279466   2.355   1.716  12.496  1.0779  0.4933  0.0290
19351TIP3   OH279467   4.955   1.811   3.946  0.0066  0.0962 -0.3382
19351TIP3    H179468   4.952   1.839   3.855  2.8128 -1.8329 -1.1925
19351TIP3    H279469   4.908   1.727   3.947  0.4186 -0.1387 -0.1590
19352TIP3   OH279470   0.443   6.168  10.538  0.0043 -0.7844  1.3186
19352TIP3    H179471   0.408   6.172  10.627 -0.1764  0.7112  1.2035
19352TIP3    H279472   0.516   6.230  10.538  0.9061 -1.8139  0.7953
19353TIP3   OH279473   5.135   6.018   1.888 -0.4113  0.5462 -0.1576
19353TIP3    H179474   5.148   6.019   1.794 -1.3463 -1.7981 -0.3783
19353TIP3    H279475   5.202   5.959   1.922 -1.1035  0.0610  0.4234
19354TIP3   OH279476   1.816   1.745  15.654 -0.3841 -0.2883 -0.0876
19354TIP3    H179477   1.767   1.663  15.660  0.2350 -0.5716  1.8320
19354TIP3    H279478   1.872   1.734  15.577  0.2618 -2.0230  0.5908
19355TIP3   OH279479   0.654   1.264   3.012 -0.1808  0.1608  0.0941
19355TIP3    H179480   0.567   1.234   3.036 -0.6049  0.2130 -1.3059
19355TIP3    H279481   0.710   1.186   3.020 -0.6651 -0.2543 -0.5348
19356TIP3   OH279482   4.001   3.024   1.295  0.0977 -0.3958  0.3742
19356TIP3    H179483   3.994   3.115   1.267  0.1106 -0.7207 -0.7429
19356TIP3    H279484   3.912   3.000   1.322  0.4067  0.4051  2.2479
19357TIP3   OH279485   3.798   2.168  14.710  0.2265 -0.1102  0.2670
19357TIP3    H179486   3.716   2.119  14.698 -0.0549  0.5169 -0.4743
19357TIP3    H279487   3.774   2.259  14.694  1.1260  0.0481 -0.2460
19358TIP3   OH279488   4.187   3.140   5.894  0.2986 -0.4779  0.0352
19358TIP3    H179489   4.206   3.233   5.881  1.5002 -0.4984  1.3284
19358TIP3    H279490   4.115   3.139   5.957  1.0127 -0.3830  0.8899
19359TIP3   OH279491   5.399   4.205   1.849 -0.2894 -0.1509 -0.1819
19359TIP3    H179492   5.420   4.295   1.828  0.2283 -0.0030  0.8940
19359TIP3    H279493   5.328   4.212   1.913 -0.3978 -0.5107 -0.2618
19360TIP3   OH279494   6.772   5.851  11.327 -0.1857 -0.5221 -0.0054
19360TIP3    H179495   6.786   5.800  11.247 -1.4661 -2.3049  0.8485
19360TIP3    H279496   6.860   5.881  11.352  0.2793 -0.1826 -1.8758
19361TIP3   OH279497   1.770   1.535  16.962  0.0076  0.3482  0.2869
19361TIP3    H179498   1.743   1.570  17.047  0.2180  1.3095 -0.0276
19361TIP3    H279499   1.860   1.504  16.977 -0.6460 -1.3956  0.9234
19362TIP3   OH279500   1.476   4.378   4.970 -0.1263  0.1752 -0.3070
19362TIP3    H179501   1.481   4.434   5.047  1.7804  0.0165 -0.2778
19362TIP3    H279502   1.382   4.362   4.958 -0.4490 -0.3735  2.3905
19363TIP3   OH279503   3.558   4.087   4.564  0.3285  0.2694  0.2856
19363TIP3    H179504   3.507   4.077   4.483  0.2297 -1.0679  0.4924
19363TIP3    H279505   3.628   4.147   4.540  1.1741 -1.2226 -1.2511
19364TIP3   OH279506   3.329   6.048   6.127  0.1435  0.2021  0.1386
19364TIP3    H179507   3.341   6.038   6.222  0.4547  1.6156  0.2702
19364TIP3    H279508   3.318   6.142   6.114  1.1464  0.1431 -1.3538
19365TIP3   OH279509   2.791   3.938   6.048 -0.3908  0.3875  0.0471
19365TIP3    H179510   2.757   4.024   6.021  0.4781  0.5601 -0.5207
19365TIP3    H279511   2.875   3.930   6.003  0.7610  0.3310  2.0722
19366TIP3   OH279512   3.108   1.844  14.248 -0.4271  0.1884 -0.5997
19366TIP3    H179513   3.107   1.753  14.278 -0.2087  0.4660  0.2875
19366TIP3    H279514   3.201   1.866  14.242 -0.4751  0.7576  0.5117
19367TIP3   OH279515   1.399   4.047  14.304  0.5830  0.2829 -0.5155
19367TIP3    H179516   1.400   3.970  14.361  0.1838  1.4591  1.1478
19367TIP3    H279517   1.405   4.011  14.215  1.8058 -1.5880  0.2527
19368TIP3   OH279518   3.151   0.386  13.653 -0.3425  0.5257 -0.3285
19368TIP3    H179519   3.212   0.457  13.636  0.4000  0.1176  0.5109
19368TIP3    H279520   3.154   0.374  13.748  1.6831 -2.3979 -0.6025
19369TIP3   OH279521   2.307   4.886  16.427  0.1316  0.0055 -0.2614
19369TIP3    H179522   2.373   4.918  16.489 -1.4189  1.8605  0.5479
19369TIP3    H279523   2.354   4.876  16.345  1.3437  1.9127  0.1206
19370TIP3   OH279524   2.256   6.517   1.964  0.5549 -0.2871 -0.4164
19370TIP3    H179525   2.165   6.506   1.989  0.6963  0.8189  0.6856
19370TIP3    H279526   2.258   6.496   1.870 -0.6837 -0.9857 -0.3059
19371TIP3   OH279527   2.492   5.349   3.937 -0.2804  0.1355 -0.0173
19371TIP3    H179528   2.481   5.415   4.005 -2.0724 -1.3701  1.2341
19371TIP3    H279529   2.549   5.283   3.976 -0.8985 -0.4865 -0.1370
19372TIP3   OH279530   6.451   1.340   4.154  0.5637 -0.2322  0.2691
19372TIP3    H179531   6.526   1.317   4.099  1.3623  0.2903  1.1169
19372TIP3    H279532   6.385   1.372   4.092  0.2198 -2.6010 -0.7376
19373TIP3   OH279533   0.107   0.483   5.732 -0.0025 -0.3830 -0.6178
19373TIP3    H179534   0.190   0.457   5.772 -0.4358 -0.8032  0.0166
19373TIP3    H279535   0.131   0.557   5.676  0.6063  0.2971  0.4966
19374TIP3   OH279536   1.473   5.528  14.765  0.2745  0.4581  0.3022
19374TIP3    H179537   1.538   5.506  14.831  0.3290 -1.4119 -0.3249
19374TIP3    H279538   1.523   5.535  14.683  0.2142  2.7653  0.3868
19375TIP3   OH279539   5.170   1.924   0.253 -0.0681  0.1293 -0.2682
19375TIP3    H179540   5.229   1.883   0.190  0.0444 -0.8644  0.4614
19375TIP3    H279541   5.223   1.992   0.294  0.3498 -0.2618 -0.1446
19376TIP3   OH279542   5.555   2.256  13.611  0.2606  0.4818 -0.0173
19376TIP3    H179543   5.602   2.187  13.565  0.1906  1.4132 -1.5491
19376TIP3    H279544   5.553   2.227  13.702  2.3417 -0.3732 -0.1929
19377TIP3   OH279545   4.003   4.748  13.358  0.1244  0.0116 -0.0464
19377TIP3    H179546   3.911   4.739  13.384  0.0149 -2.7519 -1.0254
19377TIP3    H279547   4.007   4.712  13.270  1.8951  1.6772 -0.7279
19378TIP3   OH279548   2.597   2.524  11.704 -0.0301 -0.3380 -0.2135
19378TIP3    H179549   2.687   2.542  11.676 -0.2951 -0.1008 -0.9295
19378TIP3    H279550   2.556   2.483  11.628 -0.3925 -0.8980  0.2781
19379TIP3   OH279551   1.004   0.879   2.106 -0.8093 -0.4157  0.1758
19379TIP3    H179552   0.985   0.805   2.164 -0.4276 -1.7214 -1.3090
19379TIP3    H279553   1.089   0.911   2.135  0.6210 -2.7010 -1.2079
19380TIP3   OH279554   1.509   0.974  11.078  0.2261 -0.3654 -0.3900
19380TIP3    H179555   1.488   1.009  10.991  1.1142 -0.2471 -0.5688
19380TIP3    H279556   1.506   0.879  11.067  1.2414 -0.3689 -0.8058
19381TIP3   OH279557   1.955   5.547   2.141 -0.5598  0.2197 -0.1120
19381TIP3    H179558   1.901   5.483   2.188  1.2376 -0.3304  1.3513
19381TIP3    H279559   1.910   5.630   2.152 -0.8017 -0.1092  1.6305
19382TIP3   OH279560   2.832   0.512   1.611  0.1172 -0.3214 -0.1482
19382TIP3    H179561   2.794   0.447   1.553 -0.9843  1.2347 -1.2738
19382TIP3    H279562   2.776   0.512   1.689 -1.0512  0.5609 -0.9534
19383TIP3   OH279563   1.192   6.580  11.696 -0.1186  0.4740 -0.3883
19383TIP3    H179564   1.145   6.496  11.707  0.7606  0.1322  1.0305
19383TIP3    H279565   1.231   6.596  11.782  0.3805  1.9583 -0.8773
19384TIP3   OH279566   2.839   1.464   3.673  0.0619  0.0018  0.3204
19384TIP3    H179567   2.911   1.413   3.709 -0.2909 -0.2089  0.7392
19384TIP3    H279568   2.773   1.464   3.742 -1.0083 -1.2046 -0.6438
19385TIP3   OH279569   5.982   2.005   0.369  0.2430 -0.0388 -0.1746
19385TIP3    H179570   6.016   2.090   0.395 -1.7729  0.4446  1.1725
19385TIP3    H279571   5.976   2.008   0.274  2.3785  0.3922 -0.3349
19386TIP3   OH279572   5.092   5.957  14.801  0.7419  0.3728 -0.5913
19386TIP3    H179573   5.036   5.983  14.874 -1.6349 -0.7356 -1.8732
19386TIP3    H279574   5.160   5.903  14.840  0.1274  0.6485  0.9221
19387TIP3   OH279575   4.454   2.476   3.538  0.0402  0.1747  0.3961
19387TIP3    H179576   4.490   2.468   3.450  1.8319 -0.9435  1.1902
19387TIP3    H279577   4.527   2.456   3.596 -1.4550 -0.4995  2.1322
19388TIP3   OH279578   5.215   3.017   4.553 -0.1326  0.3099  0.0660
19388TIP3    H179579   5.162   2.940   4.574  0.3142  0.1048  0.4543
19388TIP3    H279580   5.171   3.055   4.477  0.5518 -1.2542 -1.1796
19389TIP3   OH279581   0.149   1.837  17.364  0.2748 -0.7833 -0.5388
19389TIP3    H179582   0.092   1.775  17.411 -0.0193 -0.1606 -0.0618
19389TIP3    H279583   0.238   1.810  17.387  0.1290 -0.1428  0.8446
19390TIP3   OH279584   1.446   6.517  14.596 -0.4607  0.1972 -0.2534
19390TIP3    H179585   1.355   6.527  14.567 -1.2760  0.7551  2.2870
19390TIP3    H279586   1.449   6.432  14.639 -0.2565  0.9090  1.1901
19391TIP3   OH279587   2.992   3.830   3.867  0.5909  0.2924  0.2010
19391TIP3    H179588   2.898   3.841   3.880  0.4994 -0.2934  0.0466
19391TIP3    H279589   3.024   3.794   3.950  0.6408  0.2639  0.1696
19392TIP3   OH279590   0.592   6.109  11.539  0.0008  0.6014 -0.5090
19392TIP3    H179591   0.550   6.193  11.522  1.5757  1.1519 -1.9477
19392TIP3    H279592   0.655   6.099  11.468  0.4477 -1.4130  0.1109
19393TIP3   OH279593   3.367   4.062   4.030 -0.1607  0.0510 -0.2626
19393TIP3    H179594   3.424   4.093   4.101  0.3419  1.2965 -1.1764
19393TIP3    H279595   3.409   3.981   4.001 -0.0123 -0.1318  0.4301
19394TIP3   OH279596   2.027   3.380  12.187 -0.4171 -0.5887  0.2267
19394TIP3    H179597   2.082   3.440  12.236  0.3904  0.5554 -1.9445
19394TIP3    H279598   2.059   3.293  12.210  1.5797  0.0065 -0.1145
19395TIP3   OH279599   2.777   1.503   0.660  0.6372 -0.4592  0.0896
19395TIP3    H179600   2.733   1.554   0.729  0.4781 -0.7717  0.2203
19395TIP3    H279601   2.706   1.471   0.606  0.8432  1.4911 -1.4454
19396TIP3   OH279602   5.772   5.424  13.506  0.2043  0.0551 -0.1103
19396TIP3    H179603   5.753   5.453  13.595  0.6448  1.3889 -0.4208
19396TIP3    H279604   5.786   5.506  13.457  2.0367 -0.6848 -0.9214
19397TIP3   OH279605   6.557   6.142   4.776 -0.2219 -0.0768  0.6168
19397TIP3    H179606   6.579   6.209   4.711 -1.3151 -0.2649  0.0309
19397TIP3    H279607   6.641   6.115   4.813  0.3576  0.4799 -0.2779
19398TIP3   OH279608   6.748   5.836   0.065  0.2633  0.1915 -0.2869
19398TIP3    H179609   6.712   5.924   0.061 -0.2594 -0.0056  0.0051
19398TIP3    H279610   6.840   5.849   0.087 -0.5746  0.5595  3.6894
19399TIP3   OH279611   0.564   3.935   4.835  0.1772 -0.1907 -0.2734
19399TIP3    H179612   0.546   3.874   4.907 -2.2691  0.1729 -0.4901
19399TIP3    H279613   0.503   3.909   4.766  0.7304  1.0473 -1.2612
19400TIP3   OH279614   4.694   3.093   0.724 -0.2484  0.0398 -0.3095
19400TIP3    H179615   4.688   3.180   0.764  0.7351 -0.0406  0.0194
19400TIP3    H279616   4.778   3.094   0.677  0.7608 -1.4244  1.3785
19401TIP3   OH279617   2.474   4.172   5.289  0.4145 -0.1359  0.7165
19401TIP3    H179618   2.513   4.251   5.252  1.5376 -0.4178  1.2380
19401TIP3    H279619   2.489   4.180   5.383 -1.6588  0.1769  1.0642
19402TIP3   OH279620   0.334   3.221  15.542  0.4878 -0.0030 -0.8649
19402TIP3    H179621   0.424   3.200  15.568  0.8736  0.9602 -1.3692
19402TIP3    H279622   0.293   3.251  15.622  1.3701  1.9741 -1.1043
19403TIP3   OH279623   5.084   4.529  11.676  0.6838  0.5877 -0.1429
19403TIP3    H179624   5.047   4.451  11.635  0.6301 -0.0119  1.0240
19403TIP3    H279625   5.039   4.602  11.632 -1.2290 -0.0927  0.5701
19404TIP3   OH279626   3.564   1.268  13.573  0.1499  0.4509 -0.3169
19404TIP3    H179627   3.555   1.193  13.632  0.9185  0.1268 -0.5916
19404TIP3    H279628   3.539   1.234  13.487  0.9491  0.3680 -0.5278
19405TIP3   OH279629   0.463   1.758   5.103  0.3744 -0.5033  0.0195
19405TIP3    H179630   0.378   1.754   5.060 -0.0974 -2.1645  0.9946
19405TIP3    H279631   0.451   1.707   5.183  2.6714 -1.9874 -0.4943
19406TIP3   OH279632   4.727   6.188  12.509  0.0902 -0.0121 -0.0638
19406TIP3    H179633   4.773   6.116  12.465 -0.8243 -0.3628 -0.4733
19406TIP3    H279634   4.720   6.159  12.600 -0.2812 -0.4460 -0.2297
19407TIP3   OH279635   5.074   0.345   0.784  0.2842 -0.0927  0.1819
19407TIP3    H179636   5.042   0.431   0.759  0.2449  0.4389  1.8769
19407TIP3    H279637   5.116   0.311   0.706  1.5733  2.0869 -0.1777
19408TIP3   OH279638   5.157   2.244  12.544 -0.1294 -0.6198 -0.2993
19408TIP3    H179639   5.189   2.322  12.497 -0.8874 -0.0793  0.0658
19408TIP3    H279640   5.139   2.181  12.475  0.6380 -0.5367 -0.5917
19409TIP3   OH279641   3.512   4.539  16.647  0.0636  0.2475  0.1920
19409TIP3    H179642   3.521   4.446  16.666 -1.1784 -0.1777 -1.1645
19409TIP3    H279643   3.451   4.571  16.713 -1.4807 -0.4691 -0.8274
19410TIP3   OH279644   6.280   2.074  16.298 -0.1509 -0.3188  0.1636
19410TIP3    H179645   6.269   2.135  16.370 -2.1589 -1.8283  1.2217
19410TIP3    H279646   6.286   1.988  16.340 -0.0955 -1.1100 -1.3976
19411TIP3   OH279647   4.204   2.430  12.923 -0.4030 -0.1627  0.2930
19411TIP3    H179648   4.165   2.506  12.881  0.7597 -0.0667 -0.6843
19411TIP3    H279649   4.283   2.464  12.967  1.0279 -0.9915 -1.4894
19412TIP3   OH279650   0.705   0.679  13.492 -0.3705  0.2929 -0.3134
19412TIP3    H179651   0.796   0.703  13.509 -0.7327  2.2831 -0.9045
19412TIP3    H279652   0.679   0.733  13.417 -2.2410  0.3440  0.3129
19413TIP3   OH279653   3.216   0.652   5.951  0.7117  0.4398  0.3713
19413TIP3    H179654   3.208   0.714   5.878 -3.6037  0.1886  0.3966
19413TIP3    H279655   3.130   0.653   5.993  2.1869 -1.4621  3.8575
19414TIP3   OH279656   4.082   4.472   3.963  0.2677 -0.5022 -0.0181
19414TIP3    H179657   4.122   4.452   4.047  0.2034 -2.3573 -0.3902
19414TIP3    H279658   4.137   4.428   3.898 -0.1260  0.2501 -0.8929
19415TIP3   OH279659   0.991   6.038  13.828 -0.1847  0.3981 -0.0669
19415TIP3    H179660   1.009   5.980  13.754  0.2772  1.3204 -0.6958
19415TIP3    H279661   0.938   6.109  13.791 -0.7616  0.3720  0.6961
19416TIP3   OH279662   1.065   4.289  12.912  0.4374 -0.8407 -0.3931
19416TIP3    H179663   0.976   4.314  12.937 -0.4977 -1.1650 -3.1601
19416TIP3    H279664   1.119   4.361  12.945 -1.0190  0.1260  0.0184
19417TIP3   OH279665   3.932   6.619   5.654  0.3559  0.1105  0.0805
19417TIP3    H179666   3.929   6.647   5.745  0.5186  0.0035  0.1205
19417TIP3    H279667   3.936   6.524   5.658 -4.0574 -0.2726 -0.1180
19418TIP3   OH279668   0.713   6.155  16.213  0.4102  1.1394 -0.0172
19418TIP3    H179669   0.622   6.156  16.184  0.2855  1.5524  0.3705
19418TIP3    H279670   0.710   6.191  16.302  0.7983  0.0429  0.4595
19419TIP3   OH279671   0.311   4.016  12.481 -0.0736 -0.3489  0.2986
19419TIP3    H179672   0.315   4.100  12.436  0.0112 -0.8662 -0.6951
19419TIP3    H279673   0.283   4.037  12.570 -0.7259  0.6597 -0.1280
19420TIP3   OH279674   1.329   6.446   1.706 -0.3757 -0.2298 -0.5054
19420TIP3    H179675   1.424   6.453   1.707 -0.4428  0.8270  0.0381
19420TIP3    H279676   1.303   6.466   1.796 -1.0409 -1.8795 -0.2938
19421TIP3   OH279677   4.474   0.830   3.801  0.2063 -0.0716 -0.6224
19421TIP3    H179678   4.443   0.859   3.886 -3.1774 -1.2670 -1.3070
19421TIP3    H279679   4.443   0.740   3.792  1.8143 -0.5208 -2.5193
19422TIP3   OH279680   3.379   2.375  12.040 -0.1006 -0.3812 -0.2332
19422TIP3    H179681   3.466   2.394  12.005 -0.3595 -0.7802 -1.1373
19422TIP3    H279682   3.330   2.457  12.030 -0.1858 -0.5060 -0.8665
19423TIP3   OH279683   0.002   0.216  15.470  0.2160  0.1074  0.1375
19423TIP3    H179684   0.048   0.137  15.499  0.3125 -0.2311 -0.9261
19423TIP3    H279685   0.052   0.247  15.395  0.2568  1.2686  0.6151
19424TIP3   OH279686   5.347   1.427  14.488  0.2472  0.0483 -0.2040
19424TIP3    H179687   5.346   1.332  14.476  1.4766  0.2042 -2.0480
19424TIP3    H279688   5.394   1.460  14.411  3.1268  1.8823  2.1002
19425TIP3   OH279689   4.135   1.967   3.837  0.2004  0.0590 -0.4623
19425TIP3    H179690   4.104   1.948   3.925  1.9467 -2.7225 -0.3118
19425TIP3    H279691   4.054   1.976   3.785 -0.8573 -0.4085  1.0279
19426TIP3   OH279692   4.423   4.923   1.179  0.3018  0.1878  0.2950
19426TIP3    H179693   4.444   4.966   1.096  1.1842 -1.3375 -0.3213
19426TIP3    H279694   4.333   4.892   1.168  0.3769  0.0897 -0.0486
19427TIP3   OH279695   4.062   2.710   3.012  0.5526  0.3255  0.3071
19427TIP3    H179696   4.074   2.719   2.918 -2.1822  1.5579 -0.0177
19427TIP3    H279697   4.147   2.679   3.044  1.4930 -0.3894 -2.5558
19428TIP3   OH279698   4.519   4.192   3.344 -0.1538 -1.0123  0.1189
19428TIP3    H179699   4.600   4.182   3.295 -0.7839 -0.3870 -1.1026
19428TIP3    H279700   4.449   4.174   3.280 -1.1118  2.9194 -0.2111
19429TIP3   OH279701   4.726   0.137   2.527 -0.2281 -0.4502  0.3761
19429TIP3    H179702   4.641   0.132   2.483  0.0704  0.3329 -0.3269
19429TIP3    H279703   4.788   0.102   2.464  0.3238  1.4700 -0.2184
19430TIP3   OH279704   3.830   0.409  11.821 -0.0818 -0.0580  0.1911
19430TIP3    H179705   3.855   0.443  11.735  0.0421 -1.2602 -0.2661
19430TIP3    H279706   3.900   0.349  11.844  0.1175  0.5943  1.3617
19431TIP3   OH279707   4.837   0.871   2.399  0.1240  0.1497  0.0884
19431TIP3    H179708   4.836   0.966   2.412 -1.0350  0.4583 -1.8553
19431TIP3    H279709   4.802   0.859   2.311  1.0032 -2.0524 -0.0107
19432TIP3   OH279710   5.181   3.468  12.711 -0.3961 -0.6160  0.5281
19432TIP3    H179711   5.240   3.423  12.650  0.7867  0.8078  0.5643
19432TIP3    H279712   5.168   3.554  12.672 -0.1108  0.1126  1.9717
19433TIP3   OH279713   1.563   6.391  13.904 -0.1717 -0.1589  0.3143
19433TIP3    H179714   1.495   6.458  13.896  0.7773  0.7910 -0.0295
19433TIP3    H279715   1.614   6.398  13.823  0.5021 -0.6752  0.6798
19434TIP3   OH279716   4.289   1.637   0.692 -0.0147  0.6292  0.0313
19434TIP3    H179717   4.215   1.692   0.665  1.0915  1.8063 -0.7269
19434TIP3    H279718   4.343   1.694   0.745  1.3386  0.4129 -1.0487
19435TIP3   OH279719   3.565   2.633   3.564 -0.0519 -0.1203  0.7442
19435TIP3    H179720   3.536   2.542   3.572  0.6249 -0.4176 -0.0198
19435TIP3    H279721   3.647   2.628   3.515  0.2074  0.8728  1.0524
19436TIP3   OH279722   0.474   0.609   1.401 -0.3844  0.2241 -0.0809
19436TIP3    H179723   0.536   0.583   1.333  0.9972 -1.5211  1.7236
19436TIP3    H279724   0.517   0.682   1.446 -1.7210  2.0334 -1.5540
19437TIP3   OH279725   0.733   1.479  11.736 -0.1169 -0.5552  0.0852
19437TIP3    H179726   0.754   1.425  11.812 -2.1697 -1.1859  0.2543
19437TIP3    H279727   0.654   1.526  11.761  0.5599  1.1205 -0.7746
19438TIP3   OH279728   0.516   2.736   2.207  0.3722 -0.2474  0.4623
19438TIP3    H179729   0.493   2.730   2.299 -0.5269 -0.5386  0.2236
19438TIP3    H279730   0.591   2.796   2.205 -0.7738  1.2569  1.1812
19439TIP3   OH279731   2.857   1.724   5.018  0.3483  0.0122 -0.3487
19439TIP3    H179732   2.934   1.686   5.059  0.4650  0.1091 -0.4804
19439TIP3    H279733   2.843   1.807   5.064  0.6015  0.2191 -0.6480
19440TIP3   OH279734   5.802   4.192   2.283 -0.3592  0.5104 -0.0456
19440TIP3    H179735   5.754   4.263   2.240 -2.8788  0.3692  2.2776
19440TIP3    H279736   5.737   4.124   2.297  1.5935 -1.5877 -0.6242
19441TIP3   OH279737   0.672   0.686   3.383 -0.3520  0.0534 -0.6190
19441TIP3    H179738   0.691   0.668   3.291 -0.6478  0.7693 -0.8296
19441TIP3    H279739   0.730   0.627   3.432 -1.1308 -1.2830 -1.2543
19442TIP3   OH279740   1.602   5.594  15.236 -0.1225  0.1614 -0.1951
19442TIP3    H179741   1.571   5.678  15.204 -0.8697  0.2413  0.6959
19442TIP3    H279742   1.646   5.554  15.160 -2.0246  0.2237 -1.3887
19443TIP3   OH279743   1.426   3.365   1.083 -0.1117 -0.1935  0.6461
19443TIP3    H179744   1.459   3.442   1.035  0.5936  0.0287  1.4659
19443TIP3    H279745   1.479   3.362   1.162  0.7312 -2.2816  0.0442
19444TIP3   OH279746   0.389   2.793   2.481 -0.2543  0.0772 -0.1718
19444TIP3    H179747   0.317   2.809   2.421 -0.0485  1.0258 -0.1740
19444TIP3    H279748   0.377   2.702   2.509 -1.2962  0.1446 -0.3634
19445TIP3   OH279749   6.648   3.853   1.107  0.1087  0.0814  0.2153
19445TIP3    H179750   6.654   3.757   1.098 -0.1903  0.1410 -0.7500
19445TIP3    H279751   6.627   3.867   1.199 -0.3444 -0.8176  0.2629
19446TIP3   OH279752   5.829   4.490   1.243 -0.3322  0.8862 -0.3970
19446TIP3    H179753   5.879   4.551   1.189 -0.4423  1.9287  0.6278
19446TIP3    H279754   5.772   4.546   1.296 -1.1270 -0.1711 -0.0988
19447TIP3   OH279755   4.265   4.482   4.906  0.0319 -0.1164 -0.4704
19447TIP3    H179756   4.257   4.396   4.948 -0.5812  1.2086  2.4148
19447TIP3    H279757   4.334   4.526   4.956  1.0392  0.7790 -2.5361
19448TIP3   OH279758   4.752   0.819  11.558  0.4245  0.2731 -0.0474
19448TIP3    H179759   4.767   0.732  11.594 -1.6560 -0.4175 -0.7037
19448TIP3    H279760   4.668   0.846  11.595  0.2885  1.3466 -1.0776
19449TIP3   OH279761   3.036   4.500   2.002  0.2755 -0.1066 -0.4272
19449TIP3    H179762   2.977   4.574   1.988  0.0549 -0.0541  0.6594
19449TIP3    H279763   3.117   4.539   2.035 -0.5752 -0.4310  2.3209
19450TIP3   OH279764   4.534   3.335  16.290  0.0888  0.0398 -0.3180
19450TIP3    H179765   4.628   3.317  16.285 -0.1088 -1.1907  0.1097
19450TIP3    H279766   4.514   3.378  16.207  1.1360  0.8909 -0.1533
19451TIP3   OH279767   6.464   1.235   0.184 -0.2707 -0.0779  0.3559
19451TIP3    H179768   6.499   1.316   0.148  0.4431 -1.4830 -2.4419
19451TIP3    H279769   6.540   1.178   0.195 -0.8456 -0.6561  1.4460
19452TIP3   OH279770   3.134   5.784  17.044 -0.3269 -0.3919 -0.2367
19452TIP3    H179771   3.088   5.865  17.065  0.3511 -0.6483  2.7620
19452TIP3    H279772   3.065   5.719  17.031 -0.8994 -0.1508  1.3584
19453TIP3   OH279773   0.507   0.033  16.012  0.1952  0.5738 -0.3504
19453TIP3    H179774   0.577   0.012  16.074  0.4575  2.0050 -0.1384
19453TIP3    H279775   0.507   0.128  16.006 -1.5313  0.5889 -0.6094
19454TIP3   OH279776   3.990   1.353  14.214  0.2895  0.0282  0.7047
19454TIP3    H179777   4.083   1.342  14.197 -0.3190 -2.2228 -1.8939
19454TIP3    H279778   3.976   1.307  14.297  1.2871 -0.7680  0.4521
19455TIP3   OH279779   1.906   5.328   0.945 -0.2599  0.0599  0.1314
19455TIP3    H179780   1.961   5.329   0.867  0.8740  3.6716  0.7911
19455TIP3    H279781   1.924   5.412   0.988 -3.4758 -0.2515  2.4242
19456TIP3   OH279782   0.577   4.206  12.477  0.6989  0.4930 -0.2516
19456TIP3    H179783   0.585   4.297  12.507 -1.0368  0.6936 -0.2613
19456TIP3    H279784   0.567   4.155  12.558  3.4048  0.0159 -0.1185
19457TIP3   OH279785   4.357   3.229  11.882  0.5178  0.5722  0.9490
19457TIP3    H179786   4.290   3.280  11.928 -0.6627  0.4201 -0.5407
19457TIP3    H279787   4.418   3.202  11.951 -0.8274  0.9162  2.3185
19458TIP3   OH279788   5.646   5.415  13.141 -0.5141 -0.5271 -0.3532
19458TIP3    H179789   5.606   5.494  13.177 -1.2378 -1.1493  0.2449
19458TIP3    H279790   5.645   5.353  13.214 -0.6707 -1.3397 -1.0326
19459TIP3   OH279791   3.428   2.501  11.090 -0.2201  0.5412  0.4522
19459TIP3    H179792   3.452   2.593  11.086 -0.9672  0.7914  1.3539
19459TIP3    H279793   3.479   2.466  11.164  1.2758 -0.1712 -0.8602
19460TIP3   OH279794   6.050   2.544   4.905  0.1726 -0.0554  0.0304
19460TIP3    H179795   6.136   2.521   4.870 -0.4199 -1.0927 -0.7886
19460TIP3    H279796   6.054   2.639   4.918  1.1644  0.0262 -0.7501
19461TIP3   OH279797   6.652   1.178  16.428  0.1647  0.5537 -0.1754
19461TIP3    H179798   6.641   1.272  16.411 -0.5052  0.7240  1.0674
19461TIP3    H279799   6.725   1.152  16.372  1.1324  2.0637  0.3082
19462TIP3   OH279800   0.926   1.324  13.877  0.3928  0.0438  0.0780
19462TIP3    H179801   0.996   1.276  13.921  0.6291  0.4470  0.1408
19462TIP3    H279802   0.862   1.256  13.853 -0.0268 -0.1219  1.5655
19463TIP3   OH279803   4.573   5.945  16.012 -0.4416  0.0232 -0.1257
19463TIP3    H179804   4.657   5.912  16.042 -1.0460 -1.2386  0.2359
19463TIP3    H279805   4.581   6.041  16.018  1.1908 -0.0414 -0.7719
19464TIP3   OH279806   2.214   2.958  13.858 -1.0337 -0.0077  0.7717
19464TIP3    H179807   2.119   2.967  13.860 -1.1340 -0.5909 -0.6774
19464TIP3    H279808   2.238   2.944  13.950 -2.6666 -3.0179  0.8573
19465TIP3   OH279809   1.712   4.637  12.123 -0.2503 -0.0756 -0.3863
19465TIP3    H179810   1.705   4.561  12.065 -0.0610 -0.6910  0.3829
19465TIP3    H279811   1.637   4.630  12.182 -1.0496  1.1322 -1.2147
19466TIP3   OH279812   2.506   3.286   3.533 -0.1722  0.4837 -0.4286
19466TIP3    H179813   2.479   3.352   3.597 -2.3999  0.4088 -1.2083
19466TIP3    H279814   2.582   3.244   3.573  0.4653  2.5727  0.7076
19467TIP3   OH279815   4.247   2.276  11.268  0.1768  0.3385 -0.0701
19467TIP3    H179816   4.193   2.354  11.280  0.8578  1.1027 -1.6633
19467TIP3    H279817   4.194   2.219  11.211  0.5032  0.5058 -0.5403
19468TIP3   OH279818   1.389   4.656   4.776  0.4611 -0.2043  0.0645
19468TIP3    H179819   1.318   4.701   4.730  0.1014 -1.8720 -1.0934
19468TIP3    H279820   1.405   4.709   4.853 -1.1611  0.9130 -0.3232
19469TIP3   OH279821   3.840   3.046   6.283 -0.2690 -0.1340  0.0480
19469TIP3    H179822   3.759   3.047   6.233 -0.7609  0.4556  0.8344
19469TIP3    H279823   3.819   2.995   6.362 -0.3504  1.2860  0.9811
19470TIP3   OH279824   6.148   1.189  10.927 -0.3826 -0.2548  0.4465
19470TIP3    H179825   6.194   1.244  10.991 -1.6428  0.2449  0.9386
19470TIP3    H279826   6.151   1.240  10.846 -2.1294  0.9028  1.0596
19471TIP3   OH279827   2.685   0.037   1.562  0.2185  0.6035  0.0332
19471TIP3    H179828   2.658  -0.054   1.567  1.1737  0.3309  0.4877
19471TIP3    H279829   2.711   0.059   1.652  3.4970  0.1958 -0.6911
19472TIP3   OH279830   2.763   1.854   1.051 -0.3604 -0.3954  0.5451
19472TIP3    H179831   2.752   1.838   1.145  0.4758 -0.3598  0.6509
19472TIP3    H279832   2.855   1.876   1.040  0.0324 -2.3410 -0.5614
19473TIP3   OH279833   4.252   2.114   4.527 -0.6270  0.8255 -0.1574
19473TIP3    H179834   4.219   2.059   4.456 -2.1316  0.4588  0.7823
19473TIP3    H279835   4.174   2.136   4.578  0.5369  0.0943  2.0683
19474TIP3   OH279836   1.420   4.976   5.484 -0.1069  0.2332  0.4002
19474TIP3    H179837   1.374   5.051   5.521 -0.0178 -0.0418  1.0738
19474TIP3    H279838   1.509   4.982   5.519  0.0009  0.0151  0.1686
19475TIP3   OH279839   4.777   1.498  13.073  0.1524  0.2140  0.7300
19475TIP3    H179840   4.813   1.419  13.112 -0.4055 -1.1607 -1.3493
19475TIP3    H279841   4.792   1.487  12.979 -0.7727  2.1623  0.2986
19476TIP3   OH279842   3.663   2.450   1.252 -0.0844  0.4354  0.3976
19476TIP3    H179843   3.713   2.511   1.307 -1.4611  0.3217  1.8469
19476TIP3    H279844   3.715   2.370   1.252 -0.7379 -0.0923  2.9060
19477TIP3   OH279845   5.568   0.083   2.277 -0.4153 -0.2211  0.2358
19477TIP3    H179846   5.478   0.117   2.281  0.2421  1.5160  1.4798
19477TIP3    H279847   5.622   0.161   2.270  1.0987 -1.1020  1.5216
19478TIP3   OH279848   3.903   5.915  16.579 -0.0554 -0.1994 -0.4085
19478TIP3    H179849   3.874   5.904  16.670  2.0608  1.1246  0.4925
19478TIP3    H279850   3.884   5.830  16.538 -2.5474 -0.3142  0.7631
19479TIP3   OH279851   0.398   0.244   3.654 -0.5021 -0.6481  0.2455
19479TIP3    H179852   0.369   0.154   3.670 -0.8331 -0.6445 -0.2936
19479TIP3    H279853   0.359   0.295   3.725 -3.2160 -0.3862 -1.3035
19480TIP3   OH279854   4.459   0.343  11.812 -0.4169  0.4308 -0.2201
19480TIP3    H179855   4.554   0.353  11.799 -0.4058 -0.7255 -1.2209
19480TIP3    H279856   4.448   0.346  11.907  0.9274 -1.6093  0.0676
19481TIP3   OH279857   5.794   3.671  15.632 -0.1892  0.1747  0.4647
19481TIP3    H179858   5.799   3.718  15.548 -0.2536  0.5734  0.6772
19481TIP3    H279859   5.773   3.740  15.696  1.1807  0.1186  1.0189
19482TIP3   OH279860   5.562   1.307  13.559 -0.3226 -0.4692  0.1233
19482TIP3    H179861   5.469   1.321  13.541 -0.4151  1.2824  1.7274
19482TIP3    H279862   5.563   1.244  13.631 -0.3474  0.3047  0.8234
19483TIP3   OH279863   3.730   5.681  15.135  0.7565  0.8088  0.3671
19483TIP3    H179864   3.813   5.696  15.090  0.0839  1.1820 -0.8078
19483TIP3    H279865   3.716   5.586  15.129 -1.2108  1.1505 -3.8919
19484TIP3   OH279866   6.299   0.144  13.669  0.5305 -0.1556  0.2983
19484TIP3    H179867   6.381   0.193  13.673 -0.2805  1.2079  1.0149
19484TIP3    H279868   6.280   0.120  13.759 -0.9014  1.4276  0.4799
19485TIP3   OH279869   4.457   0.211   0.151 -0.1711 -0.2296 -0.9372
19485TIP3    H179870   4.446   0.291   0.203  0.9486 -0.2948 -0.5665
19485TIP3    H279871   4.368   0.187   0.125 -1.0518 -1.1867  2.4723
19486TIP3   OH279872   1.615   2.551   4.723  0.5259 -0.3157  0.3464
19486TIP3    H179873   1.665   2.472   4.704  0.1671 -0.9269  1.8540
19486TIP3    H279874   1.538   2.544   4.666  1.6845  0.2236 -1.3655
19487TIP3   OH279875   5.505   3.090   5.634 -0.4143 -0.3470  0.0950
19487TIP3    H179876   5.525   3.094   5.728 -3.1382  1.0829  0.7425
19487TIP3    H279877   5.413   3.118   5.629 -0.6676 -1.4324 -2.9156
19488TIP3   OH279878   5.679   3.771  16.391 -0.1060 -0.3824  0.5979
19488TIP3    H179879   5.750   3.808  16.443 -1.1814  0.1522  1.7344
19488TIP3    H279880   5.636   3.847  16.351  0.4907 -0.7595 -0.8351
19489TIP3   OH279881   1.212   5.823  13.268 -0.1123 -0.1255  0.0851
19489TIP3    H179882   1.236   5.751  13.209 -1.5722  0.9084 -1.8647
19489TIP3    H279883   1.247   5.901  13.225 -0.7525  0.5983  0.8600
19490TIP3   OH279884   4.193   1.363  14.488  0.5474 -0.1721 -0.3148
19490TIP3    H179885   4.102   1.378  14.513  0.3081  1.1889 -1.8669
19490TIP3    H279886   4.194   1.374  14.393  2.0676 -1.6399 -0.5184
19491TIP3   OH279887   2.415   6.145   3.539 -0.1560 -0.6034  0.1628
19491TIP3    H179888   2.435   6.238   3.544 -1.0493 -0.2650 -1.5040
19491TIP3    H279889   2.497   6.103   3.515 -0.3261  0.1597 -1.9525
19492TIP3   OH279890   4.255   4.935  13.299 -0.3973 -0.3039 -0.0241
19492TIP3    H179891   4.199   4.861  13.321 -0.5807  0.1936  1.2582
19492TIP3    H279892   4.237   5.001  13.366  1.6479 -0.0916  0.3864
19493TIP3   OH279893   4.516   4.857   5.926  0.3521 -0.0134 -0.6768
19493TIP3    H179894   4.568   4.891   5.999 -0.1889  1.1757 -0.8172
19493TIP3    H279895   4.425   4.875   5.950  0.2217  2.7331 -2.6550
19494TIP3   OH279896   5.719   1.435  14.735  0.4851 -0.3259  0.1117
19494TIP3    H179897   5.694   1.420  14.644 -3.0256  0.0944  0.8457
19494TIP3    H279898   5.766   1.518  14.734 -0.9954  0.5464 -1.1473
19495TIP3   OH279899   4.883   5.664  16.582 -0.3861 -0.6424 -0.3706
19495TIP3    H179900   4.863   5.696  16.494  0.6508 -1.0012 -0.7475
19495TIP3    H279901   4.838   5.725  16.640 -0.9750 -0.3255 -1.1425
19496TIP3   OH279902   4.658   4.458   3.449  0.0797 -0.7640 -0.1723
19496TIP3    H179903   4.753   4.447   3.456 -0.0655 -0.8924  2.6961
19496TIP3    H279904   4.623   4.370   3.454 -0.2033 -1.0554 -4.3088
19497TIP3   OH279905   0.587   0.123   1.993  0.3330 -0.0128 -0.0546
19497TIP3    H179906   0.654   0.191   2.002 -1.1904  1.3213  1.8509
19497TIP3    H279907   0.517   0.165   1.944  0.8805 -1.4787 -2.2481
19498TIP3   OH279908   3.047   2.489  14.486  0.1383  0.2990  0.7367
19498TIP3    H179909   3.021   2.407  14.527  1.7361 -1.5789 -1.7000
19498TIP3    H279910   2.965   2.529  14.459 -0.6537 -2.1924 -0.9150
19499TIP3   OH279911   6.466   5.584   2.626 -0.4657 -0.0549 -0.0925
19499TIP3    H179912   6.505   5.629   2.702 -0.6056 -2.1620  1.3305
19499TIP3    H279913   6.519   5.504   2.617 -1.9941 -1.0373 -0.6545
19500TIP3   OH279914   2.502   3.316  16.421  0.1886  0.4002  0.2205
19500TIP3    H179915   2.493   3.385  16.354  0.5638 -0.2264 -0.4842
19500TIP3    H279916   2.546   3.244  16.376 -0.0408 -0.2430  1.0013
19501TIP3   OH279917   0.021   6.243  15.176 -0.2384 -0.3154  0.8004
19501TIP3    H179918  -0.005   6.207  15.091  1.3414  1.0594 -0.3368
19501TIP3    H279919  -0.061   6.274  15.215 -0.9877 -0.9168 -0.2436
19502TIP3   OH279920   3.149   5.727   3.183 -0.6462 -0.0812  0.0536
19502TIP3    H179921   3.169   5.663   3.252  2.1652  0.0175 -0.5651
19502TIP3    H279922   3.160   5.812   3.225 -0.0255 -0.0236 -0.2171
19503TIP3   OH279923   5.894   1.766   1.575  0.0836  0.4378 -0.6636
19503TIP3    H179924   5.916   1.747   1.666  0.1381  1.0494 -0.5452
19503TIP3    H279925   5.812   1.720   1.560  0.7069 -0.7181 -0.6887
19504TIP3   OH279926   5.998   2.606  16.459  0.3101  0.0549  0.1627
19504TIP3    H179927   5.942   2.596  16.536  1.8903  0.1982  1.3781
19504TIP3    H279928   5.990   2.523  16.412  0.2870 -0.5137  1.1440
19505TIP3   OH279929   5.873   0.538  16.511 -0.4312 -0.7719 -0.2272
19505TIP3    H179930   5.807   0.471  16.491 -1.6326  0.7776 -1.7902
19505TIP3    H279931   5.857   0.607  16.447  1.5240  0.5088  0.5725
19506TIP3   OH279932   1.031   6.129   1.713 -0.0929 -0.1560  0.1658
19506TIP3    H179933   0.951   6.085   1.684  0.3953 -0.7334 -0.3387
19506TIP3    H279934   1.000   6.198   1.771 -0.8367 -1.6819  1.6725
19507TIP3   OH279935   0.698   1.092   4.940 -0.4685  0.9180 -0.3818
19507TIP3    H179936   0.690   1.177   4.896  1.8695  1.0763 -0.6398
19507TIP3    H279937   0.790   1.067   4.927 -1.0122 -1.5233 -0.0504
19508TIP3   OH279938   3.395   5.920   6.416  0.0066 -0.5034 -0.1262
19508TIP3    H179939   3.435   5.995   6.460 -1.5784  1.0049 -1.1249
19508TIP3    H279940   3.338   5.882   6.482 -1.4388  1.0185 -0.4230
19509TIP3   OH279941   4.002   0.944  15.640  0.0041 -0.3916  0.4233
19509TIP3    H179942   4.076   0.937  15.580 -0.7004 -0.1233 -0.4941
19509TIP3    H279943   3.980   1.037  15.641 -0.5880 -0.5243  0.3535
19510TIP3   OH279944   2.063   4.755   0.651 -0.0827  0.2432  0.4545
19510TIP3    H179945   2.043   4.846   0.632  0.4277  0.3685  0.4909
19510TIP3    H279946   2.013   4.735   0.730 -0.1494  0.5104  0.4801
19511TIP3   OH279947   4.646   2.840   1.711 -0.1541  0.0760 -0.2682
19511TIP3    H179948   4.732   2.866   1.742  0.6383 -1.6730 -0.8942
19511TIP3    H279949   4.622   2.765   1.766 -0.3008 -0.7954 -1.4735
19512TIP3   OH279950   2.951   3.454  12.260  0.5967 -0.2639  0.5626
19512TIP3    H179951   2.995   3.369  12.265  0.4824 -0.3259  0.5292
19512TIP3    H279952   2.867   3.435  12.219  1.0762  0.0511 -0.6241
19513TIP3   OH279953   1.739   1.101  15.728  0.2260 -0.1389 -1.1712
19513TIP3    H179954   1.687   1.021  15.734 -0.2369 -0.0894 -3.5259
19513TIP3    H279955   1.678   1.168  15.698  1.0447  0.6269 -1.1943
19514TIP3   OH279956   0.445   6.584  15.658  0.0669  0.1530 -0.4774
19514TIP3    H179957   0.476   6.527  15.729 -1.6433  1.8276  1.7497
19514TIP3    H279958   0.498   6.559  15.583  1.3021 -2.4175  1.1050
19515TIP3   OH279959   1.544   2.080   5.809  0.0776 -0.1732  0.1076
19515TIP3    H179960   1.637   2.097   5.822  0.3085 -1.4753  0.3231
19515TIP3    H279961   1.506   2.088   5.896 -0.1098  0.8709 -0.0648
19516TIP3   OH279962   5.363   6.456  17.171  0.0255  0.0984 -0.1840
19516TIP3    H179963   5.409   6.377  17.145  1.6023  1.5466 -2.1152
19516TIP3    H279964   5.339   6.499  17.089 -0.5293  1.7731  0.7883
19517TIP3   OH279965   2.013   4.521  12.117  0.2641  0.2351  0.1587
19517TIP3    H179966   1.997   4.573  12.195 -0.4820  0.1752  0.0558
19517TIP3    H279967   1.982   4.433  12.140 -0.4049  0.3259 -0.3528
19518TIP3   OH279968   0.802   3.252   4.812  0.2535  0.3350  0.6534
19518TIP3    H179969   0.810   3.209   4.727 -0.7721  0.2547  0.5749
19518TIP3    H279970   0.889   3.285   4.832  0.7697 -0.6846  0.1269
19519TIP3   OH279971   6.389   2.316   6.423  0.5254 -0.3810 -0.0984
19519TIP3    H179972   6.392   2.352   6.512  0.5236 -0.1028 -0.2099
19519TIP3    H279973   6.300   2.331   6.394  1.2671  2.3197 -1.2763
19520TIP3   OH279974   0.219   3.813  14.356 -0.2772  0.0199  0.0738
19520TIP3    H179975   0.146   3.840  14.411  0.0795  0.3820  0.3738
19520TIP3    H279976   0.293   3.867  14.384 -0.2012  0.5520 -1.0597
19521TIP3   OH279977   0.324   3.285   4.348 -0.4704 -0.2440  0.7131
19521TIP3    H179978   0.248   3.338   4.325 -0.8593 -0.8823  0.4929
19521TIP3    H279979   0.303   3.197   4.315 -0.0633 -0.6553  1.5127
19522TIP3   OH279980   3.796   5.232   0.030  0.4994 -0.2575 -0.5552
19522TIP3    H179981   3.728   5.298   0.042  1.5136  0.6035  0.8327
19522TIP3    H279982   3.808   5.227  -0.065  0.3253  1.5211 -0.7064
19523TIP3   OH279983   0.123   4.202   0.488 -0.3317 -0.4153 -0.1524
19523TIP3    H179984   0.143   4.277   0.432  0.5758 -1.4301 -1.2420
19523TIP3    H279985   0.071   4.239   0.559 -3.3327  0.6514 -2.6570
19524TIP3   OH279986   3.590   3.660  10.424 -0.2149 -0.0210 -0.6221
19524TIP3    H179987   3.544   3.728  10.472 -0.2667  0.9606 -1.9964
19524TIP3    H279988   3.670   3.703  10.393 -0.6288 -0.3076 -2.1939
19525TIP3   OH279989   0.188   3.126  12.970  0.1841  0.3111  0.0887
19525TIP3    H179990   0.125   3.054  12.970  2.8350 -2.2866  1.5301
19525TIP3    H279991   0.190   3.155  13.061 -0.2309  1.6348 -0.3164
19526TIP3   OH279992   4.396   3.171   6.061 -0.4506  0.0783  0.2290
19526TIP3    H179993   4.332   3.197   5.995  0.7388  0.2118 -0.8893
19526TIP3    H279994   4.444   3.251   6.081  0.3460 -0.3368 -0.0190
19527TIP3   OH279995   3.723   3.559  16.219  0.1787 -0.0587 -0.0962
19527TIP3    H179996   3.763   3.474  16.198  1.5601  0.4900  0.2525
19527TIP3    H279997   3.764   3.621  16.159  1.2580  0.8363  1.4862
19528TIP3   OH279998   5.969   4.854   1.404  0.1906  0.0090  0.8485
19528TIP3    H179999   5.904   4.886   1.342 -1.2424  0.9651  2.7319
19528TIP3    H280000   6.040   4.819   1.349 -1.2093  0.3235 -1.2770
19529TIP3   OH280001   4.827   6.775   0.571  0.1425  0.2262 -0.5357
19529TIP3    H180002   4.814   6.768   0.665  1.6769 -0.6451 -0.3550
19529TIP3    H280003   4.853   6.866   0.557 -1.1327  0.6508 -0.2870
19530TIP3   OH280004   0.785   6.166  11.322  0.0294 -0.2686 -0.6197
19530TIP3    H180005   0.831   6.184  11.240  0.2040  0.3569 -0.3909
19530TIP3    H280006   0.805   6.074  11.341 -0.5432 -0.6093 -1.6049
19531TIP3   OH280007   2.136   5.057   1.659  0.8779 -0.3914  0.4565
19531TIP3    H180008   2.080   4.999   1.607  1.6370 -0.0489 -0.7784
19531TIP3    H280009   2.225   5.033   1.633  1.2007  2.2147 -1.1330
19532TIP3   OH280010   5.931   1.527  16.568 -0.0712  0.2933 -0.5144
19532TIP3    H180011   5.871   1.567  16.505 -1.6011 -0.7881  0.2100
19532TIP3    H280012   5.882   1.454  16.606  1.6178 -0.4748  0.3044
19533TIP3   OH280013   5.797   3.208   1.040 -0.0271  0.3761 -0.0109
19533TIP3    H180014   5.717   3.204   1.091  1.0130  0.5433  1.7144
19533TIP3    H280015   5.819   3.116   1.023 -0.2681  0.3110  0.0284
19534TIP3   OH280016   1.871   5.864  11.351  0.1549 -0.2307  0.1845
19534TIP3    H180017   1.808   5.792  11.344  1.7750 -1.8885  1.6239
19534TIP3    H280018   1.835   5.920  11.420 -0.5671 -0.2480 -0.1712
19535TIP3   OH280019   3.733   1.814   3.842 -0.4333 -0.2631  0.2234
19535TIP3    H180020   3.721   1.868   3.764  0.5367 -0.1820  0.1226
19535TIP3    H280021   3.676   1.738   3.828 -3.1992  1.5016  1.1498
19536TIP3   OH280022   3.566   1.464  15.124 -0.4212  0.3815  0.0551
19536TIP3    H180023   3.538   1.469  15.033 -2.3718  1.8349  0.6591
19536TIP3    H280024   3.608   1.549  15.141  0.1083  0.0456  0.4641
19537TIP3   OH280025   3.051   3.069   3.028  0.3522  0.1675  0.1053
19537TIP3    H180026   3.010   2.986   3.048 -0.3064  0.4608  0.0047
19537TIP3    H280027   3.065   3.067   2.933  0.8635 -0.0573  0.1808
19538TIP3   OH280028   6.308   6.427  14.097  0.0536 -0.4501 -0.1250
19538TIP3    H180029   6.369   6.500  14.089  0.3214 -0.6544  0.0081
19538TIP3    H280030   6.356   6.352  14.063 -0.1128 -0.6194  0.0119
19539TIP3   OH280031   5.649   0.580   4.826 -0.3711  0.2341 -0.4518
19539TIP3    H180032   5.726   0.528   4.804 -0.4155 -0.3798  0.8110
19539TIP3    H280033   5.635   0.565   4.919 -1.9896  0.3834 -0.6478
19540TIP3   OH280034   0.396   2.161   3.060  0.3744  0.1790  0.5247
19540TIP3    H180035   0.418   2.142   3.152  0.0471  0.0938  0.5842
19540TIP3    H280036   0.390   2.075   3.019  0.4061  0.2133  0.4484
19541TIP3   OH280037   0.145   0.746  10.521 -0.4250 -0.2290 -0.0887
19541TIP3    H180038   0.105   0.832  10.530  1.8989  1.0097 -0.8129
19541TIP3    H280039   0.202   0.738  10.598 -0.9443 -1.3464  0.2064
19542TIP3   OH280040   0.337   1.099  13.638  0.0795  0.5760 -0.4417
19542TIP3    H180041   0.363   1.082  13.728 -1.2084  0.4352 -0.0722
19542TIP3    H280042   0.368   1.023  13.589  1.1351  0.8407 -0.1949
19543TIP3   OH280043   2.617   6.425   5.909 -0.0019  0.6235 -0.1178
19543TIP3    H180044   2.618   6.484   5.985 -2.5602 -0.3192  0.7532
19543TIP3    H280045   2.629   6.337   5.947  1.2089  0.3223 -1.1235
19544TIP3   OH280046   1.267   2.041  12.719  0.4481  0.1596  0.6273
19544TIP3    H180047   1.293   1.959  12.677  2.5373  1.1021 -0.0289
19544TIP3    H280048   1.176   2.053  12.693  0.5059 -1.2845 -0.3615
19545TIP3   OH280049   2.993   5.016  12.545 -0.4501  0.1388  0.2975
19545TIP3    H180050   3.044   4.936  12.532  0.0656  0.3655  0.8908
19545TIP3    H280051   3.051   5.074  12.594 -0.5235  1.1787 -0.7863
19546TIP3   OH280052   0.144   5.592  16.472  0.1027  0.4109  0.2809
19546TIP3    H180053   0.087   5.575  16.547 -0.3174  1.1365  0.1362
19546TIP3    H280054   0.086   5.586  16.396 -0.0759  2.3353  0.2155
19547TIP3   OH280055   1.484   0.106   3.615  0.3361  0.8170  0.3866
19547TIP3    H180056   1.557   0.107   3.554  0.4240  0.9074  0.4942
19547TIP3    H280057   1.417   0.054   3.571  0.1782  1.3764 -0.0495
19548TIP3   OH280058   1.081   3.231   3.044  0.2568  0.0566  0.0227
19548TIP3    H180059   1.063   3.316   3.004  0.1859  0.8620  1.7068
19548TIP3    H280060   1.033   3.232   3.126  0.5971 -1.4557  0.2624
19549TIP3   OH280061   1.287   2.557   5.139 -0.3038  0.4524 -0.4934
19549TIP3    H180062   1.290   2.644   5.178 -1.1192  0.8173 -1.2047
19549TIP3    H280063   1.370   2.516   5.165  0.3358  1.6322 -0.6004
19550TIP3   OH280064   5.132   1.847  11.019 -0.1290 -0.2205  0.2919
19550TIP3    H180065   5.197   1.786  10.984 -0.1134 -0.4128  0.6492
19550TIP3    H280066   5.054   1.793  11.034 -0.5572  0.1167 -0.6543
19551TIP3   OH280067   5.270   5.429   2.038  0.2260  0.1086 -0.6289
19551TIP3    H180068   5.270   5.336   2.061  2.5200  0.4637  1.2178
19551TIP3    H280069   5.342   5.466   2.088 -1.3284  3.1500 -0.3942
19552TIP3   OH280070   5.059   6.439   2.931  0.6331  0.3186 -0.4899
19552TIP3    H180071   5.060   6.524   2.888 -0.2999  0.1008 -0.9841
19552TIP3    H280072   5.022   6.380   2.865  1.3908 -0.4976 -0.2049
19553TIP3   OH280073   3.719   4.708  11.174 -0.3750  0.1021 -0.8941
19553TIP3    H180074   3.652   4.688  11.239  0.3469  0.9527  0.1603
19553TIP3    H280075   3.697   4.654  11.098 -1.0227 -1.2086  0.1905
19554TIP3   OH280076   6.689   5.690  12.238  1.0460  0.0990 -0.2105
19554TIP3    H180077   6.759   5.682  12.173 -0.1961  1.1483 -1.7590
19554TIP3    H280078   6.654   5.778  12.225  0.0394 -0.0622  1.1645
19555TIP3   OH280079   5.917   3.545  17.090  0.1687  0.0026  0.1262
19555TIP3    H180080   5.847   3.609  17.105 -1.3405 -0.6712 -3.0835
19555TIP3    H280081   5.952   3.568  17.005  0.1720 -2.8436 -0.7507
19556TIP3   OH280082   5.081   3.471   3.914 -0.1422  0.1002 -0.0483
19556TIP3    H180083   5.135   3.410   3.863 -0.5134 -1.9355  1.8021
19556TIP3    H280084   4.993   3.459   3.879 -0.6239 -2.2416  1.7468
19557TIP3   OH280085   4.781   4.532   0.297 -0.6126  0.1911  0.0102
19557TIP3    H180086   4.719   4.598   0.268 -1.8192 -0.7139  0.4131
19557TIP3    H280087   4.751   4.508   0.385 -0.6985 -1.4328 -0.4298
19558TIP3   OH280088   6.632   4.012  16.859  0.5779 -0.0521 -0.2794
19558TIP3    H180089   6.615   3.919  16.866  0.5330  0.0873  2.3724
19558TIP3    H280090   6.547   4.051  16.839  0.3620 -0.4654 -0.1746
19559TIP3   OH280091   5.753   3.449  12.434 -0.7245 -0.2248  0.7895
19559TIP3    H180092   5.834   3.405  12.407 -0.3936  0.9153 -0.1563
19559TIP3    H280093   5.741   3.423  12.525 -0.3856 -2.0081  0.3736
19560TIP3   OH280094   2.068   0.016  11.197  0.6405  0.0296  0.6217
19560TIP3    H180095   2.092   0.013  11.290  2.4104 -0.2906  0.1938
19560TIP3    H280096   2.147   0.046  11.153 -0.9690  2.9111 -0.5626
19561TIP3   OH280097   5.932   3.732  16.897  0.3241 -0.1017 -0.7161
19561TIP3    H180098   5.854   3.690  16.861 -0.1820 -0.2770  0.5462
19561TIP3    H280099   6.003   3.705  16.838 -0.2271 -1.5823 -0.7418
19562TIP3   OH280100   2.224   0.119  10.216 -0.7938 -0.0810 -0.2852
19562TIP3    H180101   2.165   0.152  10.147 -1.4260 -0.4837  0.0494
19562TIP3    H280102   2.180   0.143  10.298 -0.9213 -1.1434 -0.0336
19563TIP3   OH280103   6.751   2.016   1.665  0.0387  0.1468  0.6201
19563TIP3    H180104   6.687   1.972   1.721 -3.5849  2.5978 -1.1580
19563TIP3    H280105   6.751   2.107   1.696  0.1184  0.9131 -1.4793
19564TIP3   OH280106   2.609   0.364  13.066 -0.1501  0.3257 -0.1065
19564TIP3    H180107   2.697   0.330  13.081 -0.5235 -0.1961  0.9908
19564TIP3    H280108   2.564   0.353  13.149 -1.4099  0.1271 -0.7879
19565TIP3   OH280109   0.402   1.186   0.084 -0.0316 -0.0983  0.7465
19565TIP3    H180110   0.447   1.269   0.102  0.4552 -0.0186 -0.6517
19565TIP3    H280111   0.455   1.120   0.128  0.4399  0.1949  0.6353
19566TIP3   OH280112   2.167   2.495  16.725 -0.5618  0.1010 -0.2031
19566TIP3    H180113   2.091   2.549  16.745 -1.3554 -0.3724 -1.7602
19566TIP3    H280114   2.180   2.441  16.803 -0.9256  1.1690  0.6260
19567TIP3   OH280115   0.108   6.314   5.605  0.0602  0.1819 -0.0613
19567TIP3    H180116   0.039   6.324   5.670 -0.4671  0.2881 -0.6299
19567TIP3    H280117   0.178   6.269   5.652 -0.1069  0.7087  0.7190
19568TIP3   OH280118   4.449   3.914  12.050 -0.4835  0.2398  0.1420
19568TIP3    H180119   4.419   3.874  12.131 -0.1882 -0.7698 -0.2274
19568TIP3    H280120   4.401   3.996  12.044 -0.3206  0.4419  1.4559
19569TIP3   OH280121   1.710   4.998  14.317 -0.1577 -0.2916  0.5316
19569TIP3    H180122   1.801   5.016  14.292 -0.9145  2.0329 -0.8848
19569TIP3    H280123   1.690   5.064  14.383 -1.3622  0.5278 -0.6051
19570TIP3   OH280124   6.417   1.713   0.506  0.0161  0.3205 -0.0656
19570TIP3    H180125   6.379   1.793   0.542  1.7784  1.4039 -0.4740
19570TIP3    H280126   6.482   1.687   0.572  0.5037  0.0905 -0.6323
19571TIP3   OH280127   3.010   0.191   4.705  0.3070 -0.5656  0.0711
19571TIP3    H180128   2.951   0.116   4.693  1.0922 -1.0962 -0.5873
19571TIP3    H280129   3.089   0.167   4.657  1.7816 -0.6513  2.3704
19572TIP3   OH280130   3.925   0.028  16.239  0.3246 -0.3834  0.4986
19572TIP3    H180131   3.867   0.007  16.166  0.0272  1.1153  0.2808
19572TIP3    H280132   3.909   0.120  16.258  2.3397 -0.0061  0.6788
19573TIP3   OH280133   5.100   3.589   2.204 -0.3717 -0.1896 -0.0814
19573TIP3    H180134   5.111   3.683   2.218 -3.5517  0.2566  0.2635
19573TIP3    H280135   5.105   3.551   2.292 -1.1307 -0.0140  0.0503
19574TIP3   OH280136   3.319   0.433   4.086  0.6972 -0.3853 -0.2899
19574TIP3    H180137   3.308   0.347   4.044 -0.6936 -1.1612  1.5085
19574TIP3    H280138   3.332   0.494   4.013 -1.4892 -1.6483 -1.8938
19575TIP3   OH280139   4.218   2.870  10.622 -0.5596  0.0153  0.2058
19575TIP3    H180140   4.287   2.804  10.629 -2.7670 -2.5919 -1.0626
19575TIP3    H280141   4.237   2.915  10.539  0.6002  0.6038  0.7644
19576TIP3   OH280142   4.213   3.120  16.151 -0.0042  0.5548  0.0929
19576TIP3    H180143   4.307   3.121  16.133  0.0989  0.4492  0.6173
19576TIP3    H280144   4.185   3.032  16.125  0.0980  0.4825  0.2295
19577TIP3   OH280145   0.906   1.104  10.521 -0.2499 -0.7444  0.3942
19577TIP3    H180146   0.866   1.039  10.578 -0.8651 -0.7654 -0.0445
19577TIP3    H280147   0.991   1.124  10.561 -0.1895 -1.5913  0.6931
19578TIP3   OH280148   0.465   2.285   5.552 -0.3838  0.0957  0.0857
19578TIP3    H180149   0.489   2.356   5.493 -0.4075 -0.3284 -0.4448
19578TIP3    H280150   0.418   2.223   5.496  4.3725 -3.1303 -1.0008
19579TIP3   OH280151   4.337   5.624   4.583  0.2230  0.2905  0.3672
19579TIP3    H180152   4.359   5.700   4.530  2.4559  0.3049  1.2236
19579TIP3    H280153   4.367   5.549   4.531 -1.7824 -0.0478 -0.3824
19580TIP3   OH280154   4.748   3.576  13.111 -0.3725  0.1181  0.5471
19580TIP3    H180155   4.721   3.666  13.129 -1.3444 -0.2453  0.9646
19580TIP3    H280156   4.814   3.584  13.042 -1.0539  1.0849 -0.0111
19581TIP3   OH280157   2.337   4.791   0.931 -0.3073 -0.0826 -0.6130
19581TIP3    H180158   2.313   4.707   0.972  0.0496 -0.5757 -1.3778
19581TIP3    H280159   2.258   4.844   0.936 -0.7064 -0.6690 -0.6184
19582TIP3   OH280160   3.560   6.168   3.545 -0.0654  0.4298 -0.0982
19582TIP3    H180161   3.637   6.218   3.571  0.5721 -0.6577  0.1941
19582TIP3    H280162   3.596   6.090   3.502 -1.0555  1.0629 -2.1849
19583TIP3   OH280163   0.516   3.397  16.744  0.2108  0.5949 -0.4800
19583TIP3    H180164   0.461   3.379  16.821  1.4996  0.0105  0.3517
19583TIP3    H280165   0.569   3.472  16.771  0.5849  0.4598 -0.8463
19584TIP3   OH280166   2.438   1.882   0.356  0.9484  0.1258  0.3680
19584TIP3    H180167   2.466   1.796   0.385 -0.9403 -0.6058  0.1467
19584TIP3    H280168   2.390   1.866   0.274  0.6602  1.3908  0.2632
19585TIP3   OH280169   0.925   0.752   1.185  0.7656  0.6064 -0.5025
19585TIP3    H180170   0.871   0.826   1.159 -0.4844 -0.1250 -0.1232
19585TIP3    H280171   0.970   0.781   1.264  0.1546  0.9147 -0.2633
19586TIP3   OH280172   2.103   1.430  13.903  0.0021 -0.0924  0.1538
19586TIP3    H180173   2.074   1.363  13.841  2.1003  0.3683 -1.4139
19586TIP3    H280174   2.052   1.413  13.982  1.0102 -4.1260  0.1426
19587TIP3   OH280175   5.100   1.523  14.404 -0.3256  0.3334 -0.7174
19587TIP3    H180176   5.142   1.605  14.380  0.9067 -0.3185 -0.8721
19587TIP3    H280177   5.171   1.468  14.438 -0.8864 -1.1050 -1.7263
19588TIP3   OH280178   5.175   3.942   5.123 -0.2431 -0.5876 -0.0696
19588TIP3    H180179   5.083   3.947   5.146 -0.5448 -0.1755 -1.3092
19588TIP3    H280180   5.196   3.849   5.129 -1.1682 -0.9004 -1.3256
19589TIP3   OH280181   2.883   5.064  12.962 -0.2736 -0.3050  0.1599
19589TIP3    H180182   2.820   4.993  12.970 -1.0010  0.3660  0.4874
19589TIP3    H280183   2.831   5.143  12.964  0.4037  0.2344 -1.4181
19590TIP3   OH280184   1.783   3.363   3.212 -0.1329  0.5138  0.3161
19590TIP3    H180185   1.727   3.388   3.138  0.3152  0.1704 -0.1449
19590TIP3    H280186   1.850   3.307   3.173 -0.4356 -0.4528  1.1350
19591TIP3   OH280187   0.756   2.144  11.162 -0.0216 -0.4584 -0.0193
19591TIP3    H180188   0.719   2.076  11.105 -1.2241 -0.0191  0.2023
19591TIP3    H280189   0.851   2.134  11.153 -0.1376  0.1440 -2.7434
19592TIP3   OH280190   3.622   2.727   5.853 -0.1662 -0.0138  0.1735
19592TIP3    H180191   3.651   2.786   5.784  1.8359  1.3374  2.0686
19592TIP3    H280192   3.639   2.639   5.818  0.8787  0.6238 -1.0004
19593TIP3   OH280193   0.075   1.398  13.848  0.2953  0.2040 -0.5293
19593TIP3    H180194   0.019   1.459  13.896 -0.1219 -0.5065 -0.1024
19593TIP3    H280195   0.103   1.334  13.913 -0.5331 -0.9517 -1.2719
19594TIP3   OH280196   0.223   0.891  11.598  0.1111  0.0336  0.2525
19594TIP3    H180197   0.218   0.809  11.647  0.5941 -1.1829 -1.6307
19594TIP3    H280198   0.257   0.866  11.512  0.9066  2.3166 -0.1716
19595TIP3   OH280199   0.237   0.252   0.940 -0.2831 -0.5399  0.2771
19595TIP3    H180200   0.162   0.212   0.985  0.3281  1.3450  3.3095
19595TIP3    H280201   0.307   0.188   0.951 -0.5448 -0.7678  0.6787
19596TIP3   OH280202   5.104   0.506   3.561 -0.9400 -0.1016 -0.1149
19596TIP3    H180203   5.146   0.462   3.635  0.1336  0.2272 -0.5111
19596TIP3    H280204   5.140   0.594   3.561  1.3005 -0.8673 -2.6547
19597TIP3   OH280205   2.378   0.774   2.624 -0.7035  0.3862 -0.4857
19597TIP3    H180206   2.359   0.849   2.679 -1.4411 -0.9864  1.2431
19597TIP3    H280207   2.422   0.711   2.682  0.7566 -0.1960 -2.0962
19598TIP3   OH280208   4.290   6.590   3.280  0.4455 -0.0682 -0.0003
19598TIP3    H180209   4.317   6.519   3.222  0.3746  0.2386 -0.4143
19598TIP3    H280210   4.211   6.626   3.238 -0.1219 -0.4114  0.7481
19599TIP3   OH280211   6.711   6.731   4.107  0.2664  0.0603 -0.0412
19599TIP3    H180212   6.803   6.732   4.079  0.3605 -1.4948  0.1094
19599TIP3    H280213   6.663   6.705   4.028  0.1276 -0.5599  0.2407
19600TIP3   OH280214   4.105   0.353   2.268  0.3715 -0.0397  0.0759
19600TIP3    H180215   4.023   0.383   2.228  1.1820  0.5503 -1.2381
19600TIP3    H280216   4.146   0.432   2.302  0.6122 -0.2610  0.3074
19601TIP3   OH280217   1.382   4.594   2.023  0.9318  0.0777  0.3519
19601TIP3    H180218   1.424   4.651   1.959 -0.2959 -1.3522 -1.8556
19601TIP3    H280219   1.294   4.630   2.033  0.5474 -0.7070 -0.1313
19602TIP3   OH280220   0.418   2.520  12.049 -0.1062 -0.3271 -0.4252
19602TIP3    H180221   0.365   2.563  11.982  1.3478 -2.4142 -3.1282
19602TIP3    H280222   0.377   2.435  12.062  0.9315 -0.8509 -0.4487
19603TIP3   OH280223   1.555   4.095  15.148  0.0089  0.5506  0.2124
19603TIP3    H180224   1.530   4.003  15.157  0.1120  0.4360 -0.5917
19603TIP3    H280225   1.639   4.101  15.192  0.6832 -0.0692 -0.9247
19604TIP3   OH280226   1.228   1.221   0.114 -0.5569 -0.1639  0.2170
19604TIP3    H180227   1.245   1.127   0.127  0.2976  0.2636  2.8193
19604TIP3    H280228   1.190   1.249   0.197 -2.7809  1.4344 -1.2401
19605TIP3   OH280229   6.231   5.055   6.177 -0.4094  1.1569  0.3738
19605TIP3    H180230   6.274   5.006   6.246 -0.6831 -0.0164 -0.2570
19605TIP3    H280231   6.294   5.122   6.152  1.2066 -0.6551 -0.6944
19606TIP3   OH280232   5.029   5.392  16.942 -0.0002 -0.0605 -0.2962
19606TIP3    H180233   5.067   5.319  16.893 -0.4576  0.5808 -1.6380
19606TIP3    H280234   5.061   5.470  16.898 -0.9439  0.5243  0.0200
19607TIP3   OH280235   4.828   2.505   3.327  0.2756  0.1481  0.0991
19607TIP3    H180236   4.854   2.468   3.411 -1.3765 -2.2936 -0.3472
19607TIP3    H280237   4.897   2.478   3.266  0.5737  0.3604  0.3428
19608TIP3   OH280238   2.949   6.493  12.249  1.1223 -0.1071  0.2855
19608TIP3    H180239   2.922   6.458  12.164  1.7743  1.6992 -0.7086
19608TIP3    H280240   2.870   6.491  12.302  0.3556  0.0232 -0.8191
19609TIP3   OH280241   4.139   1.089   5.408 -0.3722 -0.5353 -0.0796
19609TIP3    H180242   4.223   1.120   5.444  1.1377 -2.0323 -2.0471
19609TIP3    H280243   4.134   0.997   5.435 -1.7297 -0.3035  0.5362
19610TIP3   OH280244   1.068   0.419  11.865 -0.3402  0.2732  0.7147
19610TIP3    H180245   1.140   0.480  11.885 -1.8968  2.0261  1.3081
19610TIP3    H280246   1.108   0.332  11.870  1.9375  1.1978  0.0895
19611TIP3   OH280247   2.727   0.585   0.664  0.0601  0.0553 -0.3392
19611TIP3    H180248   2.675   0.507   0.644  0.4926 -0.5376  0.7429
19611TIP3    H280249   2.781   0.598   0.587  2.5380 -2.8495  0.6975
19612TIP3   OH280250   2.679   3.312   1.951  0.1050  0.2270 -0.2076
19612TIP3    H180251   2.716   3.398   1.932  0.8882 -0.0844 -0.1586
19612TIP3    H280252   2.751   3.263   1.990 -0.0163 -0.7763 -1.1611
19613TIP3   OH280253   3.060   1.272  13.070 -0.7154 -0.2633  0.5784
19613TIP3    H180254   3.000   1.244  13.139 -1.5236 -1.5411 -0.5943
19613TIP3    H280255   3.004   1.315  13.006 -0.5427 -2.0679 -0.8539
19614TIP3   OH280256   3.383   5.117  16.222  0.1302 -0.0751  0.0416
19614TIP3    H180257   3.387   5.098  16.315 -0.1886  0.4457  0.1687
19614TIP3    H280258   3.297   5.085  16.195  0.5978 -1.0936 -0.2818
19615TIP3   OH280259   3.543   2.454  12.843 -0.1920  0.6049 -0.4154
19615TIP3    H180260   3.591   2.513  12.900  0.8442  0.7103 -1.3613
19615TIP3    H280261   3.466   2.504  12.816 -0.9174  0.4005  1.1841
19616TIP3   OH280262   4.953   1.830  11.587 -0.8375 -0.0301  0.0413
19616TIP3    H180263   5.005   1.894  11.538 -2.2899  3.2594  2.4450
19616TIP3    H280264   4.891   1.795  11.522 -0.6381  1.7751 -1.1965
19617TIP3   OH280265   1.823   2.405   6.368 -0.0675  0.4498  0.1534
19617TIP3    H180266   1.798   2.493   6.342  0.1671  0.0868 -1.3796
19617TIP3    H280267   1.907   2.416   6.413  0.5202  0.9045 -1.0161
19618TIP3   OH280268   5.238   5.361   0.557  0.6055  0.0331  0.1507
19618TIP3    H180269   5.285   5.332   0.635  0.6710 -0.1401  0.0460
19618TIP3    H280270   5.290   5.434   0.523  1.1222 -0.5436 -0.3065
19619TIP3   OH280271   2.105   5.752   3.687 -0.7487  0.0091 -0.2187
19619TIP3    H180272   2.199   5.749   3.704 -0.3222  1.2183 -2.0817
19619TIP3    H280273   2.081   5.662   3.668  0.4393 -0.0802 -1.4782
19620TIP3   OH280274   6.159   2.524   2.453  0.3808  0.0168 -0.3934
19620TIP3    H180275   6.214   2.477   2.516  0.8493 -1.6200 -1.9460
19620TIP3    H280276   6.071   2.490   2.468  0.0762  1.2600  0.8235
19621TIP3   OH280277   5.417   2.413   3.483  0.1325  0.2161 -0.1006
19621TIP3    H180278   5.425   2.335   3.537  0.9266  0.4292  0.1000
19621TIP3    H280279   5.356   2.469   3.531 -0.7517 -0.4292 -0.4396
19622TIP3   OH280280   6.427   4.133   0.538  0.2433  0.0958  0.6612
19622TIP3    H180281   6.476   4.187   0.477 -0.4579  0.7934  0.6980
19622TIP3    H280282   6.441   4.172   0.624  0.4016 -0.2757  0.8088
19623TIP3   OH280283   2.360   2.507   1.246  0.4109 -0.5066  0.6671
19623TIP3    H180284   2.281   2.511   1.192  0.6865 -2.4853  0.0129
19623TIP3    H280285   2.328   2.505   1.336 -0.1344  1.2661  0.5443
19624TIP3   OH280286   5.435   1.495  12.656 -0.0022  0.2082 -0.3467
19624TIP3    H180287   5.433   1.581  12.614 -0.0564  0.2247 -0.3114
19624TIP3    H280288   5.346   1.483  12.689 -0.1068 -0.0375 -0.7107
19625TIP3   OH280289   0.226   3.763  15.714  0.3074 -0.6940  0.2724
19625TIP3    H180290   0.244   3.819  15.638  2.2572 -1.4304  0.1530
19625TIP3    H280291   0.136   3.733  15.700  0.4650 -0.4405 -1.4968
19626TIP3   OH280292   4.863   5.210   6.660 -0.2192 -0.3578  0.0336
19626TIP3    H180293   4.938   5.268   6.651 -0.5904  0.1905  0.3869
19626TIP3    H280294   4.788   5.269   6.668 -0.5467 -0.8738  0.8983
19627TIP3   OH280295   2.789   1.149   3.605 -0.0010  0.1601  0.3907
19627TIP3    H180296   2.832   1.067   3.631 -1.4861 -0.8431 -0.1819
19627TIP3    H280297   2.739   1.176   3.682 -0.4978 -0.1592  0.1862
19628TIP3   OH280298   2.194   6.483   0.443 -0.0326 -0.5709  0.3845
19628TIP3    H180299   2.262   6.529   0.493 -0.3324  0.4048 -0.0853
19628TIP3    H280300   2.222   6.489   0.352 -0.4311 -0.7227  0.2485
19629TIP3   OH280301   0.053   5.296  12.844  0.1334 -0.3222  0.1657
19629TIP3    H180302   0.141   5.325  12.818 -0.1006 -1.0177 -1.5275
19629TIP3    H280303   0.019   5.368  12.898  1.6817  0.0063  0.7486
19630TIP3   OH280304   4.139   3.542  14.880 -0.1457 -0.3387 -0.9171
19630TIP3    H180305   4.094   3.615  14.839  0.8506  2.0387  1.8508
19630TIP3    H280306   4.202   3.512  14.814  0.3266  2.2173 -1.7263
19631TIP3   OH280307   2.213   1.566   4.617  0.3187 -0.1288  0.1493
19631TIP3    H180308   2.157   1.513   4.673  0.6133  1.2002  1.7952
19631TIP3    H280309   2.273   1.609   4.678  1.9004 -0.0758 -1.3928
19632TIP3   OH280310   4.429   2.012   3.090 -0.1444  0.0937  0.1594
19632TIP3    H180311   4.395   1.974   3.171  2.6086 -1.7306  0.6217
19632TIP3    H280312   4.369   1.983   3.022 -0.7202 -1.1295  1.1480
19633TIP3   OH280313   5.419   6.596  11.116  0.0255  0.2754 -0.5428
19633TIP3    H180314   5.510   6.621  11.101  0.0469 -0.4394 -1.6947
19633TIP3    H280315   5.375   6.612  11.033 -0.7706  0.0524 -0.1744
19634TIP3   OH280316   5.280   3.062   5.302  0.5409  0.4668  0.0909
19634TIP3    H180317   5.227   3.039   5.225  1.3721  0.4739 -0.5022
19634TIP3    H280318   5.231   3.132   5.345  0.2449  0.7294 -0.6520
19635TIP3   OH280319   4.276   1.769  17.274 -0.2607  0.5438 -0.4761
19635TIP3    H180320   4.367   1.742  17.286 -0.6186 -1.4833 -1.8220
19635TIP3    H280321   4.280   1.838  17.208  0.3124  0.5477 -0.4430
19636TIP3   OH280322   3.810   5.447  16.651  0.2355 -0.6676  0.3462
19636TIP3    H180323   3.898   5.423  16.678  0.1542 -0.4231  0.8356
19636TIP3    H280324   3.753   5.414  16.720  0.2835  2.6413  2.1872
19637TIP3   OH280325   0.499   4.772   3.787 -0.0229 -0.3711  0.5785
19637TIP3    H180326   0.533   4.812   3.867 -0.1731 -1.1502  1.0326
19637TIP3    H280327   0.428   4.715   3.816 -0.5159 -0.1588 -0.1809
19638TIP3   OH280328   6.199   2.290   2.651  0.4279  0.0380  0.2832
19638TIP3    H180329   6.185   2.295   2.745 -1.8192  0.4093 -0.0108
19638TIP3    H280330   6.129   2.233   2.619  0.6779  0.5214 -1.2364
19639TIP3   OH280331   6.093   0.887  16.705  0.5320 -0.4788 -0.5888
19639TIP3    H180332   6.005   0.887  16.743  0.9096 -1.6876  0.3449
19639TIP3    H280333   6.097   0.968  16.654  0.0050  1.3277  2.0325
19640TIP3   OH280334   4.746   0.927  15.033 -0.1918 -0.9362  0.2946
19640TIP3    H180335   4.770   0.887  14.949  0.3570 -0.3131  0.1443
19640TIP3    H280336   4.777   0.865  15.099  0.7042 -0.7470  0.0643
19641TIP3   OH280337   1.104   1.869  12.899 -0.3016 -0.5595  0.2451
19641TIP3    H180338   1.102   1.894  12.807  0.0974 -0.5115  0.2466
19641TIP3    H280339   1.159   1.936  12.941 -2.3023  0.7282  0.9291
19642TIP3   OH280340   3.776   4.516  14.666  0.1157 -0.0689 -0.7990
19642TIP3    H180341   3.694   4.466  14.671  0.5506 -0.7996 -0.8054
19642TIP3    H280342   3.833   4.476  14.732  0.9239 -0.4563 -1.6919
19643TIP3   OH280343   4.584   2.775   4.207 -0.1246  0.1941 -0.4435
19643TIP3    H180344   4.537   2.857   4.193 -0.3213 -0.0814 -1.4892
19643TIP3    H280345   4.581   2.761   4.302  2.2188  2.7656  0.1559
19644TIP3   OH280346   2.829   6.622   4.131 -0.0618 -0.9332 -0.9720
19644TIP3    H180347   2.899   6.573   4.089  0.1905 -1.2702 -0.1720
19644TIP3    H280348   2.800   6.567   4.203  0.3781  0.1623  0.0826
19645TIP3   OH280349   0.129   1.039   0.438  0.3693  0.6400 -0.1934
19645TIP3    H180350   0.168   1.124   0.415  0.4503  0.4828 -0.6495
19645TIP3    H280351   0.201   0.977   0.431  0.1930  0.4535 -0.3645
19646TIP3   OH280352   5.092   3.296   4.614  0.2228  0.0013  0.7812
19646TIP3    H180353   5.035   3.373   4.627 -0.4899 -0.6033  1.3085
19646TIP3    H280354   5.040   3.238   4.558  0.2071 -0.6697  1.4819
19647TIP3   OH280355   5.500   2.452  15.606 -0.1164 -0.4346 -0.6259
19647TIP3    H180356   5.406   2.443  15.621 -0.0037 -0.8726 -0.1759
19647TIP3    H280357   5.516   2.546  15.612 -0.1278 -0.5215  1.7326
19648TIP3   OH280358   1.731   4.728  14.962 -0.3970  0.1077 -0.1226
19648TIP3    H180359   1.787   4.737  14.885 -0.5115  1.1188 -0.0963
19648TIP3    H280360   1.685   4.812  14.969  0.2548  0.3713  1.5601
19649TIP3   OH280361   2.337   0.196  14.988 -0.0505  0.7512 -0.1108
19649TIP3    H180362   2.343   0.284  15.024 -0.8871  0.6049  0.4240
19649TIP3    H280363   2.415   0.151  15.019 -0.4660  0.8030  1.0570
19650TIP3   OH280364   3.117   4.242   2.936  0.0599  0.0849  0.4337
19650TIP3    H180365   3.165   4.160   2.924  0.9029  0.7850 -1.3597
19650TIP3    H280366   3.038   4.232   2.883  0.1735  0.4353  0.1973
19651TIP3   OH280367   2.580   5.894   0.940 -0.0168  0.1454  0.1885
19651TIP3    H180368   2.580   5.861   0.851  0.1595 -0.6119  0.4591
19651TIP3    H280369   2.592   5.988   0.931 -1.0297  0.2128 -0.6270
19652TIP3   OH280370   0.199   6.293  11.322 -0.2630  0.7100  0.2561
19652TIP3    H180371   0.274   6.346  11.348  0.7271 -0.9627  0.9504
19652TIP3    H280372   0.236   6.219  11.274 -1.5055  0.1107  0.1718
19653TIP3   OH280373   2.445   2.084  12.305 -0.3694  0.5591  0.1221
19653TIP3    H180374   2.366   2.048  12.346 -0.6794  0.0774 -0.8632
19653TIP3    H280375   2.445   2.047  12.216  0.5831  1.1232 -0.1278
19654TIP3   OH280376   1.738   3.469  16.392 -0.5405 -0.4960 -0.1634
19654TIP3    H180377   1.761   3.483  16.300  1.4651 -1.1944  0.1814
19654TIP3    H280378   1.717   3.376  16.398 -2.2714 -0.1299 -0.2012
19655TIP3   OH280379   3.880   2.229  12.048  0.2379 -0.3444  0.2718
19655TIP3    H180380   3.863   2.233  12.142  0.9927 -0.3132  0.4145
19655TIP3    H280381   3.946   2.297  12.032 -0.4254  0.1533 -0.4067
19656TIP3   OH280382   1.691   6.041  16.753 -0.2899  1.0366  0.6222
19656TIP3    H180383   1.715   6.115  16.697  1.0017  1.1040  1.2198
19656TIP3    H280384   1.697   6.076  16.842 -1.5646  0.7211  0.8441
19657TIP3   OH280385   1.034   3.755  13.896  0.0855 -0.8063  0.4975
19657TIP3    H180386   1.020   3.843  13.930  1.3135 -0.0589 -0.8302
19657TIP3    H280387   1.057   3.703  13.973 -2.1038 -0.3715  1.5436
19658TIP3   OH280388   5.696   4.460   2.553 -0.5638  0.3009 -0.2596
19658TIP3    H180389   5.776   4.468   2.501 -1.9961  0.3175 -2.5993
19658TIP3    H280390   5.665   4.550   2.561  0.3815  0.5108  2.0431
19659TIP3   OH280391   4.469   0.273   5.320  0.0649 -0.2504 -0.0232
19659TIP3    H180392   4.497   0.200   5.266  0.9067  0.2189 -0.2398
19659TIP3    H280393   4.549   0.301   5.366  0.0477  1.2872 -0.8524
19660TIP3   OH280394   4.942   6.124  11.146 -0.1580  0.0678 -0.3714
19660TIP3    H180395   4.889   6.175  11.207 -2.9764  0.3917 -2.8642
19660TIP3    H280396   4.985   6.189  11.091 -0.1222 -0.2479 -0.7169
19661TIP3   OH280397   4.657   6.553   0.107 -0.2872 -0.3797 -0.6140
19661TIP3    H180398   4.728   6.545   0.043 -0.6103  1.0468 -1.1907
19661TIP3    H280399   4.578   6.529   0.058 -0.6697  1.6693 -1.0979
19662TIP3   OH280400   6.613   5.806  13.698  0.1213  0.0826 -0.1283
19662TIP3    H180401   6.556   5.778  13.770  0.1323 -0.8153 -0.4545
19662TIP3    H280402   6.652   5.888  13.729 -0.6345  0.2306  0.4758
19663TIP3   OH280403   3.267   3.358   5.511  0.0597 -0.0044  0.3958
19663TIP3    H180404   3.193   3.326   5.459 -1.0074  1.6043  0.8476
19663TIP3    H280405   3.253   3.322   5.598 -0.3971  0.5803  0.5682
19664TIP3   OH280406   4.120   0.757   4.622 -0.1083  0.1145  0.5304
19664TIP3    H180407   4.198   0.781   4.672 -0.3079 -1.0569  1.4382
19664TIP3    H280408   4.152   0.743   4.533  0.5742  0.4043  0.7197
19665TIP3   OH280409   1.980   1.666   5.551 -0.1841 -0.0277  0.4854
19665TIP3    H180410   1.938   1.692   5.469 -1.6325  1.0259  1.5131
19665TIP3    H280411   1.927   1.593   5.583 -0.4064  0.3945  1.0987
19666TIP3   OH280412   2.163   0.313   3.689 -0.3477  0.3753  0.2999
19666TIP3    H180413   2.217   0.238   3.663 -1.5631 -0.6998  0.7800
19666TIP3    H280414   2.103   0.326   3.616 -0.1416  0.8993  0.2181
19667TIP3   OH280415   0.419   3.619   6.280 -0.4482 -0.5923 -0.0345
19667TIP3    H180416   0.435   3.630   6.186 -0.3485 -2.0356 -0.2016
19667TIP3    H280417   0.503   3.640   6.321 -0.4301 -0.1778 -0.2789
19668TIP3   OH280418   4.980   5.214  12.453  0.0172 -0.2925  0.4158
19668TIP3    H180419   5.045   5.163  12.406 -0.3464  0.3235 -0.7959
19668TIP3    H280420   5.018   5.302  12.458 -0.8143  0.1480 -0.5737
19669TIP3   OH280421   2.835   0.583   1.260  0.2919  0.2887  0.5203
19669TIP3    H180422   2.839   0.489   1.246 -0.9030  0.3015 -0.0614
19669TIP3    H280423   2.742   0.605   1.252  0.5278  1.4915  0.7943
19670TIP3   OH280424   3.058   3.136  17.134  0.4122 -0.2857 -0.3491
19670TIP3    H180425   3.113   3.075  17.085 -0.4042 -0.0063 -1.6958
19670TIP3    H280426   3.055   3.101  17.223  1.2575 -1.3046 -0.7036
19671TIP3   OH280427   3.889   1.445  11.810  0.1710  0.0783  0.4893
19671TIP3    H180428   3.821   1.380  11.828  0.0348  0.5818  1.8854
19671TIP3    H280429   3.913   1.480  11.896  2.4525 -0.3261  0.0691
19672TIP3   OH280430   2.890   0.162   2.396 -0.1637 -0.3758 -0.0613
19672TIP3    H180431   2.888   0.070   2.368  1.6587 -0.8287  1.1523
19672TIP3    H280432   2.980   0.189   2.380 -0.4368  0.9116  0.5314
19673TIP3   OH280433   5.847   6.026  14.623 -0.1288 -0.3499  0.2217
19673TIP3    H180434   5.942   6.036  14.630 -0.1148 -0.3941  0.0893
19673TIP3    H280435   5.821   5.992  14.709  0.2477 -2.3739 -0.4255
19674TIP3   OH280436   4.294   2.647  16.960  0.2562 -0.1532  0.1617
19674TIP3    H180437   4.354   2.632  16.887 -1.1459  0.1108 -1.0978
19674TIP3    H280438   4.314   2.735  16.991  0.6787 -0.1619 -0.0904
19675TIP3   OH280439   6.762   0.719   0.151  0.0483 -0.0035  0.0528
19675TIP3    H180440   6.819   0.768   0.092  0.4881  1.6639  1.7701
19675TIP3    H280441   6.821   0.667   0.205 -0.2366 -0.2844  0.1016
19676TIP3   OH280442   0.811   1.080  17.122  0.1106  0.2685  0.5794
19676TIP3    H180443   0.839   1.001  17.074 -0.7054  0.9912 -1.1513
19676TIP3    H280444   0.858   1.152  17.079 -1.6393  1.0867 -0.0217
19677TIP3   OH280445   0.787   3.840  17.263  0.5418 -0.0363  0.7056
19677TIP3    H180446   0.714   3.875  17.315 -0.5368 -1.6040  0.3018
19677TIP3    H280447   0.790   3.897  17.186  0.4075  0.6498  1.1918
19678TIP3   OH280448   6.343   2.553   0.579  0.5329 -0.2509 -0.5708
19678TIP3    H180449   6.259   2.522   0.613  0.9122 -0.8593 -0.1716
19678TIP3    H280450   6.383   2.598   0.654  1.1667 -1.1871 -0.3302
19679TIP3   OH280451   4.429   3.391   4.853  0.4360  0.4287 -0.2036
19679TIP3    H180452   4.392   3.408   4.940  0.2574 -0.6609 -0.0598
19679TIP3    H280453   4.371   3.325   4.815  0.5868  0.8096 -1.1057
19680TIP3   OH280454   6.617   6.650   4.594 -0.1709 -0.8124  0.4071
19680TIP3    H180455   6.563   6.651   4.515 -1.0873 -1.7171  0.9922
19680TIP3    H280456   6.707   6.652   4.562 -0.5185  1.0179 -0.5886
19681TIP3   OH280457   4.508   2.963  17.188 -0.1263  0.3917  0.1531
19681TIP3    H180458   4.471   2.998  17.269 -0.5661 -0.8606  0.5110
19681TIP3    H280459   4.552   2.882  17.215 -0.1638  0.0357 -0.8307
19682TIP3   OH280460   2.688   5.977  15.773 -0.8364 -0.1902  0.1427
19682TIP3    H180461   2.607   5.965  15.722 -1.9102  0.1078  1.7201
19682TIP3    H280462   2.668   6.046  15.835  0.9765  0.5689 -0.0515
19683TIP3   OH280463   4.257   1.461   4.197 -0.1868  0.4563  0.1667
19683TIP3    H180464   4.318   1.535   4.198 -0.5829  0.7835  0.3247
19683TIP3    H280465   4.298   1.397   4.138  1.5315 -0.3820  2.1610
19684TIP3   OH280466   4.280   6.087   1.018 -0.3933  0.8464 -0.5685
19684TIP3    H180467   4.353   6.119   1.071  0.9150 -2.7373  0.1249
19684TIP3    H280468   4.226   6.037   1.079 -1.1275  0.0028 -1.8496
19685TIP3   OH280469   6.126   1.467  11.418 -0.1403  0.6202 -0.0999
19685TIP3    H180470   6.201   1.474  11.358  0.6299 -0.4900  0.7082
19685TIP3    H280471   6.165   1.452  11.504 -1.3046 -0.3700  0.2765
19686TIP3   OH280472   4.714   4.266  15.217 -0.2869  0.0912  0.0403
19686TIP3    H180473   4.751   4.319  15.146 -1.4423 -0.5719 -1.0932
19686TIP3    H280474   4.656   4.204  15.173  0.1089 -1.3383  1.4431
19687TIP3   OH280475   3.365   1.592   3.048 -0.3673 -0.1406  0.0663
19687TIP3    H180476   3.341   1.564   3.136 -0.5632 -0.7757 -0.1860
19687TIP3    H280477   3.381   1.511   3.000  0.5325  0.2250 -0.2661
19688TIP3   OH280478   0.989   5.980  12.231 -0.1882 -0.4393  0.6587
19688TIP3    H180479   1.042   5.981  12.151  0.7465  0.1992  1.2659
19688TIP3    H280480   0.898   5.980  12.199  0.1492  0.9860 -0.4131
19689TIP3   OH280481   3.214   3.955  14.367  0.1946  0.5049 -0.2833
19689TIP3    H180482   3.168   4.034  14.396 -1.3366 -0.1992 -0.7308
19689TIP3    H280483   3.146   3.898  14.332  1.5547 -0.0499 -2.2068
19690TIP3   OH280484   1.433   5.702   2.423  0.3646 -0.1655 -0.0717
19690TIP3    H180485   1.477   5.782   2.396  0.4478 -0.0766  0.3200
19690TIP3    H280486   1.461   5.636   2.360  0.8852 -0.0570  0.0450
19691TIP3   OH280487   2.505   2.319   2.117 -1.2629 -0.0769 -0.3265
19691TIP3    H180488   2.477   2.393   2.062  0.3519  0.8846  0.0635
19691TIP3    H280489   2.595   2.302   2.090 -0.9922 -0.6643  0.8742
19692TIP3   OH280490   0.365   1.129  15.250  0.1045  0.0623  0.6598
19692TIP3    H180491   0.448   1.084  15.238 -0.2925 -0.5210 -0.0184
19692TIP3    H280492   0.388   1.222  15.257  0.8396 -0.1330  0.9293
19693TIP3   OH280493   5.023   4.896   5.181  0.4424  0.4658 -0.2645
19693TIP3    H180494   5.064   4.925   5.099 -2.5516 -0.8690 -2.4273
19693TIP3    H280495   4.982   4.975   5.216  0.0260  0.6826 -1.2005
19694TIP3   OH280496   3.841   4.402  11.121  0.1619 -0.5138  0.0740
19694TIP3    H180497   3.831   4.325  11.065 -0.1824  0.3799 -1.1108
19694TIP3    H280498   3.917   4.447  11.087  0.3651 -0.3169  0.7706
19695TIP3   OH280499   1.466   1.413   2.471 -0.4455 -0.1027  0.1817
19695TIP3    H180500   1.399   1.384   2.409 -0.3403  1.0907 -0.5259
19695TIP3    H280501   1.544   1.364   2.446 -0.9329 -1.1581  0.7113
19696TIP3   OH280502   3.627   1.257   3.852  0.0915  0.0093  0.1455
19696TIP3    H180503   3.552   1.206   3.882 -0.7014  0.4809 -0.9424
19696TIP3    H280504   3.592   1.312   3.782  1.3670  0.5562 -0.0973
19697TIP3   OH280505   4.926   5.789  16.887  0.4288 -0.3337 -0.1762
19697TIP3    H180506   4.986   5.750  16.823 -0.8932 -1.9320 -0.5214
19697TIP3    H280507   4.949   5.882  16.888  0.3470 -0.1590 -3.2058
19698TIP3   OH280508   3.063   2.441  10.796  0.5986 -0.1586 -0.6160
19698TIP3    H180509   2.977   2.449  10.837  0.2949 -0.7716 -1.1204
19698TIP3    H280510   3.074   2.523  10.748 -0.7242 -1.0055 -2.4444
19699TIP3   OH280511   2.858   2.490  17.345 -0.0712 -0.1724 -0.7240
19699TIP3    H180512   2.834   2.503  17.253  1.5203  1.2403 -0.9915
19699TIP3    H280513   2.952   2.473  17.343 -0.3585 -2.1461  0.5261
19700TIP3   OH280514   5.405   2.044  13.253 -0.1676  0.1977 -0.6108
19700TIP3    H180515   5.362   1.958  13.244 -0.1256  0.3065 -2.1386
19700TIP3    H280516   5.497   2.026  13.234  0.3078  0.1863  1.4549
19701TIP3   OH280517   1.525   2.236  13.947 -0.3956  0.1561 -0.1809
19701TIP3    H180518   1.582   2.310  13.926  2.2074 -1.9256 -1.0202
19701TIP3    H280519   1.533   2.226  14.042  2.0627 -1.0587 -0.4417
19702TIP3   OH280520   3.339   5.607   1.489 -0.6795  0.0946  0.1712
19702TIP3    H180521   3.296   5.524   1.509  0.9761 -0.8609 -0.0871
19702TIP3    H280522   3.283   5.647   1.422 -1.5881 -0.7099  0.4235
19703TIP3   OH280523   4.812   6.601   2.675  0.2143 -0.4299  0.4113
19703TIP3    H180524   4.869   6.636   2.744  0.0660  0.3554  0.1440
19703TIP3    H280525   4.749   6.546   2.722 -1.8227  2.4924  1.3383
19704TIP3   OH280526   0.324   6.262   3.058 -0.0222 -0.2677  0.3579
19704TIP3    H180527   0.393   6.197   3.069  1.0583  0.6121 -0.9008
19704TIP3    H280528   0.298   6.254   2.966 -1.8948 -0.8383  0.8974
19705TIP3   OH280529   4.480   6.050   3.996 -0.6996  0.2076 -0.3911
19705TIP3    H180530   4.414   6.079   3.934 -0.3993 -0.5497 -1.0740
19705TIP3    H280531   4.557   6.031   3.943 -0.6901 -1.2390  0.1058
19706TIP3   OH280532   2.627   5.270  13.840 -0.2552  0.3437 -0.3941
19706TIP3    H180533   2.679   5.214  13.897 -0.3526 -0.5543 -1.1425
19706TIP3    H280534   2.582   5.331  13.899  1.3158  0.8793  0.2838
19707TIP3   OH280535   0.579   2.997   3.665  0.0590 -0.7686  0.5027
19707TIP3    H180536   0.489   2.997   3.631 -0.0837 -1.0745  0.8792
19707TIP3    H280537   0.596   2.906   3.687  1.1877 -1.1037 -1.4656
19708TIP3   OH280538   2.509   3.262   2.163  0.8064 -0.4414  0.6822
19708TIP3    H180539   2.566   3.284   2.089 -0.5421 -0.8426 -0.5147
19708TIP3    H280540   2.448   3.336   2.168 -1.1053 -1.8264 -0.6941
19709TIP3   OH280541   3.743   0.705  11.247 -0.3142  0.1591  0.5607
19709TIP3    H180542   3.792   0.628  11.218  0.9993  0.6757  1.3609
19709TIP3    H280543   3.651   0.682  11.230  0.1060 -1.2656  0.0696
19710TIP3   OH280544   4.098   5.317   5.874 -0.3035 -0.0056 -0.2948
19710TIP3    H180545   4.129   5.360   5.954  0.5672 -0.1281 -0.5578
19710TIP3    H280546   4.100   5.223   5.895  0.3811 -0.0642 -0.6146
19711TIP3   OH280547   1.826   3.051  13.087 -0.3760 -0.0665 -0.4061
19711TIP3    H180548   1.874   3.129  13.057 -0.5052 -0.3581 -1.3976
19711TIP3    H280549   1.746   3.051  13.034 -0.0102 -1.3088 -0.9853
19712TIP3   OH280550   0.942   0.285   2.877  0.5742 -0.7526 -0.3056
19712TIP3    H180551   0.861   0.240   2.899  0.4544 -0.0573  0.7619
19712TIP3    H280552   0.915   0.361   2.825  0.4390 -0.0791  0.7149
19713TIP3   OH280553   1.032   3.710  17.350 -0.5594 -0.0070 -0.5810
19713TIP3    H180554   1.048   3.747  17.438 -2.7802  0.7097 -0.4363
19713TIP3    H280555   1.007   3.785  17.297  2.0210 -0.2143 -2.2478
19714TIP3   OH280556   5.184   1.517   2.484 -0.4376 -0.5269 -0.1333
19714TIP3    H180557   5.121   1.586   2.463  0.2422  1.3286  3.1796
19714TIP3    H280558   5.268   1.564   2.492  0.4403 -2.0983  0.2526
19715TIP3   OH280559   3.242   1.720   4.210  0.2019  0.0007  0.1698
19715TIP3    H180560   3.246   1.733   4.305 -2.7290  0.1391  0.3709
19715TIP3    H280561   3.238   1.625   4.199 -1.4481  0.0262  0.3662
19716TIP3   OH280562   5.638   0.869   2.090  0.1558 -0.5006  0.1624
19716TIP3    H180563   5.689   0.925   2.149  2.7430 -1.1895 -1.2818
19716TIP3    H280564   5.561   0.921   2.069  0.9322  1.2322  1.3313
19717TIP3   OH280565   5.938   4.677   2.516  0.0710  0.0442 -0.1684
19717TIP3    H180566   5.905   4.745   2.457  0.3127 -0.5753 -1.0392
19717TIP3    H280567   5.925   4.595   2.468  2.4809 -0.2763 -0.3951
19718TIP3   OH280568   2.896   1.242   2.044 -0.2847 -0.5639 -0.4577
19718TIP3    H180569   2.843   1.268   1.968 -0.2116  1.9150  0.2557
19718TIP3    H280570   2.883   1.313   2.107  1.5090 -1.4102  0.9332
19719TIP3   OH280571   2.658   0.350   4.676 -0.3696  0.1826 -0.1912
19719TIP3    H180572   2.599   0.420   4.702  0.8616  1.2516 -0.2088
19719TIP3    H280573   2.702   0.324   4.757  0.2119  0.4256 -0.4230
19720TIP3   OH280574   6.661   4.563   3.489  0.2078 -0.4274 -0.0446
19720TIP3    H180575   6.681   4.603   3.574  0.2204 -0.6737  0.0693
19720TIP3    H280576   6.727   4.495   3.478 -0.0947 -0.7298 -0.0213
19721TIP3   OH280577   5.787   4.304  17.099  0.5435 -0.3564 -0.2358
19721TIP3    H180578   5.866   4.251  17.093  2.2777  1.5244  3.0256
19721TIP3    H280579   5.776   4.341  17.011  1.4008 -3.0195 -1.5707
19722TIP3   OH280580   4.103   2.788   4.685 -0.5241 -1.1189  1.0585
19722TIP3    H180581   4.075   2.822   4.600 -0.4226 -2.1221  0.6136
19722TIP3    H280582   4.197   2.805   4.688 -0.8750  0.9781  1.9593
19723TIP3   OH280583   2.862   3.390   0.516  0.3483 -0.5987 -0.6894
19723TIP3    H180584   2.864   3.429   0.604 -1.2209 -0.7716 -0.5565
19723TIP3    H280585   2.942   3.337   0.512 -0.1968 -1.6506  1.1396
19724TIP3   OH280586   2.064   5.467  16.174 -0.3672 -0.3574 -0.0287
19724TIP3    H180587   1.995   5.469  16.240 -1.2904 -0.6980 -0.9730
19724TIP3    H280588   2.136   5.517  16.214 -1.3103  0.3982  0.7841
19725TIP3   OH280589   0.058   1.245  13.225  0.0671  0.3152  0.1401
19725TIP3    H180590   0.065   1.180  13.155  3.7255 -1.2567  1.7102
19725TIP3    H280591   0.004   1.315  13.187  1.4438 -0.6036 -4.1260
19726TIP3   OH280592   2.203   1.083   0.513 -0.0537 -0.6733 -0.1736
19726TIP3    H180593   2.286   1.075   0.560 -0.4762  0.1046  0.7298
19726TIP3    H280594   2.136   1.056   0.577 -0.6623  0.6792 -0.1992
19727TIP3   OH280595   1.677   2.048   2.588 -0.2389  0.3020 -0.1183
19727TIP3    H180596   1.719   2.125   2.626 -0.6030  0.3089  0.2866
19727TIP3    H280597   1.732   1.975   2.613  0.2175  0.4475 -0.6734
19728TIP3   OH280598   3.590   3.823   0.636  0.2262  0.1325 -0.0019
19728TIP3    H180599   3.518   3.805   0.696  0.7467 -0.5606  0.4390
19728TIP3    H280600   3.611   3.737   0.598 -0.8421  0.7288 -2.0629
19729TIP3   OH280601   0.382   0.688   3.055  0.2394  0.0595  0.4762
19729TIP3    H180602   0.353   0.649   3.137  1.2592  0.2731  0.9533
19729TIP3    H280603   0.402   0.613   2.999 -3.6287 -0.1899 -0.8516
19730TIP3   OH280604   2.373   4.830  10.886 -0.4351 -0.0971  0.5239
19730TIP3    H180605   2.346   4.739  10.895  1.1507 -0.6723 -0.1077
19730TIP3    H280606   2.462   4.825  10.851 -1.0574  1.7193 -1.5372
19731TIP3   OH280607   0.008   6.332  14.568  0.0793  0.2307  0.3989
19731TIP3    H180608  -0.042   6.311  14.489  0.1907 -2.4346  0.9452
19731TIP3    H280609   0.100   6.322  14.541  0.2133  1.4729  0.3420
19732TIP3   OH280610   4.527   5.821   0.659 -0.1725  0.1366  0.3335
19732TIP3    H180611   4.511   5.839   0.752 -1.5911 -2.0822  0.5972
19732TIP3    H280612   4.440   5.813   0.621  0.3558 -1.2398 -0.6810
19733TIP3   OH280613   2.164   3.718  11.423 -0.4893 -0.1727  0.4289
19733TIP3    H180614   2.126   3.659  11.359  1.9419  0.4008 -1.7426
19733TIP3    H280615   2.163   3.804  11.380  2.1051  0.0539  0.6348
19734TIP3   OH280616   6.537   5.931  12.438 -0.4587  0.8784  0.5755
19734TIP3    H180617   6.490   5.973  12.366 -0.8219 -0.8540 -0.2518
19734TIP3    H280618   6.629   5.945  12.418 -0.5742  1.2048  0.2640
19735TIP3   OH280619   0.355   4.544   5.695  0.5487  0.1107  0.5803
19735TIP3    H180620   0.350   4.451   5.716  0.9052 -0.0935 -0.2168
19735TIP3    H280621   0.290   4.585   5.753  0.9544 -0.5209  1.4987
19736TIP3   OH280622   2.139   3.971  16.286 -0.0306  0.2940  0.0830
19736TIP3    H180623   2.115   3.879  16.275  1.5983 -0.0694 -0.8220
19736TIP3    H280624   2.153   3.982  16.380 -1.0552 -0.1430  0.2964
19737TIP3   OH280625   2.447   2.635  15.303 -0.2467 -0.1942 -0.4573
19737TIP3    H180626   2.422   2.700  15.237 -1.0007  0.9344  0.8872
19737TIP3    H280627   2.444   2.551  15.256  0.5210  0.6828 -2.1831
19738TIP3   OH280628   4.512   1.607  11.488  0.0417  0.2955  0.5315
19738TIP3    H180629   4.540   1.653  11.409  1.3686 -1.6319 -0.1864
19738TIP3    H280630   4.421   1.583  11.470 -0.7217  2.5974  0.9692
19739TIP3   OH280631   1.348   6.407  15.328  0.1090 -0.2900 -0.3026
19739TIP3    H180632   1.353   6.471  15.257 -0.6278  0.0358 -0.0711
19739TIP3    H280633   1.376   6.455  15.406  1.0118 -0.6747 -0.3761
19740TIP3   OH280634   6.716   5.810  11.911 -0.4837 -0.1920 -0.0979
19740TIP3    H180635   6.736   5.824  11.818  2.1505  1.0823  0.5492
19740TIP3    H280636   6.791   5.759  11.944 -1.9017 -1.5766  1.1336
19741TIP3   OH280637   5.298   3.630   3.772  0.0074  0.1426  0.2871
19741TIP3    H180638   5.231   3.567   3.744  0.1091 -0.2302  0.8579
19741TIP3    H280639   5.251   3.692   3.827  0.0998 -0.0338  0.5672
19742TIP3   OH280640   5.151   5.163   2.559 -0.1761  0.3594  0.3164
19742TIP3    H180641   5.147   5.168   2.654 -1.9965 -0.4195  0.3301
19742TIP3    H280642   5.066   5.196   2.529  1.0459  2.3682 -1.1693
19743TIP3   OH280643   6.649   3.904   2.952  0.6260  0.3439  0.7268
19743TIP3    H180644   6.639   3.993   2.985  0.4263  1.1718 -1.4300
19743TIP3    H280645   6.742   3.896   2.931  0.4286  0.5308 -0.2904
19744TIP3   OH280646   1.826   5.865   2.503 -0.4369  0.0655  0.7954
19744TIP3    H180647   1.883   5.788   2.510  0.8523  1.0913  2.3149
19744TIP3    H280648   1.886   5.938   2.491 -1.6418  0.8654 -0.6576
19745TIP3   OH280649   0.907   5.786  11.575  0.6928 -0.4443 -0.5450
19745TIP3    H180650   0.887   5.826  11.659  1.0420 -0.6513 -0.3666
19745TIP3    H280651   0.858   5.839  11.512 -0.0227 -0.6354 -0.1599
19746TIP3   OH280652   3.178   6.098   3.544 -0.5209  0.2619  0.3137
19746TIP3    H180653   3.263   6.133   3.570  0.2257 -0.5839 -0.8851
19746TIP3    H280654   3.189   6.003   3.545 -0.6113  0.1488 -2.3164
19747TIP3   OH280655   6.232   4.953  13.887  0.2712 -0.1431 -0.0194
19747TIP3    H180656   6.215   5.026  13.827  0.1533  0.4656  0.7504
19747TIP3    H280657   6.321   4.968  13.918  0.4494 -0.6376 -0.2791
19748TIP3   OH280658   2.148   0.694  12.865 -0.2158 -0.5552  0.3445
19748TIP3    H180659   2.064   0.729  12.837 -1.2175 -1.2859  2.2664
19748TIP3    H280660   2.162   0.617  12.810  1.2227  1.6960 -2.7653
19749TIP3   OH280661   0.203   3.754   3.720 -0.1638 -0.2229 -0.0242
19749TIP3    H180662   0.186   3.842   3.686 -0.4667  0.3378  1.4842
19749TIP3    H280663   0.116   3.714   3.728 -0.1064 -0.3158  0.1445
19750TIP3   OH280664   0.417   6.195   4.553 -0.4748  0.1044 -0.1889
19750TIP3    H180665   0.379   6.247   4.624 -1.1013  0.0501 -0.4754
19750TIP3    H280666   0.508   6.223   4.549 -0.6803  0.8194 -0.0125
19751TIP3   OH280667   1.986   0.138  10.677  0.3654 -0.2752  0.3430
19751TIP3    H180668   2.002   0.117  10.769  0.4533  0.5570  0.5232
19751TIP3    H280669   1.918   0.205  10.680  0.7310  0.1194 -0.1806
19752TIP3   OH280670   1.522   2.641   1.269  0.2092  0.2818 -0.0597
19752TIP3    H180671   1.449   2.614   1.214  0.1274 -1.4302  0.8362
19752TIP3    H280672   1.483   2.700   1.334 -0.2638 -0.1442  0.0475
19753TIP3   OH280673   5.590   1.270  16.428  0.0188 -0.0896  0.3042
19753TIP3    H180674   5.664   1.261  16.488 -0.2119 -0.0306  0.5990
19753TIP3    H280675   5.514   1.240  16.479 -0.0268 -1.0095 -0.2850
19754TIP3   OH280676   4.057   1.107  16.827  0.6550  0.0992  0.3427
19754TIP3    H180677   3.994   1.177  16.846 -1.3130 -1.3792 -0.3916
19754TIP3    H280678   4.051   1.048  16.902 -1.2520 -1.6612 -1.0917
19755TIP3   OH280679   0.602   4.539   5.239  0.2736 -0.1400 -0.3704
19755TIP3    H180680   0.532   4.510   5.298  1.5238 -2.3015  0.1787
19755TIP3    H280681   0.564   4.532   5.151 -0.6863  0.2272  0.0102
19756TIP3   OH280682   0.948   4.922   1.174 -0.5677 -0.9369 -0.2785
19756TIP3    H180683   0.958   4.875   1.256  1.6140  1.4018  0.9512
19756TIP3    H280684   0.859   4.903   1.145 -0.4764 -4.0433  1.1196
19757TIP3   OH280685   3.588   4.649   0.502 -0.5589 -0.6011 -0.3234
19757TIP3    H180686   3.546   4.582   0.449  2.2181 -2.1604 -0.7783
19757TIP3    H280687   3.644   4.601   0.563  2.5394  1.1594 -1.5189
19758TIP3   OH280688   3.030   0.443  17.148 -0.4517  0.4166  0.8330
19758TIP3    H180689   3.083   0.501  17.092 -0.6451 -0.1905  0.0048
19758TIP3    H280690   3.091   0.412  17.215  0.3278 -0.4986 -0.2808
19759TIP3   OH280691   0.214   4.397  13.562 -0.2443  0.1340  0.0146
19759TIP3    H180692   0.307   4.377  13.552 -0.2480  1.1249 -3.0858
19759TIP3    H280693   0.169   4.322  13.524 -0.7348 -0.3068  1.4364
19760TIP3   OH280694   4.023   1.571  13.050  0.0009 -0.4381 -0.3072
19760TIP3    H180695   3.956   1.503  13.047 -0.2996 -0.1623 -0.0236
19760TIP3    H280696   4.099   1.532  13.008 -0.2707 -0.8330 -0.4405
19761TIP3   OH280697   0.917   2.313   5.990  0.1016  0.2272  0.4777
19761TIP3    H180698   0.837   2.362   5.973 -0.1419 -0.3778 -0.1133
19761TIP3    H280699   0.983   2.381   6.004 -0.3854  0.7253  0.3897
19762TIP3   OH280700   3.522   0.578  13.498 -0.6015 -0.3147  0.3088
19762TIP3    H180701   3.502   0.504  13.441  1.7334  0.1059 -1.2025
19762TIP3    H280702   3.594   0.548  13.553  0.1448  0.6975 -0.0866
19763TIP3   OH280703   5.379   2.494   5.131 -0.1125 -1.0878  0.5416
19763TIP3    H180704   5.425   2.578   5.136 -1.2265 -0.2011 -2.3162
19763TIP3    H280705   5.435   2.433   5.181  1.7885  0.8676  0.9469
19764TIP3   OH280706   3.622   6.064  11.948 -0.0487 -0.0222  0.1287
19764TIP3    H180707   3.617   6.054  12.043 -0.5511  1.1694  0.2460
19764TIP3    H280708   3.567   5.993  11.914  1.4063 -1.4581  0.6373
19765TIP3   OH280709   0.546   1.905  13.527  0.0463 -0.5413 -0.4543
19765TIP3    H180710   0.598   1.834  13.566  0.1450 -0.1417  0.1623
19765TIP3    H280711   0.602   1.983  13.536 -1.4669  0.3785  2.2772
19766TIP3   OH280712   3.710   0.325   2.019 -0.3275  0.3733  0.7516
19766TIP3    H180713   3.697   0.419   2.025 -1.7301  0.1888  0.9157
19766TIP3    H280714   3.706   0.306   1.925  0.1372  0.4886  0.7046
19767TIP3   OH280715   0.934   5.448  13.073 -0.5710 -0.1425  0.0532
19767TIP3    H180716   0.953   5.515  13.007  0.8916 -0.4339  0.1610
19767TIP3    H280717   0.942   5.365  13.026  0.9162 -0.3749  0.6639
19768TIP3   OH280718   4.818   4.214   5.778 -0.1436 -0.3290 -0.1091
19768TIP3    H180719   4.873   4.187   5.852  1.5683  2.5481 -0.1624
19768TIP3    H280720   4.875   4.202   5.702 -0.6483 -0.0134 -0.5348
19769TIP3   OH280721   4.391   5.507   0.519  0.8631 -0.1297 -0.5952
19769TIP3    H180722   4.379   5.602   0.526  0.9592 -0.2224  1.1714
19769TIP3    H280723   4.386   5.489   0.425 -1.0768  1.3644 -0.8357
19770TIP3   OH280724   1.893   5.633   3.051  0.3437 -0.3747  0.1511
19770TIP3    H180725   1.955   5.689   3.098  0.6870  0.2368 -0.9786
19770TIP3    H280726   1.860   5.688   2.980 -1.6345 -0.6448  0.8031
19771TIP3   OH280727   6.424   1.297   3.840  0.3996 -0.3870 -0.1133
19771TIP3    H180728   6.373   1.369   3.877 -1.3432 -1.4185 -0.4317
19771TIP3    H280729   6.511   1.308   3.879 -0.1141  1.2348  0.6880
19772TIP3   OH280730   4.939   3.546  16.377 -0.2099 -0.0035  0.2163
19772TIP3    H180731   4.978   3.595  16.450 -0.9520  0.8417  0.0603
19772TIP3    H280732   4.963   3.596  16.299 -1.8304  0.7268  0.1397
19773TIP3   OH280733   0.398   6.169  10.841 -0.3530  0.2329 -0.1498
19773TIP3    H180734   0.337   6.095  10.846 -0.5169  0.3226 -0.7019
19773TIP3    H280735   0.478   6.132  10.806  0.1361 -0.0097  1.1663
19774TIP3   OH280736   6.620   2.609   3.316 -0.6923  0.1117  0.0328
19774TIP3    H180737   6.560   2.636   3.385  0.4759  0.7612  0.8438
19774TIP3    H280738   6.626   2.514   3.325 -2.0577 -0.0367 -0.4730
19775TIP3   OH280739   1.731   2.455  14.983  0.3993 -0.2733 -0.2043
19775TIP3    H180740   1.794   2.431  15.052  0.0289  1.2722  0.7207
19775TIP3    H280741   1.781   2.512  14.924  0.0277  0.5430  0.2546
19776TIP3   OH280742   4.088   6.354  14.985 -0.4412 -0.0849 -0.8089
19776TIP3    H180743   4.070   6.440  14.948 -1.4896  0.2397  0.3803
19776TIP3    H280744   4.179   6.337  14.961  0.3202  2.0643  0.2662
19777TIP3   OH280745   5.039   0.878   5.046 -0.3371 -0.2045 -0.8935
19777TIP3    H180746   5.075   0.896   4.959  1.2711 -0.5216 -0.3077
19777TIP3    H280747   5.114   0.876   5.104 -1.2855 -0.9840  0.3611
19778TIP3   OH280748   2.393   6.023  13.903 -0.1476  0.0390 -0.2274
19778TIP3    H180749   2.347   6.103  13.878 -1.5705 -0.4757  0.6249
19778TIP3    H280750   2.338   5.984  13.970  1.2138 -0.9786  0.3376
19779TIP3   OH280751   5.067   4.679   4.713  0.3124  0.4985  0.0679
19779TIP3    H180752   4.980   4.719   4.724 -0.2091 -0.6970  0.4267
19779TIP3    H280753   5.091   4.698   4.623  1.0665  3.4978  0.7909
19780TIP3   OH280754   1.557   2.095  12.524 -0.1240 -0.1412  0.0565
19780TIP3    H180755   1.567   2.152  12.449  1.1210  1.3370  1.2794
19780TIP3    H280756   1.515   2.016  12.489 -2.4921  1.7230 -1.5663
19781TIP3   OH280757   1.564   1.661  15.521  0.2858  0.1811  0.5778
19781TIP3    H180758   1.575   1.742  15.471 -0.5646  0.5153  0.9151
19781TIP3    H280759   1.615   1.596  15.472  1.4526  1.0378  0.6206
19782TIP3   OH280760   2.608   6.100  16.884  0.2206 -0.0569 -0.5665
19782TIP3    H180761   2.618   6.103  16.789 -1.8643 -3.0928 -1.0444
19782TIP3    H280762   2.639   6.013  16.908 -2.2023 -0.5788  1.0056
19783TIP3   OH280763   0.195   4.269   1.163 -0.6222 -0.3214 -0.8835
19783TIP3    H180764   0.141   4.231   1.233 -0.8452  0.0093 -0.8745
19783TIP3    H280765   0.222   4.354   1.197 -0.7736 -0.1363 -1.2169
19784TIP3   OH280766   5.447   2.823  12.901  0.0021  0.2628 -0.1508
19784TIP3    H180767   5.458   2.858  12.813  0.9782 -0.1301 -0.1966
19784TIP3    H280768   5.470   2.730  12.894 -1.7879 -0.2396  0.1345
19785TIP3   OH280769   1.066   0.295   4.839 -0.2420 -0.0954 -0.1611
19785TIP3    H180770   1.038   0.212   4.798  2.0319 -1.2506  0.4948
19785TIP3    H280771   1.097   0.348   4.766 -0.6164 -0.2570 -0.4455
19786TIP3   OH280772   6.547   3.273  14.301 -0.4806 -0.4326 -0.2758
19786TIP3    H180773   6.553   3.206  14.233 -0.9582 -0.0110 -0.7385
19786TIP3    H280774   6.456   3.301  14.300  0.2604  2.2490 -2.0592
19787TIP3   OH280775   4.355   5.193   4.478 -0.0745 -0.2744 -0.2151
19787TIP3    H180776   4.335   5.240   4.397  0.4158 -0.3847 -0.3984
19787TIP3    H280777   4.439   5.150   4.462  0.2377  0.0580  0.5074
19788TIP3   OH280778   3.800   3.820  12.847 -0.4476 -0.1809  0.1489
19788TIP3    H180779   3.889   3.799  12.877 -0.0711 -2.3677 -2.1675
19788TIP3    H280780   3.812   3.888  12.781 -0.2154 -1.7654 -1.5051
19789TIP3   OH280781   4.630   3.085  12.326 -0.7404 -0.0680  0.4068
19789TIP3    H180782   4.675   3.004  12.352  0.8068  0.5425 -0.2577
19789TIP3    H280783   4.633   3.139  12.405  2.4899  1.1374 -0.3625
19790TIP3   OH280784   1.786   4.994   1.373  0.3898  0.1594  0.1054
19790TIP3    H180785   1.733   5.003   1.452  1.1060 -1.6220  0.8303
19790TIP3    H280786   1.786   5.082   1.335  0.3072  1.1614  2.2603
19791TIP3   OH280787   1.784   0.653   4.014  0.0942  0.4803 -0.2817
19791TIP3    H180788   1.774   0.662   4.109  1.9252 -1.2207  0.1243
19791TIP3    H280789   1.740   0.570   3.993  3.1880 -1.3197 -0.1824
19792TIP3   OH280790   0.304   6.142   5.708 -0.0527  0.5796 -0.3556
19792TIP3    H180791   0.310   6.101   5.621 -0.7688  0.5442 -0.3910
19792TIP3    H280792   0.376   6.206   5.708  3.4074 -2.9275  0.9746
19793TIP3   OH280793   5.205   1.059  11.445 -0.5417 -0.0494 -0.0732
19793TIP3    H180794   5.169   1.022  11.525  0.3588  2.6138  1.6790
19793TIP3    H280795   5.164   1.145  11.436  1.4222  0.8922 -0.8627
19794TIP3   OH280796   0.923   4.230  13.288 -0.4456 -0.1220 -0.4492
19794TIP3    H180797   0.899   4.261  13.375 -1.7976 -3.2971  0.4271
19794TIP3    H280798   0.844   4.187  13.255 -0.2863  1.7414 -3.7250
19795TIP3   OH280799   2.906   4.720   0.770  0.2460  0.3295 -0.8142
19795TIP3    H180800   2.847   4.764   0.709  2.1550  3.7645 -0.4094
19795TIP3    H280801   2.970   4.786   0.794  2.2084 -2.1779  1.5181
19796TIP3   OH280802   1.276   1.433   6.589  0.0608  0.4073 -0.2753
19796TIP3    H180803   1.344   1.401   6.648  0.6333  1.3765 -0.3955
19796TIP3    H280804   1.244   1.513   6.630 -1.5580 -0.4331  0.1673
19797TIP3   OH280805   3.267   4.168   6.150 -0.2701 -0.0054 -0.1731
19797TIP3    H180806   3.215   4.152   6.229  0.9539  0.4425  0.7493
19797TIP3    H280807   3.294   4.081   6.120  0.2272 -0.1176  0.5806
19798TIP3   OH280808   3.810   4.886  15.256  0.2283  0.1742 -0.2003
19798TIP3    H180809   3.800   4.951  15.186  0.6394 -0.5501 -0.9531
19798TIP3    H280810   3.881   4.829  15.225  0.4177 -0.1511  0.8196
19799TIP3   OH280811   5.402   0.990  15.272  0.3088 -0.0983 -0.5343
19799TIP3    H180812   5.314   0.996  15.235 -0.0583  0.9013  0.4380
19799TIP3    H280813   5.460   1.012  15.199 -0.3277  0.7279 -0.8064
19800TIP3   OH280814   3.422   6.271   4.239 -0.5062  0.4426  0.0223
19800TIP3    H180815   3.388   6.338   4.179  2.5680  0.6298 -1.7176
19800TIP3    H280816   3.486   6.222   4.187  0.5411 -1.0102  2.4986
19801TIP3   OH280817   4.454   4.262  13.490 -0.2703  0.3897  0.4844
19801TIP3    H180818   4.524   4.301  13.438 -0.0959 -0.5824 -0.0476
19801TIP3    H280819   4.494   4.248  13.577 -0.4528  1.6891  0.7977
19802TIP3   OH280820   4.598   2.373   3.000 -0.5798 -0.4293  0.6407
19802TIP3    H180821   4.665   2.305   3.004 -0.1400  0.0618  2.1996
19802TIP3    H280822   4.645   2.455   3.010 -1.2635  0.0241  0.2520
19803TIP3   OH280823   5.876   2.035  11.127  0.0982 -0.5793 -0.3003
19803TIP3    H180824   5.824   2.037  11.047  0.5029  0.6483 -0.5525
19803TIP3    H280825   5.964   2.009  11.098  0.0819 -0.8111 -0.1473
19804TIP3   OH280826   1.954   6.144  11.888  0.0129 -0.4345 -0.0268
19804TIP3    H180827   1.928   6.136  11.980  0.5936 -0.9046  0.0987
19804TIP3    H280828   1.882   6.194  11.848  0.4412  1.0839  0.9739
19805TIP3   OH280829   1.399   2.855   2.341  0.5654 -0.3318  0.5253
19805TIP3    H180830   1.412   2.762   2.322 -1.3036 -0.4866 -0.2208
19805TIP3    H280831   1.308   2.861   2.372  0.1137  1.4183 -0.9293
19806TIP3   OH280832   6.613   3.571   1.038  0.2828  0.3613 -0.2739
19806TIP3    H180833   6.517   3.566   1.033  0.2781 -2.7484  0.7284
19806TIP3    H280834   6.643   3.529   0.957  0.7564 -0.6017  0.3940
19807TIP3   OH280835   3.645   4.351   4.001  0.3212 -0.2457  0.3234
19807TIP3    H180836   3.676   4.275   3.952 -0.1113 -0.5287  0.4898
19807TIP3    H280837   3.579   4.391   3.944 -0.6534 -0.9431  0.9383
19808TIP3   OH280838   2.581   4.669   4.562  0.2754 -0.5646  0.2380
19808TIP3    H180839   2.528   4.727   4.508 -1.5671 -1.5220  0.9284
19808TIP3    H280840   2.617   4.726   4.631 -2.9550 -0.3773  1.9918
19809TIP3   OH280841   6.145   0.753   5.757 -0.1527 -0.2876  0.9656
19809TIP3    H180842   6.184   0.669   5.733 -0.3226  0.0858 -0.7230
19809TIP3    H280843   6.056   0.749   5.724  0.4090  1.2582 -0.9005
19810TIP3   OH280844   1.589   0.358   1.826 -0.3213 -0.2556  0.0102
19810TIP3    H180845   1.600   0.289   1.891  0.3127 -0.9195 -0.7778
19810TIP3    H280846   1.597   0.440   1.875  0.8272 -0.7508  0.6612
19811TIP3   OH280847   0.833   1.414  14.561 -0.2471  0.3405 -0.0195
19811TIP3    H180848   0.815   1.477  14.630  1.0817  1.2986 -0.5137
19811TIP3    H280849   0.842   1.466  14.482 -0.9611 -0.6603 -0.7813
19812TIP3   OH280850   1.069   5.942   4.368  0.6018  0.1048  0.2655
19812TIP3    H180851   1.112   6.003   4.309  0.2737 -0.0673 -0.1581
19812TIP3    H280852   0.999   5.902   4.315 -0.6904  1.0571  1.1764
19813TIP3   OH280853   0.328   3.729   1.294 -0.1814  0.3810 -0.2532
19813TIP3    H180854   0.292   3.724   1.206  0.7937  0.9403 -0.6997
19813TIP3    H280855   0.283   3.803   1.334 -1.0798 -0.2584 -0.0509
19814TIP3   OH280856   1.742   4.464   0.053 -0.0862 -0.0397 -0.0478
19814TIP3    H180857   1.814   4.402   0.057  0.3049  0.4708  2.0041
19814TIP3    H280858   1.777   4.539   0.005  0.5593 -0.0306  0.4350
19815TIP3   OH280859   4.003   3.127  12.206  0.0990  0.2322 -0.4082
19815TIP3    H180860   3.998   3.125  12.301  1.4577  0.6389 -0.3031
19815TIP3    H280861   3.913   3.144  12.177 -0.1696  1.0375  0.8244
19816TIP3   OH280862   5.904   2.338   2.505  0.2862  0.1992  0.6514
19816TIP3    H180863   5.810   2.346   2.490  0.1018 -1.1756  0.9361
19816TIP3    H280864   5.911   2.325   2.600  0.6490 -0.8923  0.4894
19817TIP3   OH280865   6.744   4.438   0.100 -0.0892  0.2566 -1.0034
19817TIP3    H180866   6.762   4.527   0.071  1.4588 -0.2388 -1.7050
19817TIP3    H280867   6.778   4.382   0.029  0.9905 -0.9177  0.3658
19818TIP3   OH280868   3.824   0.332  15.231 -0.5145  0.2568 -0.5639
19818TIP3    H180869   3.771   0.394  15.282  0.0443  0.9092 -0.7691
19818TIP3    H280870   3.912   0.368  15.233 -0.2103 -0.4508 -0.8303
19819TIP3   OH280871   2.027   0.754  16.976  0.0284 -0.6269 -0.1781
19819TIP3    H180872   1.964   0.824  16.992  0.8355  0.1805 -0.4232
19819TIP3    H280873   1.998   0.682  17.032 -0.2120  0.2706  0.8889
19820TIP3   OH280874   5.926   5.112   2.614 -0.3111 -0.1668 -0.0229
19820TIP3    H180875   5.915   5.189   2.557  1.0576  1.0409  1.2491
19820TIP3    H280876   5.841   5.068   2.611 -3.3120  4.3822  3.4323
19821TIP3   OH280877   3.004   2.027  17.291 -0.0404 -0.0892  0.7254
19821TIP3    H180878   2.923   1.991  17.256 -0.9015  0.6601  1.8960
19821TIP3    H280879   3.071   1.964  17.265 -0.6506  0.2231 -1.9169
19822TIP3   OH280880   0.981   4.444  14.810 -0.0902  0.2957  0.2926
19822TIP3    H180881   0.917   4.376  14.788  2.0216 -1.0920 -2.1960
19822TIP3    H280882   0.931   4.525  14.811 -2.2945 -1.0014  0.9848
19823TIP3   OH280883   0.960   6.350   1.161 -0.3509  0.0282  0.4465
19823TIP3    H180884   1.038   6.386   1.203  0.1449 -2.9891  2.4214
19823TIP3    H280885   0.982   6.351   1.067  0.0704  3.4262  0.4428
19824TIP3   OH280886   6.075   2.715  14.562 -0.0996 -0.0092  0.2797
19824TIP3    H180887   6.021   2.787  14.597 -0.7834 -0.5303  0.3179
19824TIP3    H280888   6.023   2.680  14.489  1.1966  0.9034 -1.1396
19825TIP3   OH280889   2.013   5.529   1.092 -0.1172 -0.0973  0.5039
19825TIP3    H180890   2.098   5.524   1.136  1.5911 -0.1956 -2.5473
19825TIP3    H280891   2.018   5.609   1.040 -1.7777 -0.3050 -0.0260
19826TIP3   OH280892   0.404   0.405  14.841 -0.6720  0.0904  0.2710
19826TIP3    H180893   0.437   0.494  14.825 -1.1909  0.2409  0.0412
19826TIP3    H280894   0.339   0.391  14.773  1.7721 -1.7498 -1.9123
19827TIP3   OH280895   5.737   3.448   1.406 -1.0326  0.1625 -0.2380
19827TIP3    H180896   5.659   3.406   1.369  0.3012 -2.7187 -0.0021
19827TIP3    H280897   5.810   3.405   1.364  0.5400  2.8869 -0.5455
19828TIP3   OH280898   2.748   4.441   4.637  0.0694 -0.2981 -1.2019
19828TIP3    H180899   2.684   4.508   4.614 -0.5210 -0.3202  0.2909
19828TIP3    H280900   2.832   4.487   4.640 -0.3338  0.3881 -0.1754
19829TIP3   OH280901   1.721   4.572   3.263  0.2243 -0.5600  0.4646
19829TIP3    H180902   1.673   4.646   3.226 -0.2223 -1.4559 -0.8051
19829TIP3    H280903   1.813   4.590   3.243 -0.0925 -1.6866 -2.4579
19830TIP3   OH280904   6.479   3.789  13.619  0.4377  0.1486 -0.0760
19830TIP3    H180905   6.413   3.813  13.553  0.4140  0.3608  0.0237
19830TIP3    H280906   6.533   3.868  13.628  1.7585 -0.5312 -1.3958
19831TIP3   OH280907   4.934   3.786   3.853 -0.1393 -0.3337 -0.0984
19831TIP3    H180908   4.976   3.759   3.772  0.3400  1.9203 -0.6722
19831TIP3    H280909   5.007   3.807   3.912 -0.4861 -0.4504  0.3818
19832TIP3   OH280910   1.993   0.437  14.930 -0.3246 -0.2095 -0.1948
19832TIP3    H180911   1.974   0.344  14.920 -0.7912 -0.0640 -0.6705
19832TIP3    H280912   1.980   0.475  14.843 -2.0915  0.6452  0.3997
19833TIP3   OH280913   6.067   3.823  11.681 -0.0180 -0.2681 -0.3463
19833TIP3    H180914   6.028   3.908  11.660 -0.8976 -0.3468  0.8237
19833TIP3    H280915   6.106   3.836  11.768 -0.2971 -1.0997 -0.0887
19834TIP3   OH280916   6.575   0.710  11.730  0.0853  0.0123  0.7442
19834TIP3    H180917   6.580   0.725  11.825  0.1732  1.4300  0.5441
19834TIP3    H280918   6.619   0.786  11.692  0.9539 -1.0535 -0.4208
19835TIP3   OH280919   3.310   2.341  12.530 -0.2439  0.0281 -0.2809
19835TIP3    H180920   3.316   2.426  12.574 -1.1686 -0.2014  0.3112
19835TIP3    H280921   3.217   2.328  12.516 -0.1254 -0.9861 -0.1696
19836TIP3   OH280922   2.843   6.209  14.660 -0.1743 -0.0654  0.8405
19836TIP3    H180923   2.830   6.303  14.654 -0.6427 -0.1841 -0.2417
19836TIP3    H280924   2.811   6.185  14.747 -3.6069  0.2442 -0.2147
19837TIP3   OH280925   0.701   0.592  13.880 -0.0443 -0.1768  0.6540
19837TIP3    H180926   0.636   0.590  13.951 -0.2293  0.6831  0.5182
19837TIP3    H280927   0.701   0.503  13.845 -2.2532  0.1455 -0.3372
19838TIP3   OH280928   3.669   0.283   1.709 -0.0746 -0.2979 -0.2317
19838TIP3    H180929   3.609   0.349   1.673  0.5849  1.0880  1.0800
19838TIP3    H280930   3.744   0.285   1.650  0.6466  1.3697  0.6605
19839TIP3   OH280931   6.197   6.384   5.200 -0.0798  0.1842  0.5612
19839TIP3    H180932   6.247   6.349   5.125 -0.1045  0.0070  0.6262
19839TIP3    H280933   6.227   6.331   5.274 -0.0413  0.3746  0.6806
19840TIP3   OH280934   2.239   1.349  15.228  0.3005  0.4292 -0.1044
19840TIP3    H180935   2.190   1.359  15.309 -1.0735 -2.5731 -0.4506
19840TIP3    H280936   2.211   1.423  15.174  0.8328  2.1731  1.8553
19841TIP3   OH280937   2.060   1.874   5.745  0.2303 -0.3572 -0.1314
19841TIP3    H180938   2.008   1.816   5.689  0.3959 -0.0156 -0.6362
19841TIP3    H280939   1.997   1.939   5.778  0.2228 -0.2950 -0.2700
19842TIP3   OH280940   1.537   4.295   1.999  0.0628 -0.3646  0.2849
19842TIP3    H180941   1.625   4.331   2.010 -0.2842  0.2399  1.2022
19842TIP3    H280942   1.488   4.364   1.954  0.2039 -0.9542 -0.8270
19843TIP3   OH280943   3.588   5.462   0.042 -0.1142  0.5819 -0.0276
19843TIP3    H180944   3.605   5.478  -0.051  0.9968  0.1267  0.0863
19843TIP3    H280945   3.590   5.550   0.082  0.6391  0.6748 -0.2478
19844TIP3   OH280946   0.546   5.820   2.958 -0.2215 -0.0554  0.3023
19844TIP3    H180947   0.610   5.793   3.024 -0.5086 -1.0716  0.1867
19844TIP3    H280948   0.598   5.851   2.885  0.1200 -0.0190  0.5577
19845TIP3   OH280949   6.580   5.868  15.049  0.6312  0.2718 -0.1741
19845TIP3    H180950   6.657   5.810  15.047  0.9035  0.5713  0.9472
19845TIP3    H280951   6.506   5.809  15.035  0.9508 -0.2511  0.3033
19846TIP3   OH280952   2.395   5.890  13.021  0.4137  0.2628 -0.2663
19846TIP3    H180953   2.464   5.919  12.961  0.2125  2.0128  0.2979
19846TIP3    H280954   2.416   5.931  13.105  0.0312 -1.1871  0.5685
19847TIP3   OH280955   0.751   5.691   1.991 -0.2114  0.6871 -0.2099
19847TIP3    H180956   0.669   5.736   2.013 -0.8818 -1.1477  1.2589
19847TIP3    H280957   0.725   5.604   1.963  1.1300  0.8120 -2.0566
19848TIP3   OH280958   1.836   6.085   0.481  0.1073  0.7251  0.2402
19848TIP3    H180959   1.863   6.088   0.389 -0.5867 -1.2842 -0.0809
19848TIP3    H280960   1.871   6.003   0.513  1.6651  2.0908  2.2832
19849TIP3   OH280961   0.994   5.031   5.871  0.5070 -0.3213  0.5220
19849TIP3    H180962   0.993   5.071   5.958 -1.1062  0.9168 -0.0086
19849TIP3    H280963   0.903   5.002   5.857  1.1189 -2.1065 -0.0642
19850TIP3   OH280964   1.427   4.904  12.906 -0.0244  0.2919  0.0446
19850TIP3    H180965   1.415   4.959  12.984  0.1596  2.4956 -1.3819
19850TIP3    H280966   1.345   4.913  12.858 -0.2592 -1.3141  0.0919
19851TIP3   OH280967   4.124   6.201   0.816 -0.3554  0.2836  0.3118
19851TIP3    H180968   4.190   6.162   0.874 -0.9408 -1.6950 -0.2492
19851TIP3    H280969   4.044   6.152   0.835 -1.3118  1.6542 -0.0568
19852TIP3   OH280970   6.548   5.638  14.454  0.4805 -0.6450 -0.3014
19852TIP3    H180971   6.581   5.551  14.476 -0.1991 -0.5319  1.2776
19852TIP3    H280972   6.499   5.625  14.373  0.6854 -1.6649 -0.2741
19853TIP3   OH280973   1.351   6.554   3.166  0.0604  0.3886  0.2416
19853TIP3    H180974   1.281   6.490   3.149  0.1203  0.9091 -2.4075
19853TIP3    H280975   1.392   6.523   3.246 -3.2927  0.1799  2.0615
19854TIP3   OH280976   0.090   6.695  15.507 -0.0471  0.0375 -0.6152
19854TIP3    H180977   0.103   6.600  15.510 -0.2038  0.0152 -0.6135
19854TIP3    H280978   0.017   6.711  15.567  0.0967  0.1804 -0.4808
19855TIP3   OH280979   2.737   0.911   0.345 -0.1696  0.3293  0.2988
19855TIP3    H180980   2.656   0.952   0.314  0.2548  0.0767 -1.2499
19855TIP3    H280981   2.782   0.980   0.393  0.1984  1.5005 -1.6352
19856TIP3   OH280982   5.400   1.177  16.833  0.2111 -0.2537 -0.3476
19856TIP3    H180983   5.471   1.128  16.874  1.7219  1.5867 -0.5989
19856TIP3    H280984   5.393   1.257  16.886 -2.0723 -0.6044 -0.0149
19857TIP3   OH280985   2.142   0.205  16.397 -0.5728  0.2879  0.2245
19857TIP3    H180986   2.203   0.203  16.471  2.2562  0.8130 -1.9002
19857TIP3    H280987   2.149   0.117  16.358 -0.2215  0.7084 -0.7000
19858TIP3   OH280988   5.542   6.673   5.637  0.1253 -0.0879 -0.1195
19858TIP3    H180989   5.577   6.737   5.699 -0.3964 -0.5806  0.6957
19858TIP3    H280990   5.594   6.594   5.652 -0.5044 -0.4379  0.2192
19859TIP3   OH280991   1.729   6.473  15.572 -0.2195 -0.3057  0.0434
19859TIP3    H180992   1.730   6.475  15.476  1.8108 -0.2547  0.0180
19859TIP3    H280993   1.636   6.467  15.595 -1.0775  3.1235 -1.8376
19860TIP3   OH280994   4.778   6.346   0.519  0.5129 -0.3702 -0.0568
19860TIP3    H180995   4.845   6.414   0.512  0.6488 -0.5091 -0.1080
19860TIP3    H280996   4.801   6.298   0.599  0.6481 -0.6038 -0.2328
19861TIP3   OH280997   5.838   0.181  15.614  0.0092  0.7960  0.1488
19861TIP3    H180998   5.775   0.244  15.648  0.6609  0.9003  1.1924
19861TIP3    H280999   5.873   0.137  15.692  0.3074 -0.1443 -0.4913
19862TIP3   OH281000   0.510   4.898   2.385  0.2468  0.2501  0.5727
19862TIP3    H181001   0.489   4.950   2.463 -0.7995  2.2810 -0.9648
19862TIP3    H281002   0.591   4.937   2.351  1.0136 -0.9928  0.9136
19863TIP3   OH281003   1.526   2.394  12.731 -0.4492  0.5128  0.0527
19863TIP3    H181004   1.549   2.463  12.669  0.9134  0.8984  0.9417
19863TIP3    H281005   1.608   2.373  12.775 -0.9737 -1.2253  0.2667
19864TIP3   OH281006   4.387   4.997  11.224 -0.2635  0.0300  0.4168
19864TIP3    H181007   4.435   4.930  11.175 -1.2941 -1.4829  1.3729
19864TIP3    H281008   4.453   5.037  11.281  0.0785 -1.3478  1.0263
19865TIP3   OH281009   6.559   4.266  12.717  0.1052 -0.2042  0.9013
19865TIP3    H181010   6.608   4.344  12.693 -0.6328 -0.1381 -0.5239
19865TIP3    H281011   6.470   4.298  12.734 -0.4674 -0.8311 -0.7381
19866TIP3   OH281012   3.998   3.264  11.826 -0.3050 -0.0302 -0.2676
19866TIP3    H181013   4.069   3.275  11.889 -0.4411 -1.0172  0.0798
19866TIP3    H281014   4.042   3.256  11.741 -0.1696  2.3725 -0.4881
19867TIP3   OH281015   2.472   6.606  13.153 -0.2932  0.0354 -0.1421
19867TIP3    H181016   2.455   6.598  13.059 -0.0354  0.0199 -0.1881
19867TIP3    H281017   2.506   6.520  13.179  0.3182  0.2636 -0.1777
19868TIP3   OH281018   3.266   3.892   0.991  0.0919 -0.0847  0.4619
19868TIP3    H181019   3.317   3.957   0.943 -0.6514  0.0148 -0.2113
19868TIP3    H281020   3.300   3.896   1.081  0.8118  0.4332  0.1742
19869TIP3   OH281021   0.896   4.419  12.586 -0.0638  0.0546 -0.3811
19869TIP3    H181022   0.878   4.505  12.547  0.9392  0.2943 -0.3436
19869TIP3    H281023   0.928   4.439  12.674 -1.3707 -0.4444  0.2294
19870TIP3   OH281024   5.868   4.597  14.365  0.0937 -0.2195  0.0561
19870TIP3    H181025   5.801   4.629  14.304  0.0555  0.5262  0.4745
19870TIP3    H281026   5.936   4.561  14.308  0.3958  1.1269 -0.4796
19871TIP3   OH281027   1.366   0.889  16.855 -0.1115 -0.0079  0.0819
19871TIP3    H181028   1.274   0.865  16.842 -0.2070 -0.3619  1.3010
19871TIP3    H281029   1.373   0.910  16.948  1.3016 -1.1512  0.2738
19872TIP3   OH281030   1.182   3.534   0.705 -0.3265  0.1914  0.0686
19872TIP3    H181031   1.208   3.621   0.675  0.6147 -0.4413 -1.0779
19872TIP3    H281032   1.248   3.475   0.667 -0.4610 -0.9369  1.4937
19873TIP3   OH281033   2.498   3.721  11.120  0.3958  0.0332 -0.1806
19873TIP3    H181034   2.412   3.685  11.142 -0.1832  1.2740 -0.3650
19873TIP3    H281035   2.530   3.666  11.048 -1.4496  1.2060 -1.9943
19874TIP3   OH281036   5.216   2.510   4.507  0.1006  0.3741 -0.1004
19874TIP3    H181037   5.136   2.510   4.456 -1.6781  0.7067  2.4866
19874TIP3    H281038   5.201   2.445   4.576  1.5290  1.3207  1.1677
19875TIP3   OH281039   6.322   2.442   3.568  0.5270 -0.2122 -0.1036
19875TIP3    H181040   6.249   2.465   3.511  0.6615 -0.5085 -0.3982
19875TIP3    H281041   6.309   2.349   3.588  1.1259 -0.4151 -0.6120
19876TIP3   OH281042   0.152   3.641  14.076  0.1045  0.0724 -0.5268
19876TIP3    H181043   0.136   3.563  14.022 -0.7896 -0.4525  0.4637
19876TIP3    H281044   0.134   3.715  14.018 -0.9372 -0.4816 -0.9368
19877TIP3   OH281045   6.662   3.078   0.234 -0.0206 -0.0265  0.1300
19877TIP3    H181046   6.576   3.106   0.265  0.0780  2.8226 -1.8003
19877TIP3    H281047   6.683   3.002   0.289 -3.0035  0.1577  1.7763
19878TIP3   OH281048   0.938   6.683   0.576 -0.1168 -0.3435  0.0566
19878TIP3    H181049   1.012   6.650   0.524  0.5175  0.6274  0.3154
19878TIP3    H281050   0.867   6.621   0.558  1.3393 -2.5403  1.4392
19879TIP3   OH281051   5.544   3.238   3.743 -0.1390 -0.0218  0.0547
19879TIP3    H181052   5.588   3.247   3.659  1.1629 -0.8489  0.6153
19879TIP3    H281053   5.615   3.239   3.807 -0.9971 -0.6837  1.0420
19880TIP3   OH281054   4.610   4.855  14.947  0.0379 -0.5796  0.0894
19880TIP3    H181055   4.630   4.767  14.915  2.2961  0.0281 -0.4176
19880TIP3    H281056   4.692   4.883  14.989 -0.4630  1.4416 -0.2061
19881TIP3   OH281057   1.584   1.163  16.101  0.6438  0.3958 -0.1330
19881TIP3    H181058   1.554   1.074  16.081 -0.0253  0.5263  0.2258
19881TIP3    H281059   1.676   1.154  16.123  0.1769 -0.4907  1.6104
19882TIP3   OH281060   2.039   5.583   6.152 -0.1335 -0.0921 -0.0564
19882TIP3    H181061   2.127   5.617   6.168 -0.1280 -0.5017  0.8876
19882TIP3    H281062   2.000   5.574   6.240 -0.8771 -0.5264 -0.4137
19883TIP3   OH281063   6.128   4.480  17.346  0.4293  0.2287  0.3889
19883TIP3    H181064   6.038   4.499  17.369  0.5306  1.3995 -0.0957
19883TIP3    H281065   6.180   4.515  17.418  0.5230  0.0987  0.3848
19884TIP3   OH281066   2.048   5.305   5.411  0.2750  0.4689  0.3589
19884TIP3    H181067   2.030   5.275   5.500 -0.1553  1.5387  0.6492
19884TIP3    H281068   2.006   5.240   5.355 -0.0965  0.1835  0.9570
19885TIP3   OH281069   6.116   5.535  13.298 -0.3640 -0.3476  0.3020
19885TIP3    H181070   6.095   5.488  13.217  0.2020 -1.6493  0.8904
19885TIP3    H281071   6.203   5.571  13.283 -0.6889  0.3123 -0.0483
19886TIP3   OH281072   3.342   0.337  14.742 -0.1936  0.2597  0.2083
19886TIP3    H181073   3.295   0.418  14.762 -0.9566 -0.0839 -0.1360
19886TIP3    H281074   3.276   0.281  14.701  0.5675 -0.1631 -0.4788
19887TIP3   OH281075   0.314   2.860  12.110  0.2399  0.7396  0.1292
19887TIP3    H181076   0.306   2.812  12.028 -2.0090 -0.1026  0.7817
19887TIP3    H281077   0.275   2.945  12.092  0.2206  0.7406  0.1760
19888TIP3   OH281078   2.872   0.031   6.327  0.1756  0.3521 -0.0391
19888TIP3    H181079   2.894  -0.062   6.329 -1.6908 -0.1870 -1.4472
19888TIP3    H281080   2.943   0.074   6.376  1.4338 -1.7146  0.0688
19889TIP3   OH281081   5.493   6.371   5.733  0.4022  0.1217  0.0506
19889TIP3    H181082   5.474   6.396   5.823 -0.3338  2.6862 -0.7248
19889TIP3    H281083   5.408   6.357   5.693  0.5724  1.2987 -0.7907
19890TIP3   OH281084   1.202   2.402   6.903  0.4712  0.3358 -0.2038
19890TIP3    H181085   1.266   2.349   6.855 -1.8520 -1.6606 -1.3436
19890TIP3    H281086   1.193   2.357   6.987 -0.2960 -0.1655 -0.5371
19891TIP3   OH281087   3.684   6.521   0.798 -0.2495  0.1953 -0.0180
19891TIP3    H181088   3.588   6.519   0.797 -0.3145  1.7959 -0.7868
19891TIP3    H281089   3.707   6.505   0.889 -1.3876  2.3164  0.7176
19892TIP3   OH281090   5.540   6.072  15.511 -0.1730 -0.5614 -0.1310
19892TIP3    H181091   5.620   6.084  15.562  0.6388  0.4028 -1.5532
19892TIP3    H281092   5.503   6.160  15.504 -1.2038 -0.9442  0.2184
19893TIP3   OH281093   4.454   6.604   1.620 -0.5368 -0.0989  0.4964
19893TIP3    H181094   4.458   6.589   1.526 -0.6189  0.0499  0.4704
19893TIP3    H281095   4.541   6.579   1.652 -0.5213 -0.1844  0.3868
19894TIP3   OH281096   0.145   5.568  13.557 -0.5988  0.0005 -0.5474
19894TIP3    H181097   0.162   5.478  13.586 -1.0877 -0.3236 -1.2422
19894TIP3    H281098   0.089   5.605  13.625 -0.6603 -0.3277 -0.4172
19895TIP3   OH281099   1.772   5.366  15.333 -0.2938 -0.1206 -0.6933
19895TIP3    H181100   1.729   5.435  15.281  0.7858  0.4253 -0.8840
19895TIP3    H281101   1.863   5.367  15.303  0.3621  0.1996  1.1897
19896TIP3   OH281102   1.882   1.384  14.988  0.4612  0.0187  0.2521
19896TIP3    H181103   1.897   1.415  15.077  1.1349  1.7322 -0.4165
19896TIP3    H281104   1.970   1.380  14.949  0.1822 -0.8007 -0.3209
19897TIP3   OH281105   2.722   1.237   5.196 -0.3606 -0.0938 -0.2501
19897TIP3    H181106   2.783   1.287   5.142 -0.3656 -2.7935 -3.0387
19897TIP3    H281107   2.651   1.299   5.216  0.5031  1.5128 -1.9033
19898TIP3   OH281108   1.540   1.322   4.192 -0.1332 -0.3888  0.5977
19898TIP3    H181109   1.574   1.397   4.142 -1.4192  0.2328  0.6127
19898TIP3    H281110   1.553   1.247   4.134 -1.4382  0.2868 -0.6601
19899TIP3   OH281111   0.485   0.988  10.991 -0.5914  0.0073  0.5883
19899TIP3    H181112   0.417   0.959  11.052 -1.3972  0.2205 -0.1890
19899TIP3    H281113   0.516   0.907  10.950 -1.8615  0.0810 -0.5715
19900TIP3   OH281114   1.272   5.245   2.648  0.4866 -0.0617  0.1577
19900TIP3    H181115   1.351   5.225   2.597  0.6108 -0.7354  0.5984
19900TIP3    H281116   1.201   5.203   2.600  0.4253  0.3311 -0.1026
19901TIP3   OH281117   6.217   2.869   2.146 -0.1081 -0.2345 -0.4595
19901TIP3    H181118   6.298   2.817   2.154  2.0355  2.7921 -0.9074
19901TIP3    H281119   6.187   2.880   2.237  0.9441 -0.0250 -0.1235
19902TIP3   OH281120   4.328   6.432  12.796  0.1744  0.9577 -0.0084
19902TIP3    H181121   4.395   6.373  12.829  1.0461  0.6446 -2.2027
19902TIP3    H281122   4.330   6.421  12.701 -1.7686  2.2573 -0.2578
19903TIP3   OH281123   0.685   1.110  17.365 -0.3495 -0.3322  0.1820
19903TIP3    H181124   0.737   1.073  17.293  0.2822 -0.6221  0.7818
19903TIP3    H281125   0.714   1.202  17.370  1.1533 -0.8352  1.4199
19904TIP3   OH281126   3.352   0.362   0.605  0.0441 -0.1570  0.0556
19904TIP3    H181127   3.307   0.433   0.560  0.2970 -0.2582 -0.3589
19904TIP3    H281128   3.411   0.406   0.667 -1.2740 -0.0267  1.2733
19905TIP3   OH281129   2.974   1.461   3.107  0.4798 -0.0312 -0.0098
19905TIP3    H181130   2.991   1.550   3.076 -1.9566  0.6798  0.4211
19905TIP3    H281131   3.047   1.441   3.165  1.8570  1.0788 -1.2663
19906TIP3   OH281132   2.543   1.708  13.259 -0.4293 -0.2812  0.0191
19906TIP3    H181133   2.638   1.712  13.248 -0.5592  1.5714 -0.8099
19906TIP3    H281134   2.512   1.795  13.235 -2.4424 -1.1159 -0.6633
19907TIP3   OH281135   5.183   6.259   1.737  0.5803  0.1915 -0.2456
19907TIP3    H181136   5.101   6.239   1.783  0.3695 -1.3740 -1.2217
19907TIP3    H281137   5.168   6.345   1.697 -0.7338 -0.2117 -0.6860
19908TIP3   OH281138   6.023   0.486  15.069 -0.2897  0.3423 -0.1473
19908TIP3    H181139   6.060   0.530  15.145  0.3895 -1.9181  0.9216
19908TIP3    H281140   6.095   0.478  15.008 -0.0585 -0.4083  0.2115
19909TIP3   OH281141   1.703   6.533  13.026 -0.0668  0.2352  0.0423
19909TIP3    H181142   1.622   6.528  13.078 -0.2250 -1.0891 -0.2937
19909TIP3    H281143   1.704   6.622  12.992 -0.8939  0.5656  0.8370
19910TIP3   OH281144   6.308   1.242  17.238 -0.5251 -0.1421  0.0418
19910TIP3    H181145   6.345   1.168  17.286 -0.4997 -0.7645 -0.9157
19910TIP3    H281146   6.343   1.319  17.283 -1.8247 -0.6519  2.0639
19911TIP3   OH281147   6.563   4.034  13.239  0.8509  0.0945  0.1999
19911TIP3    H181148   6.658   4.043  13.231  0.6278  0.8466 -3.2349
19911TIP3    H281149   6.536   4.110  13.290  2.0091  0.4897  0.2676
19912TIP3   OH281150   4.110   4.918  11.316 -0.4633 -0.3812  0.7919
19912TIP3    H181151   4.199   4.949  11.295 -0.9191  0.4124 -0.0218
19912TIP3    H281152   4.090   4.855  11.248 -0.8522  0.0822  0.4725
19913TIP3   OH281153   2.644   3.949   1.019  0.7176 -0.4074  0.4340
19913TIP3    H181154   2.677   3.860   1.007 -0.6378 -1.1259  1.6392
19913TIP3    H281155   2.717   3.998   1.057  1.0736 -1.3780  1.0308
19914TIP3   OH281156   2.146   0.740   0.695 -0.3515 -0.4766  0.3344
19914TIP3    H181157   2.126   0.691   0.614  1.5502  0.2048 -0.6005
19914TIP3    H281158   2.085   0.814   0.693  0.6672  0.3933 -1.3415
19915TIP3   OH281159   1.685   1.170  10.781  0.4711 -0.6611 -0.0431
19915TIP3    H181160   1.744   1.246  10.780  0.3270 -0.5493 -0.0691
19915TIP3    H281161   1.730   1.107  10.837  1.1000 -0.9678 -0.8655
19916TIP3   OH281162   1.558   0.621  10.674  0.0547 -0.1958  0.1226
19916TIP3    H181163   1.583   0.697  10.727  0.2061 -0.3157  0.2254
19916TIP3    H281164   1.540   0.657  10.587 -3.5842  0.5721  1.0288
19917TIP3   OH281165   5.618   3.141   5.078 -0.2291  0.5506 -0.3224
19917TIP3    H181166   5.534   3.186   5.085 -0.3415  0.1441  1.1608
19917TIP3    H281167   5.632   3.101   5.164  1.1057 -0.0590 -0.7915
19918TIP3   OH281168   3.293   1.444  13.588 -0.9485  0.7278  0.1268
19918TIP3    H181169   3.261   1.380  13.525 -0.7738 -0.6605  1.3966
19918TIP3    H281170   3.377   1.473  13.552 -0.9281  0.0829 -0.3648
19919TIP3   OH281171   0.461   3.227  13.425 -0.2609 -1.0168  0.3346
19919TIP3    H181172   0.435   3.153  13.370 -0.4554 -0.3656 -0.4777
19919TIP3    H281173   0.387   3.239  13.485 -0.1603 -1.5702  0.5762
19920TIP3   OH281174   3.563   1.239   4.362  0.0006 -0.1511 -0.2065
19920TIP3    H181175   3.586   1.164   4.416  1.0119  0.1632 -0.1867
19920TIP3    H281176   3.571   1.314   4.421  1.8833  0.2852 -0.9622
19921TIP3   OH281177   0.523   6.509  16.901 -0.2486  0.4613 -0.6319
19921TIP3    H181178   0.524   6.465  16.986 -0.4636 -0.1277 -0.9326
19921TIP3    H281179   0.565   6.447  16.841 -0.8495  0.5258 -1.1261
19922TIP3   OH281180   3.708   2.302  15.721 -0.7602  0.7320  0.1898
19922TIP3    H181181   3.796   2.272  15.745 -0.9671  0.6197  0.8371
19922TIP3    H281182   3.653   2.276  15.795 -1.4200  0.4331 -0.3915
19923TIP3   OH281183   4.394   2.397  14.883 -0.0379  0.1994  0.0372
19923TIP3    H181184   4.462   2.345  14.841  0.7873  0.1322  1.3801
19923TIP3    H281185   4.345   2.334  14.936 -2.5413 -0.1476 -2.4795
19924TIP3   OH281186   2.341   4.435   0.871 -0.2073 -0.4542 -0.0877
19924TIP3    H181187   2.323   4.492   0.946 -1.3149  0.1213 -0.7640
19924TIP3    H281188   2.330   4.492   0.794  0.2875 -1.1885 -0.7217
19925TIP3   OH281189   5.278   6.513  16.927 -0.2182 -0.2365  0.6372
19925TIP3    H181190   5.279   6.437  16.869  2.6161  0.2783 -0.1610
19925TIP3    H281191   5.234   6.581  16.876 -0.1977 -0.5574  0.1855
19926TIP3   OH281192   2.515   0.094   2.915 -0.4689 -0.7643 -0.3558
19926TIP3    H181193   2.597   0.098   2.963 -0.7298  1.7911  0.0188
19926TIP3    H281194   2.539   0.110   2.824 -0.7155  4.1992  0.1791
19927TIP3   OH281195   3.763   2.733   1.937  0.5991  0.0586  0.5023
19927TIP3    H181196   3.687   2.789   1.951  0.2507 -0.5885  1.3293
19927TIP3    H281197   3.793   2.711   2.025  0.2604 -1.6425  0.2259
19928TIP3   OH281198   3.935   5.564   2.788  0.2382 -0.3629  0.2391
19928TIP3    H181199   4.020   5.520   2.791 -0.5241 -1.9356 -0.1193
19928TIP3    H281200   3.929   5.599   2.699  0.5840 -0.1127  0.3160
19929TIP3   OH281201   2.589   3.744  11.609  0.1959  0.4087 -0.0480
19929TIP3    H181202   2.496   3.726  11.602  0.4503 -0.4175 -1.7979
19929TIP3    H281203   2.621   3.684  11.676 -0.6769  1.4618  1.3736
19930TIP3   OH281204   5.318   2.208  15.352  0.5357  0.5287 -0.3766
19930TIP3    H181205   5.302   2.156  15.274 -1.1700 -0.3520  0.5074
19930TIP3    H281206   5.347   2.293  15.318  2.7338 -0.7084 -1.8537
19931TIP3   OH281207   5.724   4.952   2.889  0.6943  0.1873 -0.2141
19931TIP3    H181208   5.808   4.912   2.911  0.8450  0.5916 -0.0469
19931TIP3    H281209   5.727   4.963   2.794 -0.1613 -2.0167 -0.5388
19932TIP3   OH281210   0.924   0.258   3.951  0.6585  0.4259  0.3938
19932TIP3    H181211   0.920   0.288   3.861  0.0841 -0.3587  0.1455
19932TIP3    H281212   1.004   0.206   3.955 -0.1135 -0.8436 -0.0987
19933TIP3   OH281213   6.680   5.581  15.868  0.4019 -0.0041  0.1158
19933TIP3    H181214   6.592   5.546  15.854 -0.1065  0.8008  1.1158
19933TIP3    H281215   6.711   5.537  15.947  1.8213 -1.9301 -1.4306
19934TIP3   OH281216   1.540   5.214  12.797  0.3323  0.2710  0.7501
19934TIP3    H181217   1.524   5.136  12.745 -1.7696  1.6051 -0.7529
19934TIP3    H281218   1.454   5.240  12.830  1.1880  1.1369  2.4759
19935TIP3   OH281219   5.914   2.151  11.368 -0.0128 -0.1471 -0.4617
19935TIP3    H181220   5.907   2.128  11.276 -0.3991 -0.8117 -0.2738
19935TIP3    H281221   5.951   2.074  11.410 -3.0833 -1.2629  0.4796
19936TIP3   OH281222   4.399   4.595   0.306 -0.3269  0.7336 -0.5005
19936TIP3    H181223   4.369   4.545   0.231  0.2764  2.0491 -1.6611
19936TIP3    H281224   4.464   4.656   0.271  1.8157 -0.2341  1.4770
19937TIP3   OH281225   4.857   5.664  13.596 -0.5021  0.1443 -0.4560
19937TIP3    H181226   4.878   5.629  13.510  1.1409 -0.6171  0.2091
19937TIP3    H281227   4.770   5.703  13.586 -0.6840 -0.6314 -2.2360
19938TIP3   OH281228   0.556   2.244   5.047 -0.3233  0.6068 -0.7177
19938TIP3    H181229   0.611   2.202   4.981 -0.7723 -0.4692 -0.4232
19938TIP3    H281230   0.488   2.289   4.997  0.9563  2.2020 -1.1012
19939TIP3   OH281231   2.921   4.997  16.825  0.3822  0.5843 -0.1268
19939TIP3    H181232   2.958   5.043  16.750 -2.2076  0.8810 -1.3217
19939TIP3    H281233   2.964   5.037  16.901  2.5894  0.7263 -1.3618
19940TIP3   OH281234   5.189   1.468  11.931  0.0493  0.1512  0.4219
19940TIP3    H181235   5.116   1.474  11.870 -0.3160  0.8024  0.9085
19940TIP3    H281236   5.258   1.522  11.893 -0.2819  0.7930  0.7262
19941TIP3   OH281237   5.574   5.865  14.177  0.9159 -0.6173 -0.3749
19941TIP3    H181238   5.517   5.788  14.182 -0.4698  0.3125 -1.3321
19941TIP3    H281239   5.642   5.840  14.114  2.5806 -2.2883  1.8689
19942TIP3   OH281240   1.525   3.774  15.116  0.8144 -0.1039  0.1484
19942TIP3    H181241   1.439   3.793  15.081 -0.1010 -0.2584  2.1608
19942TIP3    H281242   1.584   3.781  15.041 -0.9294 -0.0378 -1.2782
19943TIP3   OH281243   1.264   5.131  15.673  0.3735  0.4734  0.2803
19943TIP3    H181244   1.212   5.058  15.707 -2.8645  2.4471 -0.0045
19943TIP3    H281245   1.211   5.208  15.692  1.8577  2.4043 -2.7250
19944TIP3   OH281246   0.640   0.304   2.588 -0.2529 -0.0245  0.0492
19944TIP3    H181247   0.669   0.239   2.652 -0.3358  0.1034  0.2180
19944TIP3    H281248   0.714   0.364   2.580 -0.2854  0.0242  0.1116
19945TIP3   OH281249   5.218   4.501  13.874  0.3508  0.6667 -0.3069
19945TIP3    H181250   5.181   4.426  13.920 -0.3234  0.7612 -0.6759
19945TIP3    H281251   5.306   4.511  13.910  1.0776 -1.3004 -1.3998
19946TIP3   OH281252   1.212   4.829  15.099 -0.5355  0.4391  0.5443
19946TIP3    H181253   1.170   4.805  15.017  0.1695  0.5521  0.1400
19946TIP3    H281254   1.168   4.909  15.126 -1.2792 -0.0078  0.6689
19947TIP3   OH281255   1.493   1.345  14.257  0.1636 -0.3297 -0.1769
19947TIP3    H181256   1.459   1.387  14.178  0.5129 -0.0183 -0.1667
19947TIP3    H281257   1.496   1.252  14.236  1.4074 -0.1338 -0.9763
19948TIP3   OH281258   3.311   5.984  12.310 -0.6427 -0.9035  0.2367
19948TIP3    H181259   3.341   6.000  12.400 -1.2897 -1.9997  0.6765
19948TIP3    H281260   3.264   6.063  12.286 -0.6122 -0.6613  0.9434
19949TIP3   OH281261   0.509   6.718   3.319 -0.0628 -0.3031 -0.7317
19949TIP3    H181262   0.417   6.741   3.330 -0.3871 -1.6151 -0.5543
19949TIP3    H281263   0.512   6.669   3.237  0.2588 -1.3775 -0.0894
19950TIP3   OH281264   1.814   3.586  12.427  0.3405 -0.4173  0.1003
19950TIP3    H181265   1.731   3.601  12.471  0.0217  1.6458 -1.0690
19950TIP3    H281266   1.823   3.491  12.423 -0.6454 -0.6791  2.5733
19951TIP3   OH281267   3.983   2.024  15.732  0.2381  0.6565 -0.1168
19951TIP3    H181268   4.066   1.992  15.697  0.3646  0.6736  0.1617
19951TIP3    H281269   3.924   1.949  15.726  0.0237  0.8910 -1.1079
19952TIP3   OH281270   2.993   4.322  15.418  0.2998 -0.6649 -0.2790
19952TIP3    H181271   3.038   4.248  15.458  0.8480  0.7852  1.9721
19952TIP3    H281272   2.956   4.370  15.492 -1.5837  0.3627 -1.7936
19953TIP3   OH281273   3.206   4.808   0.438 -0.1505 -0.3558  0.1138
19953TIP3    H181274   3.246   4.755   0.369  2.3440  0.2454  0.9913
19953TIP3    H281275   3.241   4.772   0.520 -0.7303  0.7734  0.8947
19954TIP3   OH281276   0.513   2.079  12.090 -0.2168  0.5623  0.4551
19954TIP3    H181277   0.445   2.094  12.157 -0.9151  0.4520 -0.2118
19954TIP3    H281278   0.554   1.996  12.116 -0.2921  0.6591  0.9008
19955TIP3   OH281279   3.304   4.477  15.381  0.4935 -0.4982  0.0432
19955TIP3    H181280   3.265   4.466  15.468  0.3876 -2.4612 -0.2075
19955TIP3    H281281   3.284   4.567  15.357 -1.0146 -0.4564  1.3139
19956TIP3   OH281282   2.234   6.387  15.692  0.1201  0.0191 -0.4970
19956TIP3    H181283   2.192   6.471  15.709 -1.3389 -0.6558 -0.6082
19956TIP3    H281284   2.200   6.359  15.607  1.0152 -0.4485 -0.7212
19957TIP3   OH281285   6.275   1.189   5.285 -0.0435 -0.0070  0.2469
19957TIP3    H181286   6.272   1.176   5.380 -0.3234 -0.7080  0.1536
19957TIP3    H281287   6.268   1.283   5.273 -1.7151 -0.0075  0.8692
19958LIG      S81288   2.927   3.509  16.883 -0.1003 -0.1993  0.4200
19958LIG     N181289   3.256   3.429  16.493 -0.5635  0.1013 -0.1611
19958LIG     N281290   3.183   3.406  16.782  0.2412  0.6174  0.1803
19958LIG     N381291   3.412   3.225  16.105  0.2586 -0.3276  0.5228
19958LIG     C181292   3.366   3.457  16.583 -0.1064  0.6513  0.4655
19958LIG     C281293   3.400   3.347  16.675 -0.3437  0.4130  0.1093
19958LIG     C381294   3.278   3.296  16.759 -0.5430 -0.0527 -0.2738
19958LIG     C481295   3.092   3.451  16.682  0.6149  0.0508  0.1011
19958LIG     C581296   3.119   3.450  16.539  0.5547 -0.3539  0.4621
19958LIG     C681297   3.274   3.335  16.378 -0.3392  0.3506 -0.0367
19958LIG     C781298   3.339   3.416  16.264 -0.9239  0.5872 -0.3173
19958LIG     C881299   3.201   3.492  16.898  0.0242  0.3920 -1.2366
19958LIG     C981300   2.966   3.502  16.715  0.1812 -0.6670 -0.0686
19958LIG    C1081301   3.020   3.477  16.442 -0.0645  0.1818  0.2226
19958LIG    C1181302   3.326   3.346  16.122  0.3983  0.2477 -0.0236
19958LIG    C1281303   3.081   3.559  16.947 -0.3844  0.3940 -0.0132
19958LIG    C1381304   2.872   3.548  16.618 -0.2749  0.1507 -0.0798
19958LIG    C1481305   2.898   3.535  16.476 -0.0596 -0.0373  0.2711
19958LIG    C1581306   3.321   3.542  16.949  0.7617  0.1353  0.2689
19958LIG    C1681307   3.081   3.664  17.035 -0.2707  0.6510  0.3597
19958LIG    C1781308   3.325   3.640  17.046  0.5222  0.3716  0.4428
19958LIG    C1881309   3.210   3.708  17.081  0.5062 -0.0764 -0.3438
19958LIG    C1981310   3.562   3.245  16.115  1.1836  0.1786 -0.3837
19958LIG    C2081311   3.367   3.108  16.169 -0.6088  0.0328 -0.2428
19958LIG     H181312   3.337   3.547  16.641 -1.3577 -0.1154  1.0830
19958LIG     H281313   3.458   3.479  16.525  0.8894 -1.4891  1.1110
19958LIG     H381314   3.478   3.386  16.743 -1.8397  2.5091  0.7296
19958LIG     H481315   3.449   3.260  16.627 -1.5765 -0.7428  0.8788
19958LIG     H581316   3.225   3.216  16.704 -1.1710  0.2548 -0.1342
19958LIG     H681317   3.312   3.258  16.858 -2.1370  1.6299  0.9916
19958LIG     H781318   3.180   3.293  16.336  1.2768 -0.5240 -3.1069
19958LIG     H881319   3.334   3.252  16.420  0.0260  0.4417 -0.3824
19958LIG     H981320   3.445   3.445  16.282 -0.8708 -0.0770  0.5290
19958LIG    H1081321   3.290   3.516  16.256  0.3680  1.0938 -2.8265
19958LIG    H1181322   3.050   3.462  16.340 -0.3380 -0.1221  0.1865
19958LIG    H1281323   3.219   3.327  16.101  0.5221 -2.3582  1.2132
19958LIG    H1381324   3.363   3.420  16.048  0.5191 -0.7104 -0.9609
19958LIG    H1481325   2.783   3.605  16.641 -0.3582  0.4430 -1.0866
19958LIG    H1581326   2.819   3.569  16.411 -0.0310  0.0293  0.2709
19958LIG    H1681327   3.413   3.489  16.931  0.3062 -0.0803 -1.6297
19958LIG    H1781328   2.986   3.701  17.071 -0.2654  1.9327 -0.8689
19958LIG    H1881329   3.424   3.657  17.085  0.7905 -0.8221  0.3238
19958LIG    H1981330   3.217   3.797  17.142 -0.2666 -0.5343  0.4300
19958LIG    H2081331   3.591   3.246  16.222 -0.2490 -0.9177  0.0357
19958LIG    H2181332   3.591   3.343  16.070 -0.4689  1.4841  1.2203
19958LIG    H2281333   3.617   3.158  16.073  1.1064 -0.4181  0.7092
19958LIG    H2381334   3.256   3.114  16.181 -0.7879 -1.0165 -1.2152
19958LIG    H2481335   3.418   3.088  16.266  0.0636 -0.3943 -0.6833
19958LIG    H2581336   3.397   3.018  16.112  0.0320 -0.5224  0.9243
   6.77508   6.77508  17.38185
